<event>
 6    0  0.4945982E+002  0.8606238E+02  0.7546771E-02  0.1312677E+00
          1   -1    0    0  503    0 -0.00000000000E+00  0.00000000000E+00  0.37121669427E+03  0.37121669427E+03  0.00000000000E+00 0.  1.
         21   -1    0    0  505  502  0.00000000000E+00 -0.00000000000E+00 -0.42103852087E+03  0.42103852087E+03  0.00000000000E+00 0. -1.
         21    1    1    2  503  502 -0.14193272718E-01  0.32214570482E+02 -0.11293722025E+03  0.11744187699E+03  0.00000000000E+00 0. -1.
         21    1    1    2  504  501 -0.63415524897E+02 -0.62458576770E-01  0.86262012429E+02  0.10706384771E+03  0.00000000000E+00 0.  1.
         21    1    1    2  505  504  0.69860009720E+02 -0.86885041503E+02 -0.28192481156E+03  0.30316832085E+03  0.00000000000E+00 0. -1.
          1    1    1    2  501    0 -0.64302915501E+01  0.54732929597E+02  0.25877819279E+03  0.26458116958E+03  0.00000000000E+00 0.  1.
<scales pt_clust_3="32.21457" pt_clust_4="86.06238" pt_clust_5="14000.00000" pt_clust_6="55.41291"></scales>
<clustering>
<clus scale="   32.215">  2  3  1 -1</clus>
<clus scale="   55.413">  1  6  2 -1</clus>
<clus scale="   86.062">  1  4  2 -1</clus>
<clus scale="   32.215">  2  3  1 -1</clus>
</clustering>
</event>
<event>
 6    0  0.4945982E+002  0.1092266E+03  0.7546771E-02  0.1262009E+00
         21   -1    0    0  504  502  0.00000000000E+00  0.00000000000E+00  0.10804748192E+03  0.10804748192E+03  0.00000000000E+00 0. -1.
          2   -1    0    0  505    0 -0.00000000000E+00 -0.00000000000E+00 -0.24794606806E+04  0.24794606806E+04  0.00000000000E+00 0.  1.
         21    1    1    2  503  502  0.47490417274E+02  0.29666157240E+01  0.78504884942E+02  0.91799550660E+02  0.00000000000E+00 0. -1.
         21    1    1    2  504  501  0.26708025946E+02 -0.93399179249E+02 -0.10522439422E+03  0.14320928208E+03  0.00000000000E+00 0. -1.
         21    1    1    2  505  503 -0.19838909725E+02  0.38655494244E+02 -0.14135151239E+03  0.14787859761E+03  0.00000000000E+00 0.  1.
          2    1    1    2  501    0 -0.54359533495E+02  0.51777069281E+02 -0.22033421770E+04  0.22046207322E+04  0.00000000000E+00 0.  1.
<scales pt_clust_3="47.53361" pt_clust_4="14000.00000" pt_clust_5="43.44916" pt_clust_6="109.22661"></scales>
<clustering>
<clus scale="   43.449">  2  5  1 -1</clus>
<clus scale="   47.534">  1  3  2 -1</clus>
<clus scale="  109.227">  2  6  1 -1</clus>
<clus scale="   47.534">  1  3  2 -1</clus>
</clustering>
</event>
<event>
 6    0  0.4945982E+002  0.1030187E+03  0.7546771E-02  0.1274073E+00
         21   -1    0    0  505  502  0.00000000000E+00  0.00000000000E+00  0.34207026607E+02  0.34207026607E+02  0.00000000000E+00 0. -1.
          2   -1    0    0  503    0 -0.00000000000E+00 -0.00000000000E+00 -0.30266540346E+04  0.30266540346E+04  0.00000000000E+00 0. -1.
         21    1    1    2  503  502 -0.42793792120E+02  0.95057085333E+02 -0.49920806407E+03  0.50997632235E+03  0.00000000000E+00 0. -1.
         21    1    1    2  504  501  0.58500325928E+02 -0.89491866620E+02 -0.58901332726E+03  0.59863827309E+03  0.00000000000E+00 0. -1.
         21    1    1    2  505  504 -0.10954590251E+02  0.32362111740E+02  0.11568314430E+02  0.36071252024E+02  0.00000000000E+00 0. -1.
          2    1    1    2  501    0 -0.47519435573E+01 -0.37927330454E+02 -0.19157939311E+04  0.19161752138E+04  0.00000000000E+00 0. -1.
<scales pt_clust_3="103.01868" pt_clust_4="14000.00000" pt_clust_5="34.16591" pt_clust_6="37.66050"></scales>
<clustering>
<clus scale="   34.166">  1  5  2 -1</clus>
<clus scale="   37.660">  2  6  1 -1</clus>
<clus scale="  103.019">  2  3  1 -1</clus>
<clus scale="   34.166">  1  3  2 -1</clus>
</clustering>
</event>
<event>
 6    0  0.4945982E+002  0.1269182E+03  0.7546771E-02  0.1232102E+00
         21   -1    0    0  505  502  0.00000000000E+00  0.00000000000E+00  0.68989293552E+02  0.68989293552E+02  0.00000000000E+00 0. -1.
         -2   -1    0    0    0  501 -0.00000000000E+00 -0.00000000000E+00 -0.63787478702E+03  0.63787478702E+03  0.00000000000E+00 0.  1.
         21    1    1    2  503  504  0.40118846554E+02 -0.89026774885E+02 -0.17716982642E+03  0.20229788899E+03  0.00000000000E+00 0.  1.
         21    1    1    2  504  501  0.33375570698E+02 -0.14062509618E+02 -0.11065874382E+03  0.11643470479E+03  0.00000000000E+00 0.  1.
         21    1    1    2  505  503 -0.33819749906E+02  0.10944354010E+03 -0.10971970602E+02  0.11507409827E+03  0.00000000000E+00 0. -1.
         -2    1    1    2    0  502 -0.39674667346E+02 -0.63542555965E+01 -0.27008495263E+03  0.27305738853E+03  0.00000000000E+00 0.  1.
<scales pt_clust_3="31.74071" pt_clust_4="31.74071" pt_clust_5="115.72323" pt_clust_6="40.18029"></scales>
<clustering>
<clus scale="   31.741">  3  4 -1 -1</clus>
<clus scale="   40.180">  2  6  1 -1</clus>
<clus scale="  115.723">  1  5  2 -1</clus>
<clus scale="  115.723">  1  3  2 -1</clus>
</clustering>
</event>
<event>
 6    0  0.4945982E+002  0.1442241E+03  0.7546771E-02  0.1207755E+00
         21   -1    0    0  503  502  0.00000000000E+00  0.00000000000E+00  0.66110674065E+03  0.66110674065E+03  0.00000000000E+00 0.  1.
          2   -1    0    0  505    0 -0.00000000000E+00 -0.00000000000E+00 -0.92306505686E+03  0.92306505686E+03  0.00000000000E+00 0. -1.
         21    1    1    2  503  501 -0.20827336396E+03  0.13215567583E+03  0.53864799559E+03  0.59243951586E+03  0.00000000000E+00 0.  1.
         21    1    1    2  504  502  0.83849691840E+02  0.17599892401E+02  0.18323019934E+02  0.87614268779E+02  0.00000000000E+00 0.  1.
         21    1    1    2  505  504  0.43734634049E+02 -0.31292072606E+02  0.16680650876E+02  0.56304139608E+02  0.00000000000E+00 0.  1.
          2    1    1    2  501    0  0.80689038067E+02 -0.11846349563E+03 -0.83560998261E+03  0.84781387327E+03  0.00000000000E+00 0. -1.
<scales pt_clust_3="14000.00000" pt_clust_4="139.59675" pt_clust_5="43.55247" pt_clust_6="144.22414"></scales>
<clustering>
<clus scale="   43.552">  4  5 -1 -1</clus>
<clus scale="  139.597">  1  4  2 -1</clus>
<clus scale="  144.224">  2  6  1 -1</clus>
<clus scale="  139.597">  1  3  2 -1</clus>
</clustering>
</event>
<event>
 6    0  0.4945982E+002  0.8056224E+02  0.7546771E-02  0.1327463E+00
         21   -1    0    0  504  502  0.00000000000E+00  0.00000000000E+00  0.79196544911E+03  0.79196544911E+03  0.00000000000E+00 0. -1.
          1   -1    0    0  503    0 -0.00000000000E+00 -0.00000000000E+00 -0.74232953369E+02  0.74232953369E+02  0.00000000000E+00 0. -1.
         21    1    1    2  503  505  0.48038626027E+02 -0.65939922058E+02 -0.26866503150E+02  0.85892909504E+02  0.00000000000E+00 0. -1.
         21    1    1    2  504  501 -0.19139260992E+02  0.26848364103E+02  0.32748018781E+03  0.32913586765E+03  0.00000000000E+00 0. -1.
         21    1    1    2  505  502  0.58515470860E+02  0.20172241135E+02  0.73440511790E+02  0.96044200316E+02  0.00000000000E+00 0. -1.
          1    1    1    2  501    0 -0.87414835895E+02  0.18919316820E+02  0.34367829929E+03  0.35512542501E+03  0.00000000000E+00 0. -1.
<scales pt_clust_3="14000.00000" pt_clust_4="32.97190" pt_clust_5="60.46392" pt_clust_6="80.56224"></scales>
<clustering>
<clus scale="   32.972">  1  4  2 -1</clus>
<clus scale="   60.464">  1  5  2 -1</clus>
<clus scale="   80.562">  1  6  2 -1</clus>
<clus scale="   32.972">  1  3  2 -1</clus>
</clustering>
</event>
<event>
 6    0  0.4945982E+002  0.7245233E+02  0.7546771E-02  0.1351947E+00
          1   -1    0    0  505    0 -0.00000000000E+00  0.00000000000E+00  0.15817188727E+04  0.15817188727E+04  0.00000000000E+00 0. -1.
         21   -1    0    0  504  502  0.00000000000E+00 -0.00000000000E+00 -0.95427244822E+02  0.95427244822E+02  0.00000000000E+00 0.  1.
         21    1    1    2  503  501  0.89056709178E+02  0.48024693234E+02  0.12131445367E+03  0.15797045698E+03  0.00000000000E+00 0.  1.
         21    1    1    2  504  503 -0.72699393726E+02 -0.36158691741E+01  0.68119286674E+02  0.99692093843E+02  0.00000000000E+00 0.  1.
         21    1    1    2  505  502  0.28357801584E+02  0.11204116429E+02 -0.56523025379E+02  0.64222655921E+02  0.00000000000E+00 0.  1.
          1    1    1    2  501    0 -0.44715117036E+02 -0.55612940489E+02  0.13533809129E+04  0.13552609107E+04  0.00000000000E+00 0. -1.
<scales pt_clust_3="14000.00000" pt_clust_4="59.94579" pt_clust_5="30.49094" pt_clust_6="72.45233"></scales>
<clustering>
<clus scale="   30.491">  2  5  1 -1</clus>
<clus scale="   59.946">  2  4  1 -1</clus>
<clus scale="   72.452">  1  6  2 -1</clus>
<clus scale="   30.491">  2  3  1 -1</clus>
</clustering>
</event>
<event>
 6    0  0.4945982E+002  0.8658949E+02  0.7546771E-02  0.1311327E+00
         21   -1    0    0  503  502  0.00000000000E+00  0.00000000000E+00  0.66848150125E+02  0.66848150125E+02  0.00000000000E+00 0.  1.
          1   -1    0    0  504    0 -0.00000000000E+00 -0.00000000000E+00 -0.79155816039E+03  0.79155816039E+03  0.00000000000E+00 0. -1.
         21    1    1    2  503  501  0.38925631179E+02  0.32555340123E+02 -0.21707460353E+02  0.55193013763E+02  0.00000000000E+00 0.  1.
         21    1    1    2  504  505 -0.26948567670E+02 -0.11133533076E+03 -0.94746029952E+02  0.14865594965E+03  0.00000000000E+00 0.  1.
         21    1    1    2  505  502 -0.77890916675E+02  0.24204318559E+02 -0.64168582820E+02  0.10378078318E+03  0.00000000000E+00 0.  1.
          1    1    1    2  501    0  0.65913853167E+02  0.54575672074E+02 -0.54408793714E+03  0.55077656392E+03  0.00000000000E+00 0. -1.
<scales pt_clust_3="50.74500" pt_clust_4="86.58949" pt_clust_5="72.67165" pt_clust_6="14000.00000"></scales>
<clustering>
<clus scale="   50.745">  1  3  2 -1</clus>
<clus scale="   72.672">  1  5  2 -1</clus>
<clus scale="   86.589">  1  4  2 -1</clus>
<clus scale="   50.745">  1  3  2 -1</clus>
</clustering>
</event>
<event>
 6    0  0.4945982E+002  0.1125541E+03  0.7546771E-02  0.1255912E+00
         21   -1    0    0  505  502  0.00000000000E+00  0.00000000000E+00  0.35695933924E+02  0.35695933924E+02  0.00000000000E+00 0.  1.
          1   -1    0    0  504    0 -0.00000000000E+00 -0.00000000000E+00 -0.19949977006E+04  0.19949977006E+04  0.00000000000E+00 0.  1.
         21    1    1    2  503  502 -0.30553250769E+02  0.11797016145E+02 -0.35950670814E+01  0.32948372187E+02  0.00000000000E+00 0. -1.
         21    1    1    2  504  503  0.20256955883E+01  0.14999931183E+03 -0.34621705994E+03  0.37731969148E+03  0.00000000000E+00 0.  1.
         21    1    1    2  505  501  0.26426183437E+02 -0.54439433869E+02 -0.27286176945E+03  0.27949157476E+03  0.00000000000E+00 0.  1.
          1    1    1    2  501    0  0.21013717434E+01 -0.10735689410E+03 -0.13366278702E+04  0.13409339961E+04  0.00000000000E+00 0.  1.
<scales pt_clust_3="32.75165" pt_clust_4="112.55408" pt_clust_5="56.84575" pt_clust_6="14000.00000"></scales>
<clustering>
<clus scale="   32.752">  1  3  2 -1</clus>
<clus scale="   56.846">  1  5  2 -1</clus>
<clus scale="  112.554">  1  4  2 -1</clus>
<clus scale="   32.752">  1  3  2 -1</clus>
</clustering>
</event>
<event>
 6    0  0.4945982E+002  0.1178417E+03  0.7546771E-02  0.1246701E+00
          1   -1    0    0  504    0 -0.00000000000E+00  0.00000000000E+00  0.17876012927E+04  0.17876012927E+04  0.00000000000E+00 0.  1.
         21   -1    0    0  501  502  0.00000000000E+00 -0.00000000000E+00 -0.14503263337E+03  0.14503263337E+03  0.00000000000E+00 0. -1.
         21    1    1    2  503  502 -0.10276336934E+03 -0.43231357867E+02 -0.10964028656E+03  0.15636576613E+03  0.00000000000E+00 0. -1.
         21    1    1    2  504  505  0.33007525327E+02 -0.38658818314E+02  0.16994918617E+03  0.17738863222E+03  0.00000000000E+00 0.  1.
         21    1    1    2  505  503  0.57069332656E+02 -0.82833475642E+01  0.11359520008E+03  0.12739463120E+03  0.00000000000E+00 0.  1.
          1    1    1    2  501    0  0.12686511354E+02  0.90173523745E+02  0.14686645596E+04  0.14714848965E+04  0.00000000000E+00 0.  1.
<scales pt_clust_3="108.20651" pt_clust_4="43.81656" pt_clust_5="43.81656" pt_clust_6="91.06158"></scales>
<clustering>
<clus scale="   43.817">  4  5 -1 -1</clus>
<clus scale="   91.062">  1  6  2 -1</clus>
<clus scale="  108.207">  2  3  1 -1</clus>
<clus scale="  108.207">  2  3  1 -1</clus>
</clustering>
</event>
<event>
 6    0  0.4945982E+002  0.1359830E+03  0.7546771E-02  0.1218839E+00
          2   -1    0    0  505    0 -0.00000000000E+00  0.00000000000E+00  0.41519481441E+04  0.41519481441E+04  0.00000000000E+00 0. -1.
         21   -1    0    0  503  502  0.00000000000E+00 -0.00000000000E+00 -0.82436957052E+02  0.82436957052E+02  0.00000000000E+00 0. -1.
         21    1    1    2  503  504 -0.54118340548E+02  0.29849593342E+02 -0.38266287412E+02  0.72691827317E+02  0.00000000000E+00 0. -1.
         21    1    1    2  504  501 -0.30979107307E+02  0.84510918856E+02  0.98686194697E+02  0.13356932851E+03  0.00000000000E+00 0. -1.
         21    1    1    2  505  502 -0.56574624461E+02 -0.92778864474E+02  0.35583490402E+03  0.37205790510E+03  0.00000000000E+00 0.  1.
          2    1    1    2  501    0  0.14167207232E+03 -0.21581647724E+02  0.36532563757E+04  0.36560660402E+04  0.00000000000E+00 0. -1.
<scales pt_clust_3="61.80447" pt_clust_4="135.98300" pt_clust_5="111.04212" pt_clust_6="14000.00000"></scales>
<clustering>
<clus scale="   61.804">  2  3  1 -1</clus>
<clus scale="  111.042">  2  5  1 -1</clus>
<clus scale="  135.983">  2  4  1 -1</clus>
<clus scale="   61.804">  2  3  1 -1</clus>
</clustering>
</event>
<event>
 6    0  0.4945982E+002  0.7599786E+02  0.7546771E-02  0.1340809E+00
         -2   -1    0    0    0  501 -0.00000000000E+00  0.00000000000E+00  0.94525042157E+02  0.94525042157E+02  0.00000000000E+00 0.  1.
         21   -1    0    0  505  502  0.00000000000E+00 -0.00000000000E+00 -0.22005010327E+03  0.22005010327E+03  0.00000000000E+00 0.  1.
         21    1    1    2  503  502  0.66173113398E+02  0.87695071073E+01 -0.53518748921E+02  0.85557242112E+02  0.00000000000E+00 0.  1.
         21    1    1    2  504  501  0.21044076847E+02 -0.31122993527E+02 -0.15156125693E+02  0.40511751905E+02  0.00000000000E+00 0.  1.
         21    1    1    2  505  504 -0.80706341131E+02 -0.51059959522E+02 -0.63217776571E+02  0.11452999712E+03  0.00000000000E+00 0.  1.
         -2    1    1    2    0  503 -0.65108491143E+01  0.73413445942E+02  0.63675900666E+01  0.73976154297E+02  0.00000000000E+00 0.  1.
<scales pt_clust_3="14000.00000" pt_clust_4="37.56985" pt_clust_5="75.99786" pt_clust_6="58.26303"></scales>
<clustering>
<clus scale="   37.570">  1  4  2 -1</clus>
<clus scale="   58.263">  1  6  2 -1</clus>
<clus scale="   75.998">  1  5  2 -1</clus>
<clus scale="   75.998">  2  3  1 -1</clus>
</clustering>
</event>
<event>
 6    0  0.4945982E+002  0.8322080E+02  0.7546771E-02  0.1320152E+00
         21   -1    0    0  504  502  0.00000000000E+00  0.00000000000E+00  0.35309994174E+03  0.35309994174E+03  0.00000000000E+00 0.  1.
          2   -1    0    0  503    0 -0.00000000000E+00 -0.00000000000E+00 -0.12134603614E+04  0.12134603614E+04  0.00000000000E+00 0. -1.
         21    1    1    2  503  505  0.10381866337E+03 -0.66443127630E+02  0.35044885011E+02  0.12814502737E+03  0.00000000000E+00 0.  1.
         21    1    1    2  504  501 -0.17085687557E+02  0.31851925285E+02  0.61826851457E+01  0.36670034896E+02  0.00000000000E+00 0. -1.
         21    1    1    2  505  502 -0.36766334545E+02  0.25831942675E+02  0.24749607495E+03  0.25154196416E+03  0.00000000000E+00 0.  1.
          2    1    1    2  501    0 -0.49966641272E+02  0.87592596706E+01 -0.11490840648E+04  0.11502032767E+04  0.00000000000E+00 0. -1.
<scales pt_clust_3="14000.00000" pt_clust_4="36.14507" pt_clust_5="83.22080" pt_clust_6="50.76629"></scales>
<clustering>
<clus scale="   36.145">  1  4  2 -1</clus>
<clus scale="   50.766">  2  6  1 -1</clus>
<clus scale="   83.221">  1  5  2 -1</clus>
<clus scale="   36.145">  1  3  2 -1</clus>
</clustering>
</event>
<event>
 6    0  0.4945982E+002  0.1488636E+03  0.7546771E-02  0.1201876E+00
          2   -1    0    0  503    0 -0.00000000000E+00  0.00000000000E+00  0.29317283213E+04  0.29317283213E+04  0.00000000000E+00 0.  1.
         21   -1    0    0  505  502  0.00000000000E+00 -0.00000000000E+00 -0.10519188771E+03  0.10519188771E+03  0.00000000000E+00 0. -1.
         21    1    1    2  503  502  0.54723929251E+02 -0.65017553529E+02  0.11012851711E+03  0.13910528739E+03  0.00000000000E+00 0. -1.
         21    1    1    2  504  501 -0.20510112218E+03 -0.45735173471E+02  0.16633668277E+03  0.26800385901E+03  0.00000000000E+00 0. -1.
         21    1    1    2  505  504  0.33111820936E+02  0.21978234308E+02 -0.27319999539E+02  0.48226733705E+02  0.00000000000E+00 0. -1.
          2    1    1    2  501    0  0.11726537199E+03  0.88774492693E+02  0.25773912333E+04  0.25815843289E+04  0.00000000000E+00 0.  1.
<scales pt_clust_3="86.36877" pt_clust_4="148.86361" pt_clust_5="39.74211" pt_clust_6="14000.00000"></scales>
<clustering>
<clus scale="   39.742">  2  5  1 -1</clus>
<clus scale="   86.369">  2  3  1 -1</clus>
<clus scale="  148.864">  2  4  1 -1</clus>
<clus scale="   39.742">  2  3  1 -1</clus>
</clustering>
</event>
<event>
 6    0  0.4945982E+002  0.9779299E+02  0.7546771E-02  0.1285007E+00
         21   -1    0    0  504  502  0.00000000000E+00  0.00000000000E+00  0.19894057782E+03  0.19894057782E+03  0.00000000000E+00 0. -1.
          2   -1    0    0  505    0 -0.00000000000E+00 -0.00000000000E+00 -0.16456547165E+04  0.16456547165E+04  0.00000000000E+00 0. -1.
         21    1    1    2  503  501 -0.39176159099E+02  0.95377388474E+02  0.24012127888E+01  0.10313769193E+03  0.00000000000E+00 0.  1.
         21    1    1    2  504  503 -0.27661738555E+02 -0.35602857040E+02  0.12712759184E+03  0.13488572873E+03  0.00000000000E+00 0. -1.
         21    1    1    2  505  502  0.33669975708E+02  0.32060337234E+02 -0.26022447525E+02  0.53279454416E+02  0.00000000000E+00 0. -1.
          2    1    1    2  501    0  0.33167921947E+02 -0.91834868668E+02 -0.15502204957E+04  0.15532924192E+04  0.00000000000E+00 0. -1.
<scales pt_clust_3="97.79299" pt_clust_4="45.08586" pt_clust_5="37.57223" pt_clust_6="14000.00000"></scales>
<clustering>
<clus scale="   45.086">  1  4  2 -1</clus>
<clus scale="   37.572">  1  5  2 -1</clus>
<clus scale="   97.793">  1  3  2 -1</clus>
<clus scale="   45.086">  1  3  2 -1</clus>
</clustering>
</event>
<event>
 6    0  0.4945982E+002  0.1523135E+03  0.7546771E-02  0.1197659E+00
          1   -1    0    0  505    0 -0.00000000000E+00  0.00000000000E+00  0.44414823894E+03  0.44414823894E+03  0.00000000000E+00 0.  1.
         21   -1    0    0  504  502  0.00000000000E+00 -0.00000000000E+00 -0.22524518707E+03  0.22524518707E+03  0.00000000000E+00 0.  1.
         21    1    1    2  503  501 -0.19104548972E+03  0.80726847448E+02  0.25107535677E+03  0.32565938927E+03  0.00000000000E+00 0.  1.
         21    1    1    2  504  503  0.84358887124E+02 -0.20447916592E+02 -0.13991328067E+03  0.16465195182E+03  0.00000000000E+00 0.  1.
         21    1    1    2  505  502  0.63803138180E+02 -0.29286992389E+02  0.14217187479E+02  0.71628882335E+02  0.00000000000E+00 0.  1.
          1    1    1    2  501    0  0.42883464417E+02 -0.30991938467E+02  0.93523788290E+02  0.10745320259E+03  0.00000000000E+00 0.  1.
<scales pt_clust_3="152.31351" pt_clust_4="14000.00000" pt_clust_5="76.69713" pt_clust_6="52.91022"></scales>
<clustering>
<clus scale="   52.910">  1  6  2 -1</clus>
<clus scale="   76.697">  2  5  1 -1</clus>
<clus scale="  152.314">  1  3  2 -1</clus>
<clus scale="   76.697">  2  3  1 -1</clus>
</clustering>
</event>
<event>
 6    0  0.4945982E+002  0.7877442E+02  0.7546771E-02  0.1332566E+00
         -2   -1    0    0    0  501 -0.00000000000E+00  0.00000000000E+00  0.78873964396E+03  0.78873964396E+03  0.00000000000E+00 0. -1.
         21   -1    0    0  505  502  0.00000000000E+00 -0.00000000000E+00 -0.92675063973E+02  0.92675063973E+02  0.00000000000E+00 0. -1.
         21    1    1    2  503  502 -0.54490630304E+02  0.65435073138E+01 -0.20293131290E+02  0.58513737331E+02  0.00000000000E+00 0. -1.
         21    1    1    2  504  503 -0.24364525273E+02  0.85449702885E+02  0.64228682629E+02  0.10963852191E+03  0.00000000000E+00 0. -1.
         21    1    1    2  505  501  0.31460788138E+02 -0.74409717645E+02  0.25670541201E+02  0.84767705854E+02  0.00000000000E+00 0. -1.
         -2    1    1    2    0  504  0.47394367439E+02 -0.17583492554E+02  0.62645848745E+03  0.62849474284E+03  0.00000000000E+00 0. -1.
<scales pt_clust_3="49.07727" pt_clust_4="78.77442" pt_clust_5="14000.00000" pt_clust_6="50.55102"></scales>
<clustering>
<clus scale="   50.551">  1  6  2 -1</clus>
<clus scale="   49.077">  2  3  1 -1</clus>
<clus scale="   78.774">  1  4  2 -1</clus>
<clus scale="   49.077">  2  3  1 -1</clus>
</clustering>
</event>
<event>
 6    0  0.4945982E+002  0.1138774E+03  0.7546771E-02  0.1253553E+00
         21   -1    0    0  501  502  0.00000000000E+00  0.00000000000E+00  0.24082057303E+03  0.24082057303E+03  0.00000000000E+00 0.  1.
          2   -1    0    0  503    0 -0.00000000000E+00 -0.00000000000E+00 -0.46213255804E+04  0.46213255804E+04  0.00000000000E+00 0.  1.
         21    1    1    2  503  505  0.42610389249E+02 -0.51328055486E+02 -0.35639490507E+04  0.35645733335E+04  0.00000000000E+00 0.  1.
         21    1    1    2  504  502 -0.34411957247E+02  0.11218364710E+03  0.21480479037E+03  0.24476611580E+03  0.00000000000E+00 0.  1.
         21    1    1    2  505  504  0.21407749549E+02 -0.33715469432E+02 -0.10026293759E+04  0.10034244815E+04  0.00000000000E+00 0. -1.
          2    1    1    2  501    0 -0.29606181551E+02 -0.27140122179E+02 -0.28731371169E+02  0.49382222582E+02  0.00000000000E+00 0.  1.
<scales pt_clust_3="31.28437" pt_clust_4="106.45788" pt_clust_5="31.28437" pt_clust_6="40.16357"></scales>
<clustering>
<clus scale="   31.284">  3  5 -1 -1</clus>
<clus scale="   40.164">  1  6  2 -1</clus>
<clus scale="  106.458">  1  4  2 -1</clus>
<clus scale="   40.164">  1  3  2 -1</clus>
</clustering>
</event>
<event>
 6    0  0.4945982E+002  0.1101994E+03  0.7546771E-02  0.1260201E+00
         21   -1    0    0  501  502  0.00000000000E+00  0.00000000000E+00  0.12246496138E+03  0.12246496138E+03  0.00000000000E+00 0. -1.
          2   -1    0    0  504    0 -0.00000000000E+00 -0.00000000000E+00 -0.30290953491E+03  0.30290953491E+03  0.00000000000E+00 0.  1.
         21    1    1    2  503  502 -0.31481400733E+02  0.80073200914E+01  0.20249559834E+02  0.38278459225E+02  0.00000000000E+00 0.  1.
         21    1    1    2  504  505 -0.66401755271E+01  0.34061210246E+02 -0.23247960600E+02  0.41769913173E+02  0.00000000000E+00 0.  1.
         21    1    1    2  505  503  0.42560479863E+02 -0.12279912264E+03  0.20437014762E+02  0.13156249671E+03  0.00000000000E+00 0. -1.
          2    1    1    2  501    0 -0.44389036028E+01  0.80730592306E+02 -0.19788318753E+03  0.21376362718E+03  0.00000000000E+00 0.  1.
<scales pt_clust_3="32.48378" pt_clust_4="36.19974" pt_clust_5="110.19937" pt_clust_6="14000.00000"></scales>
<clustering>
<clus scale="   32.484">  1  3  2 -1</clus>
<clus scale="   36.200">  2  4  1 -1</clus>
<clus scale="  110.199">  1  5  2 -1</clus>
<clus scale="   32.484">  1  3  2 -1</clus>
</clustering>
</event>
<event>
 6    0  0.4945982E+002  0.8518319E+02  0.7546771E-02  0.1314954E+00
         21   -1    0    0  503  502  0.00000000000E+00  0.00000000000E+00  0.10117810467E+03  0.10117810467E+03  0.00000000000E+00 0.  1.
          1   -1    0    0  505    0 -0.00000000000E+00 -0.00000000000E+00 -0.96976083860E+03  0.96976083860E+03  0.00000000000E+00 0.  1.
         21    1    1    2  503  501 -0.23610974521E+02 -0.24304714435E+02  0.22039170597E+02  0.40421804786E+02  0.00000000000E+00 0.  1.
         21    1    1    2  504  502  0.52225016211E+02  0.10313938877E+03  0.14011774516E+02  0.11645392076E+03  0.00000000000E+00 0.  1.
         21    1    1    2  505  504 -0.36286245011E+02 -0.25752834553E+01 -0.11261420582E+03  0.11834391836E+03  0.00000000000E+00 0. -1.
          1    1    1    2  501    0  0.76722033210E+01 -0.76259390883E+02 -0.79201947323E+03  0.79571929936E+03  0.00000000000E+00 0.  1.
<scales pt_clust_3="33.88506" pt_clust_4="14000.00000" pt_clust_5="37.42402" pt_clust_6="85.18319"></scales>
<clustering>
<clus scale="   33.885">  1  3  2 -1</clus>
<clus scale="   37.424">  2  5  1 -1</clus>
<clus scale="   85.183">  2  6  1 -1</clus>
<clus scale="   33.885">  1  3  2 -1</clus>
</clustering>
</event>
<event>
 6    0  0.4945982E+002  0.2290507E+03  0.7546771E-02  0.1127310E+00
         -2   -1    0    0    0  501 -0.00000000000E+00  0.00000000000E+00  0.84359352097E+02  0.84359352097E+02  0.00000000000E+00 0. -1.
         21   -1    0    0  504  502  0.00000000000E+00 -0.00000000000E+00 -0.15880546240E+04  0.15880546240E+04  0.00000000000E+00 0.  1.
         21    1    1    2  503  502 -0.14469511412E+03 -0.13801594525E+03 -0.26916028166E+03  0.33530931156E+03  0.00000000000E+00 0. -1.
         21    1    1    2  504  505  0.71962438331E+02  0.10153986442E+03 -0.61901397362E+03  0.63140101056E+03  0.00000000000E+00 0.  1.
         21    1    1    2  505  501  0.92090499837E+02  0.63760733379E+02 -0.64886999650E+03  0.65846667618E+03  0.00000000000E+00 0.  1.
         -2    1    1    2    0  503 -0.19357824053E+02 -0.27284652551E+02  0.33348979856E+02  0.47236977828E+02  0.00000000000E+00 0. -1.
<scales pt_clust_3="224.66192" pt_clust_4="42.49306" pt_clust_5="42.49306" pt_clust_6="33.45411"></scales>
<clustering>
<clus scale="   33.454">  1  6  2 -1</clus>
<clus scale="   42.493">  4  5 -1 -1</clus>
<clus scale="  224.662">  1  3  2 -1</clus>
<clus scale="  229.051">  2  3  1 -1</clus>
</clustering>
</event>
<event>
 6    0  0.4945982E+002  0.3609761E+03  0.7546771E-02  0.1058198E+00
          2   -1    0    0  504    0 -0.00000000000E+00  0.00000000000E+00  0.17373168301E+04  0.17373168301E+04  0.00000000000E+00 0. -1.
         21   -1    0    0  505  502  0.00000000000E+00 -0.00000000000E+00 -0.19899342045E+03  0.19899342045E+03  0.00000000000E+00 0. -1.
         21    1    1    2  503  501 -0.22475771494E+03  0.61998505543E+02 -0.66952230059E+01  0.23324808922E+03  0.00000000000E+00 0. -1.
         21    1    1    2  504  502  0.81550943887E+01  0.37329312469E+02 -0.89322918508E+01  0.39239890056E+02  0.00000000000E+00 0. -1.
         21    1    1    2  505  503 -0.15309517584E+03  0.25569460581E+02  0.19103625599E+03  0.24614382235E+03  0.00000000000E+00 0. -1.
          2    1    1    2  501    0  0.36969779639E+03 -0.12489727859E+03  0.13629146685E+04  0.14176784489E+04  0.00000000000E+00 0. -1.
<scales pt_clust_3="14000.00000" pt_clust_4="38.20973" pt_clust_5="155.03396" pt_clust_6="360.97609"></scales>
<clustering>
<clus scale="   38.210">  2  4  1 -1</clus>
<clus scale="  155.034">  2  5  1 -1</clus>
<clus scale="  360.976">  1  6  2 -1</clus>
<clus scale="   38.210">  2  3  1 -1</clus>
</clustering>
</event>
<event>
 6    0  0.4945982E+002  0.9325910E+02  0.7546771E-02  0.1295146E+00
          1   -1    0    0  503    0 -0.00000000000E+00  0.00000000000E+00  0.82374102664E+03  0.82374102664E+03  0.00000000000E+00 0. -1.
         21   -1    0    0  504  502  0.00000000000E+00 -0.00000000000E+00 -0.24820666914E+02  0.24820666914E+02  0.00000000000E+00 0. -1.
         21    1    1    2  503  505 -0.60401026372E+02  0.34142691641E+02  0.16154112376E+03  0.17581109761E+03  0.00000000000E+00 0. -1.
         21    1    1    2  504  501  0.35305365557E+01 -0.61411606670E+02  0.91495924920E+02  0.11025132380E+03  0.00000000000E+00 0. -1.
         21    1    1    2  505  502 -0.45771811697E+01  0.55047658313E+02  0.13097469003E+03  0.14214627924E+03  0.00000000000E+00 0. -1.
          1    1    1    2  501    0  0.61447670986E+02 -0.27778743285E+02  0.41490862102E+03  0.42035299290E+03  0.00000000000E+00 0. -1.
<scales pt_clust_3="51.67639" pt_clust_4="61.51301" pt_clust_5="51.67639" pt_clust_6="73.09551"></scales>
<clustering>
<clus scale="   51.676">  3  5 -1 -1</clus>
<clus scale="   61.513">  2  4  1 -1</clus>
<clus scale="   73.096">  1  6  2 -1</clus>
<clus scale="   61.513">  2  3  1 -1</clus>
</clustering>
</event>
<event>
 6    0  0.4945982E+002  0.7110318E+02  0.7546771E-02  0.1356381E+00
          2   -1    0    0  503    0 -0.00000000000E+00  0.00000000000E+00  0.65556305265E+03  0.65556305265E+03  0.00000000000E+00 0. -1.
         21   -1    0    0  504  502  0.00000000000E+00 -0.00000000000E+00 -0.11304490886E+03  0.11304490886E+03  0.00000000000E+00 0. -1.
         21    1    1    2  503  505  0.18694445600E+02 -0.87062790979E+02  0.99860846331E+02  0.13379686282E+03  0.00000000000E+00 0. -1.
         21    1    1    2  504  501 -0.90355520930E+02 -0.21060418554E+02 -0.63490577896E+01  0.92994472561E+02  0.00000000000E+00 0. -1.
         21    1    1    2  505  502  0.37159209913E+02  0.45823372017E+02 -0.23844559206E+02  0.63632942004E+02  0.00000000000E+00 0. -1.
          2    1    1    2  501    0  0.34501865416E+02  0.62299837516E+02  0.47285091445E+03  0.47818368413E+03  0.00000000000E+00 0. -1.
<scales pt_clust_3="71.10318" pt_clust_4="64.80340" pt_clust_5="58.99651" pt_clust_6="14000.00000"></scales>
<clustering>
<clus scale="   58.997">  2  5  1 -1</clus>
<clus scale="   64.803">  2  4  1 -1</clus>
<clus scale="   71.103">  2  3  1 -1</clus>
<clus scale="   58.997">  2  3  1 -1</clus>
</clustering>
</event>
<event>
 6    0  0.4945982E+002  0.1316121E+03  0.7546771E-02  0.1225083E+00
         21   -1    0    0  503  502  0.00000000000E+00  0.00000000000E+00  0.48770030795E+02  0.48770030795E+02  0.00000000000E+00 0.  1.
          2   -1    0    0  504    0 -0.00000000000E+00 -0.00000000000E+00 -0.31120315353E+04  0.31120315353E+04  0.00000000000E+00 0. -1.
         21    1    1    2  503  501 -0.26876561543E+02  0.28458156596E+02 -0.17049964248E+01  0.39180648923E+02  0.00000000000E+00 0.  1.
         21    1    1    2  504  505 -0.48836734683E+02  0.59338170771E+02 -0.14096900383E+03  0.16055623690E+03  0.00000000000E+00 0.  1.
         21    1    1    2  505  502  0.16075200813E+02  0.40661621663E+02 -0.72909204012E+01  0.44327610783E+02  0.00000000000E+00 0.  1.
          2    1    1    2  501    0  0.59638095414E+02 -0.12845794903E+03 -0.29132965839E+04  0.29167370695E+04  0.00000000000E+00 0. -1.
<scales pt_clust_3="39.14353" pt_clust_4="131.61215" pt_clust_5="58.21151" pt_clust_6="14000.00000"></scales>
<clustering>
<clus scale="   39.144">  1  3  2 -1</clus>
<clus scale="   58.212">  1  5  2 -1</clus>
<clus scale="  131.612">  1  4  2 -1</clus>
<clus scale="   39.144">  1  3  2 -1</clus>
</clustering>
</event>
<event>
 6    0  0.4945982E+002  0.2366545E+03  0.7546771E-02  0.1122042E+00
          2   -1    0    0  504    0 -0.00000000000E+00  0.00000000000E+00  0.93981230046E+03  0.93981230046E+03  0.00000000000E+00 0.  1.
         21   -1    0    0  505  502  0.00000000000E+00 -0.00000000000E+00 -0.19638504869E+03  0.19638504869E+03  0.00000000000E+00 0.  1.
         21    1    1    2  503  501 -0.14133808116E+03 -0.10994107909E+02  0.24735320845E+02  0.14390677431E+03  0.00000000000E+00 0.  1.
         21    1    1    2  504  502  0.32725093877E+03  0.13010713330E+03  0.29026122921E+03  0.45636895627E+03  0.00000000000E+00 0.  1.
         21    1    1    2  505  503 -0.48830163015E+02 -0.30148891943E+02 -0.18302834831E+02  0.60235656120E+02  0.00000000000E+00 0. -1.
          2    1    1    2  501    0 -0.13708269459E+03 -0.88964133448E+02  0.44673353655E+03  0.47568596246E+03  0.00000000000E+00 0.  1.
<scales pt_clust_3="39.09699" pt_clust_4="228.53731" pt_clust_5="39.09699" pt_clust_6="163.42057"></scales>
<clustering>
<clus scale="   39.097">  3  5 -1 -1</clus>
<clus scale="  163.421">  1  6  2 -1</clus>
<clus scale="  228.537">  1  4  2 -1</clus>
<clus scale="  236.654">  2  3  1 -1</clus>
</clustering>
</event>
<event>
 6    0  0.4945982E+002  0.2574136E+03  0.7546771E-02  0.1108707E+00
          2   -1    0    0  505    0 -0.00000000000E+00  0.00000000000E+00  0.13095079634E+04  0.13095079634E+04  0.00000000000E+00 0. -1.
         21   -1    0    0  504  502  0.00000000000E+00 -0.00000000000E+00 -0.73039061266E+03  0.73039061266E+03  0.00000000000E+00 0. -1.
         21    1    1    2  503  502  0.13467289845E+02  0.45602694742E+02 -0.77441611690E+02  0.90874511744E+02  0.00000000000E+00 0.  1.
         21    1    1    2  504  501 -0.66519052783E+02  0.11551367751E+03 -0.53428172425E+03  0.55065883716E+03  0.00000000000E+00 0. -1.
         21    1    1    2  505  503 -0.62519423821E+02  0.72318411948E+02 -0.65126234812E+02  0.11567219857E+03  0.00000000000E+00 0.  1.
          2    1    1    2  501    0  0.11557118676E+03 -0.23343478420E+03  0.12559669215E+04  0.12826930286E+04  0.00000000000E+00 0. -1.
<scales pt_clust_3="47.54970" pt_clust_4="14000.00000" pt_clust_5="99.34778" pt_clust_6="257.41361"></scales>
<clustering>
<clus scale="   47.550">  2  3  1 -1</clus>
<clus scale="   99.348">  2  5  1 -1</clus>
<clus scale="  257.414">  1  6  2 -1</clus>
<clus scale="   47.550">  2  3  1 -1</clus>
</clustering>
</event>
<event>
 6    0  0.4945982E+002  0.1573285E+03  0.7546771E-02  0.1191746E+00
         -2   -1    0    0    0  501 -0.00000000000E+00  0.00000000000E+00  0.14270715995E+03  0.14270715995E+03  0.00000000000E+00 0.  1.
         21   -1    0    0  504  502  0.00000000000E+00 -0.00000000000E+00 -0.77614617330E+03  0.77614617330E+03  0.00000000000E+00 0. -1.
         21    1    1    2  503  502  0.27261924579E+02  0.18806932813E+02 -0.61010167632E+02  0.69420125382E+02  0.00000000000E+00 0. -1.
         21    1    1    2  504  505  0.23649391968E+01  0.71609353567E+02 -0.35458121766E+03  0.36174760866E+03  0.00000000000E+00 0. -1.
         21    1    1    2  505  501 -0.61424814326E+02  0.47668971109E+02 -0.30937576188E+03  0.31899639600E+03  0.00000000000E+00 0. -1.
         -2    1    1    2    0  503  0.31797950550E+02 -0.13808525749E+03  0.91528133822E+02  0.16868920320E+03  0.00000000000E+00 0.  1.
<scales pt_clust_3="33.11968" pt_clust_4="66.23221" pt_clust_5="66.23221" pt_clust_6="141.04646"></scales>
<clustering>
<clus scale="   33.120">  2  3  1 -1</clus>
<clus scale="   66.232">  4  5 -1 -1</clus>
<clus scale="  141.046">  1  6  2 -1</clus>
<clus scale="   33.120">  2  3  1 -1</clus>
</clustering>
</event>
<event>
 6    0  0.4945982E+002  0.1117944E+03  0.7546771E-02  0.1257283E+00
          2   -1    0    0  505    0 -0.00000000000E+00  0.00000000000E+00  0.10005645124E+03  0.10005645124E+03  0.00000000000E+00 0.  1.
         21   -1    0    0  504  502  0.00000000000E+00 -0.00000000000E+00 -0.54519699863E+03  0.54519699863E+03  0.00000000000E+00 0. -1.
         21    1    1    2  503  502  0.69636101776E+02 -0.35110682729E+02 -0.17562448153E+03  0.19216114390E+03  0.00000000000E+00 0. -1.
         21    1    1    2  504  501 -0.72033079608E+02  0.47842806361E+02 -0.16793919196E+03  0.18889486725E+03  0.00000000000E+00 0.  1.
         21    1    1    2  505  503  0.96064288242E+02 -0.28054938842E+02 -0.13097828733E+03  0.16483549018E+03  0.00000000000E+00 0. -1.
          2    1    1    2  501    0 -0.93667310410E+02  0.15322815210E+02  0.29401413434E+02  0.99361948539E+02  0.00000000000E+00 0.  1.
<scales pt_clust_3="39.42717" pt_clust_4="86.47369" pt_clust_5="39.42717" pt_clust_6="102.48496"></scales>
<clustering>
<clus scale="   39.427">  3  5 -1 -1</clus>
<clus scale="   86.474">  2  4  1 -1</clus>
<clus scale="  102.485">  1  6  2 -1</clus>
<clus scale="   86.474">  2  3  1 -1</clus>
</clustering>
</event>
<event>
 6    0  0.4945982E+002  0.1157902E+03  0.7546771E-02  0.1250208E+00
         -1   -1    0    0    0  501 -0.00000000000E+00  0.00000000000E+00  0.41216375396E+03  0.41216375396E+03  0.00000000000E+00 0.  1.
         21   -1    0    0  503  502  0.00000000000E+00 -0.00000000000E+00 -0.31041465999E+03  0.31041465999E+03  0.00000000000E+00 0. -1.
         21    1    1    2  503  501 -0.45396600393E+02  0.99269972972E+02 -0.41993483307E+02  0.11695653681E+03  0.00000000000E+00 0. -1.
         21    1    1    2  504  502 -0.28031057231E+02 -0.16173614116E+02 -0.14666779820E+03  0.15019576888E+03  0.00000000000E+00 0.  1.
         21    1    1    2  505  504  0.10718235800E+03 -0.78133280304E+02 -0.27693103754E+02  0.13549824852E+03  0.00000000000E+00 0. -1.
         -1    1    1    2    0  505 -0.33754700374E+02 -0.49630785520E+01  0.31810347923E+03  0.31992785975E+03  0.00000000000E+00 0.  1.
<scales pt_clust_3="14000.00000" pt_clust_4="32.36242" pt_clust_5="115.79019" pt_clust_6="34.28711"></scales>
<clustering>
<clus scale="   32.362">  2  4  1 -1</clus>
<clus scale="   34.287">  1  6  2 -1</clus>
<clus scale="  115.790">  1  5  2 -1</clus>
<clus scale="   32.362">  2  3  1 -1</clus>
</clustering>
</event>
<event>
 6    0  0.4945982E+002  0.8652601E+02  0.7546771E-02  0.1311489E+00
          2   -1    0    0  503    0 -0.00000000000E+00  0.00000000000E+00  0.10055322524E+04  0.10055322524E+04  0.00000000000E+00 0. -1.
         21   -1    0    0  505  502  0.00000000000E+00 -0.00000000000E+00 -0.35389750134E+02  0.35389750134E+02  0.00000000000E+00 0.  1.
         21    1    1    2  503  504  0.42935609856E+02 -0.78272489944E+02  0.18192087537E+03  0.20264563694E+03  0.00000000000E+00 0.  1.
         21    1    1    2  504  502  0.94303912313E+01 -0.36157197652E+02  0.31830665198E+01  0.37502095052E+02  0.00000000000E+00 0. -1.
         21    1    1    2  505  501  0.32498167988E+01  0.48612742030E+02  0.11063074574E+03  0.12088391911E+03  0.00000000000E+00 0. -1.
          2    1    1    2  501    0 -0.55615817886E+02  0.65816945566E+02  0.67440781462E+03  0.67989035142E+03  0.00000000000E+00 0. -1.
<scales pt_clust_3="86.52601" pt_clust_4="37.36677" pt_clust_5="38.89521" pt_clust_6="14000.00000"></scales>
<clustering>
<clus scale="   37.367">  2  4  1 -1</clus>
<clus scale="   38.895">  2  5  1 -1</clus>
<clus scale="   86.526">  2  3  1 -1</clus>
<clus scale="   37.367">  2  3  1 -1</clus>
</clustering>
</event>
<event>
 6    0  0.4945982E+002  0.8575407E+02  0.7546771E-02  0.1313472E+00
         21   -1    0    0  501  502  0.00000000000E+00  0.00000000000E+00  0.17788181776E+03  0.17788181776E+03  0.00000000000E+00 0.  1.
          2   -1    0    0  505    0 -0.00000000000E+00 -0.00000000000E+00 -0.42738838609E+04  0.42738838609E+04  0.00000000000E+00 0.  1.
         21    1    1    2  503  504 -0.45641719049E+02  0.55694504134E+02 -0.11231529143E+04  0.11254588012E+04  0.00000000000E+00 0.  1.
         21    1    1    2  504  502 -0.78305160058E+02 -0.34925779345E+02  0.16231022305E+03  0.18356502025E+03  0.00000000000E+00 0.  1.
         21    1    1    2  505  503  0.34741189997E-01  0.38056072519E+02 -0.16160068357E+03  0.16602122392E+03  0.00000000000E+00 0. -1.
          2    1    1    2  501    0  0.12391213792E+03 -0.58824797308E+02 -0.29735586683E+04  0.29767206333E+04  0.00000000000E+00 0.  1.
<scales pt_clust_3="80.32515" pt_clust_4="85.75407" pt_clust_5="38.05609" pt_clust_6="14000.00000"></scales>
<clustering>
<clus scale="   38.056">  2  5  1 -1</clus>
<clus scale="   80.325">  2  3  1 -1</clus>
<clus scale="   85.754">  1  4  2 -1</clus>
<clus scale="   85.754">  1  3  2 -1</clus>
</clustering>
</event>
<event>
 6    0  0.4945982E+002  0.4529781E+03  0.7546771E-02  0.1026838E+00
         21   -1    0    0  501  502  0.00000000000E+00  0.00000000000E+00  0.34234637124E+03  0.34234637124E+03  0.00000000000E+00 0.  1.
          1   -1    0    0  504    0 -0.00000000000E+00 -0.00000000000E+00 -0.29422363545E+04  0.29422363545E+04  0.00000000000E+00 0. -1.
         21    1    1    2  503  505  0.19656793913E+03  0.13251785579E+03  0.93686703582E+02  0.25490613023E+03  0.00000000000E+00 0. -1.
         21    1    1    2  504  503  0.55436680865E+02  0.30489802173E+02 -0.37856844824E+02  0.73729195859E+02  0.00000000000E+00 0. -1.
         21    1    1    2  505  502  0.10321651736E+03 -0.71488963295E+01  0.11702259964E+03  0.15620193662E+03  0.00000000000E+00 0.  1.
          1    1    1    2  501    0 -0.35522113736E+03 -0.15585876164E+03 -0.27727424417E+04  0.27997454631E+04  0.00000000000E+00 0. -1.
<scales pt_clust_3="101.57056" pt_clust_4="62.86123" pt_clust_5="101.57056" pt_clust_6="387.90980"></scales>
<clustering>
<clus scale="   62.861">  3  4 -1 -1</clus>
<clus scale="  101.571">  3  5 -1 -1</clus>
<clus scale="  387.910">  2  6  1 -1</clus>
<clus scale="  452.978">  1  3  2 -1</clus>
</clustering>
</event>
<event>
 6    0  0.4945982E+002  0.3181822E+03  0.7546771E-02  0.1076489E+00
         21   -1    0    0  505  502  0.00000000000E+00  0.00000000000E+00  0.54624351356E+03  0.54624351356E+03  0.00000000000E+00 0. -1.
         -2   -1    0    0    0  501 -0.00000000000E+00 -0.00000000000E+00 -0.26060066446E+03  0.26060066446E+03  0.00000000000E+00 0.  1.
         21    1    1    2  503  501  0.10523476448E+03 -0.31385425183E+02  0.44816374941E+02  0.11860821233E+03  0.00000000000E+00 0. -1.
         21    1    1    2  504  502 -0.41868717338E+02 -0.30669598909E+02  0.11636275791E+03  0.12741234326E+03  0.00000000000E+00 0.  1.
         21    1    1    2  505  503  0.22740123599E+03  0.61878316770E+02  0.13168786467E+03  0.26996655704E+03  0.00000000000E+00 0. -1.
         -2    1    1    2    0  504 -0.29076728314E+03  0.17670732261E+00 -0.72241484145E+01  0.29085706539E+03  0.00000000000E+00 0.  1.
<scales pt_clust_3="63.54348" pt_clust_4="51.90004" pt_clust_5="63.54348" pt_clust_6="304.92590"></scales>
<clustering>
<clus scale="   51.900">  1  4  2 -1</clus>
<clus scale="   63.543">  3  5 -1 -1</clus>
<clus scale="  304.926">  2  6  1 -1</clus>
<clus scale="   51.900">  1  3  2 -1</clus>
</clustering>
</event>
<event>
 6    0  0.4945982E+002  0.1357102E+03  0.7546771E-02  0.1219221E+00
         21   -1    0    0  504  502  0.00000000000E+00  0.00000000000E+00  0.12508191396E+03  0.12508191396E+03  0.00000000000E+00 0. -1.
          2   -1    0    0  502    0 -0.00000000000E+00 -0.00000000000E+00 -0.21880514409E+04  0.21880514409E+04  0.00000000000E+00 0. -1.
         21    1    1    2  503  505 -0.58324191198E+02 -0.16283237100E+02  0.14830256158E+01  0.60572720381E+02  0.00000000000E+00 0. -1.
         21    1    1    2  504  503 -0.70357726508E+02 -0.77834582577E+01  0.72734305586E+02  0.10149419250E+03  0.00000000000E+00 0. -1.
         21    1    1    2  505  501  0.75556287659E+02  0.53100384211E+01 -0.21319696860E+03  0.22625184316E+03  0.00000000000E+00 0. -1.
          2    1    1    2  501    0  0.53125630047E+02  0.18756656936E+02 -0.19239898896E+04  0.19248145989E+04  0.00000000000E+00 0. -1.
<scales pt_clust_3="55.64228" pt_clust_4="55.64228" pt_clust_5="121.64716" pt_clust_6="56.33955"></scales>
<clustering>
<clus scale="   55.642">  3  4 -1 -1</clus>
<clus scale="   56.340">  2  6  1 -1</clus>
<clus scale="  121.647">  2  5  1 -1</clus>
<clus scale="  135.710">  1  3  2 -1</clus>
</clustering>
</event>
<event>
 6    0  0.4945982E+002  0.2122515E+03  0.7546771E-02  0.1139795E+00
          2   -1    0    0  504    0 -0.00000000000E+00  0.00000000000E+00  0.19605190815E+04  0.19605190815E+04  0.00000000000E+00 0.  1.
         21   -1    0    0  505  502  0.00000000000E+00 -0.00000000000E+00 -0.94784016952E+02  0.94784016952E+02  0.00000000000E+00 0.  1.
         21    1    1    2  503  501  0.78789887831E+02  0.27164822134E+02  0.14298153667E+03  0.16549771544E+03  0.00000000000E+00 0.  1.
         21    1    1    2  504  502 -0.39992987904E+02  0.17538007605E+03  0.78826695568E+02  0.19639566719E+03  0.00000000000E+00 0.  1.
         21    1    1    2  505  503  0.50915759506E+02 -0.10972231507E+01  0.20217284303E+02  0.54793768344E+02  0.00000000000E+00 0.  1.
          2    1    1    2  501    0 -0.89712659434E+02 -0.20144767504E+03  0.16237095480E+04  0.16386159475E+04  0.00000000000E+00 0.  1.
<scales pt_clust_3="90.31846" pt_clust_4="14000.00000" pt_clust_5="50.92758" pt_clust_6="212.25152"></scales>
<clustering>
<clus scale="   50.928">  2  5  1 -1</clus>
<clus scale="   90.318">  2  3  1 -1</clus>
<clus scale="  212.252">  1  6  2 -1</clus>
<clus scale="   50.928">  2  3  1 -1</clus>
</clustering>
</event>
<event>
 6    0  0.4945982E+002  0.1162385E+03  0.7546771E-02  0.1249435E+00
          2   -1    0    0  504    0 -0.00000000000E+00  0.00000000000E+00  0.56316724178E+03  0.56316724178E+03  0.00000000000E+00 0. -1.
         21   -1    0    0  503  502  0.00000000000E+00 -0.00000000000E+00 -0.37046281174E+03  0.37046281174E+03  0.00000000000E+00 0. -1.
         21    1    1    2  503  505 -0.22326577780E+02  0.22085777615E+02  0.39980472461E+01  0.31658206361E+02  0.00000000000E+00 0. -1.
         21    1    1    2  504  502  0.23258204828E+02  0.24891729358E+02 -0.20716016154E+03  0.20994255121E+03  0.00000000000E+00 0. -1.
         21    1    1    2  505  501 -0.77001756188E+02  0.42952589383E+02 -0.12780818857E+03  0.15527114496E+03  0.00000000000E+00 0. -1.
          2    1    1    2  501    0  0.76070129139E+02 -0.89930096356E+02  0.52367473290E+03  0.53675815099E+03  0.00000000000E+00 0. -1.
<scales pt_clust_3="31.40474" pt_clust_4="39.15934" pt_clust_5="14000.00000" pt_clust_6="116.23852"></scales>
<clustering>
<clus scale="   31.405">  2  3  1 -1</clus>
<clus scale="   39.159">  2  4  1 -1</clus>
<clus scale="  116.239">  1  6  2 -1</clus>
<clus scale="   31.405">  2  3  1 -1</clus>
</clustering>
</event>
<event>
 6    0  0.4945982E+002  0.1763691E+03  0.7546771E-02  0.1171364E+00
         -2   -1    0    0    0  501 -0.00000000000E+00  0.00000000000E+00  0.32213901394E+03  0.32213901394E+03  0.00000000000E+00 0.  1.
         21   -1    0    0  505  502  0.00000000000E+00 -0.00000000000E+00 -0.25371484046E+03  0.25371484046E+03  0.00000000000E+00 0. -1.
         21    1    1    2  503  502 -0.13027480391E+02 -0.62927012238E+02 -0.73759666631E+01  0.64683297680E+02  0.00000000000E+00 0. -1.
         21    1    1    2  504  501  0.36855621122E+02  0.14604502242E+03 -0.63500263036E+02  0.16346182670E+03  0.00000000000E+00 0. -1.
         21    1    1    2  505  504 -0.11332046434E+02  0.76978191973E+02 -0.55262407569E+02  0.95435795204E+02  0.00000000000E+00 0. -1.
         -2    1    1    2    0  503 -0.12496094297E+02 -0.16009620216E+03  0.19456281075E+03  0.25227293482E+03  0.00000000000E+00 0.  1.
<scales pt_clust_3="64.26137" pt_clust_4="36.16998" pt_clust_5="36.16998" pt_clust_6="169.03686"></scales>
<clustering>
<clus scale="   36.170">  4  5 -1 -1</clus>
<clus scale="   64.261">  2  3  1 -1</clus>
<clus scale="  169.037">  1  6  2 -1</clus>
<clus scale="   64.261">  2  3  1 -1</clus>
</clustering>
</event>
<event>
 6    0  0.4945982E+002  0.1080704E+03  0.7546771E-02  0.1264185E+00
         21   -1    0    0  503  502  0.00000000000E+00  0.00000000000E+00  0.22651365805E+03  0.22651365805E+03  0.00000000000E+00 0. -1.
          2   -1    0    0  505    0 -0.00000000000E+00 -0.00000000000E+00 -0.17093458939E+04  0.17093458939E+04  0.00000000000E+00 0. -1.
         21    1    1    2  503  501  0.14757090738E+03  0.29549427857E+02  0.50960372951E+02  0.15889399297E+03  0.00000000000E+00 0. -1.
         21    1    1    2  504  502 -0.25220339456E+01 -0.38672455739E+02  0.10277222805E+03  0.10983647093E+03  0.00000000000E+00 0. -1.
         21    1    1    2  505  504 -0.40585039659E+02 -0.16601633156E+02 -0.22136625778E+02  0.49120157455E+02  0.00000000000E+00 0. -1.
          2    1    1    2  501    0 -0.10446383377E+03  0.25724661038E+02 -0.16144282111E+04  0.16180089306E+04  0.00000000000E+00 0. -1.
<scales pt_clust_3="14000.00000" pt_clust_4="38.75461" pt_clust_5="45.92136" pt_clust_6="108.07043"></scales>
<clustering>
<clus scale="   38.755">  1  4  2 -1</clus>
<clus scale="   45.921">  1  5  2 -1</clus>
<clus scale="  108.070">  2  6  1 -1</clus>
<clus scale="   38.755">  1  3  2 -1</clus>
</clustering>
</event>
<event>
 6    0  0.4945982E+002  0.9791733E+02  0.7546771E-02  0.1284737E+00
         21   -1    0    0  505  502  0.00000000000E+00  0.00000000000E+00  0.23405713357E+03  0.23405713357E+03  0.00000000000E+00 0.  1.
          2   -1    0    0  504    0 -0.00000000000E+00 -0.00000000000E+00 -0.15458936008E+04  0.15458936008E+04  0.00000000000E+00 0.  1.
         21    1    1    2  503  501 -0.59025212646E+02  0.21223385702E+02 -0.38582024674E+03  0.39088575137E+03  0.00000000000E+00 0.  1.
         21    1    1    2  504  502 -0.68961863318E+01  0.35134750986E+02  0.12758047703E+03  0.13250957034E+03  0.00000000000E+00 0.  1.
         21    1    1    2  505  503  0.10450444593E+03 -0.57783128108E+02  0.65900511839E+02  0.13639261921E+03  0.00000000000E+00 0.  1.
          2    1    1    2  501    0 -0.38583046953E+02  0.14249914197E+01 -0.11194972093E+04  0.11201627934E+04  0.00000000000E+00 0.  1.
<scales pt_clust_3="97.91733" pt_clust_4="35.80514" pt_clust_5="14000.00000" pt_clust_6="38.63571"></scales>
<clustering>
<clus scale="   35.805">  1  4  2 -1</clus>
<clus scale="   38.636">  2  6  1 -1</clus>
<clus scale="   97.917">  2  3  1 -1</clus>
<clus scale="   35.805">  1  3  2 -1</clus>
</clustering>
</event>
<event>
 6    0  0.4945982E+002  0.8147277E+02  0.7546771E-02  0.1324923E+00
         21   -1    0    0  503  502  0.00000000000E+00  0.00000000000E+00  0.87661149735E+02  0.87661149735E+02  0.00000000000E+00 0. -1.
          2   -1    0    0  504    0 -0.00000000000E+00 -0.00000000000E+00 -0.20156842386E+04  0.20156842386E+04  0.00000000000E+00 0.  1.
         21    1    1    2  503  501 -0.46090816112E+02  0.13565271114E+02  0.46221081655E+02  0.66669095536E+02  0.00000000000E+00 0. -1.
         21    1    1    2  504  505 -0.66080097397E+02 -0.41518131698E+02 -0.47605454084E+02  0.91414516299E+02  0.00000000000E+00 0. -1.
         21    1    1    2  505  502  0.47794229498E+02 -0.22236760480E+02 -0.74163527882E+02  0.90988959538E+02  0.00000000000E+00 0. -1.
          2    1    1    2  501    0  0.64376684011E+02  0.50189621064E+02 -0.18524751885E+04  0.18542728170E+04  0.00000000000E+00 0.  1.
<scales pt_clust_3="48.04560" pt_clust_4="14000.00000" pt_clust_5="39.95602" pt_clust_6="81.47277"></scales>
<clustering>
<clus scale="   48.046">  1  3  2 -1</clus>
<clus scale="   39.956">  1  5  2 -1</clus>
<clus scale="   81.473">  2  6  1 -1</clus>
<clus scale="   48.046">  1  3  2 -1</clus>
</clustering>
</event>
<event>
 6    0  0.4945982E+002  0.1224971E+03  0.7546771E-02  0.1239034E+00
          1   -1    0    0  502    0 -0.00000000000E+00  0.00000000000E+00  0.18334052049E+04  0.18334052049E+04  0.00000000000E+00 0.  1.
         21   -1    0    0  503  502  0.00000000000E+00 -0.00000000000E+00 -0.92102340843E+02  0.92102340843E+02  0.00000000000E+00 0. -1.
         21    1    1    2  503  504 -0.29304430625E+02 -0.55669807700E+02 -0.41494886266E+02  0.75363802517E+02  0.00000000000E+00 0. -1.
         21    1    1    2  504  505  0.20963189439E+01 -0.31875893156E+02  0.22003331444E+02  0.38789350500E+02  0.00000000000E+00 0.  1.
         21    1    1    2  505  501  0.30309394618E+02 -0.32672841919E+02 -0.18571703680E+01  0.44605191211E+02  0.00000000000E+00 0.  1.
          1    1    1    2  501    0 -0.31012829369E+01  0.12021854277E+03  0.17626515892E+04  0.17667492015E+04  0.00000000000E+00 0.  1.
<scales pt_clust_3="62.91166" pt_clust_4="30.90052" pt_clust_5="30.90052" pt_clust_6="116.93341"></scales>
<clustering>
<clus scale="   30.901">  4  5 -1 -1</clus>
<clus scale="   62.912">  2  3  1 -1</clus>
<clus scale="  116.933">  1  6  2 -1</clus>
<clus scale="   62.912">  2  3  1 -1</clus>
</clustering>
</event>
<event>
 6    0  0.4945982E+002  0.1058257E+03  0.7546771E-02  0.1268501E+00
         21   -1    0    0  505  502  0.00000000000E+00  0.00000000000E+00  0.18149841227E+03  0.18149841227E+03  0.00000000000E+00 0.  1.
          2   -1    0    0  504    0 -0.00000000000E+00 -0.00000000000E+00 -0.62065490903E+03  0.62065490903E+03  0.00000000000E+00 0. -1.
         21    1    1    2  503  501  0.70674901806E+02 -0.22202318459E+02 -0.10123196955E+03  0.12544240251E+03  0.00000000000E+00 0.  1.
         21    1    1    2  504  502 -0.37932054526E+02 -0.38283279694E+02  0.53632822246E+02  0.76032426548E+02  0.00000000000E+00 0.  1.
         21    1    1    2  505  503 -0.68155438775E+02  0.10011972735E+03  0.67431706535E+02  0.13862235998E+03  0.00000000000E+00 0.  1.
          2    1    1    2  501    0  0.35412591495E+02 -0.39634129201E+02 -0.45898905600E+03  0.46205613226E+03  0.00000000000E+00 0. -1.
<scales pt_clust_3="14000.00000" pt_clust_4="54.24588" pt_clust_5="105.82573" pt_clust_6="53.14994"></scales>
<clustering>
<clus scale="   53.150">  2  6  1 -1</clus>
<clus scale="   54.246">  1  4  2 -1</clus>
<clus scale="  105.826">  1  5  2 -1</clus>
<clus scale="   54.246">  1  3  2 -1</clus>
</clustering>
</event>
<event>
 6    0  0.4945982E+002  0.1061044E+03  0.7546771E-02  0.1267959E+00
          2   -1    0    0  505    0 -0.00000000000E+00  0.00000000000E+00  0.56324620332E+03  0.56324620332E+03  0.00000000000E+00 0.  1.
         21   -1    0    0  503  502  0.00000000000E+00 -0.00000000000E+00 -0.10823623125E+03  0.10823623125E+03  0.00000000000E+00 0. -1.
         21    1    1    2  503  504 -0.27541198261E+02  0.49580840760E+02  0.15636880597E+03  0.16633694975E+03  0.00000000000E+00 0.  1.
         21    1    1    2  504  501 -0.31007247904E+02  0.57764617084E+02  0.89658633141E+02  0.11107146756E+03  0.00000000000E+00 0.  1.
         21    1    1    2  505  502  0.59482150034E+02 -0.76330861358E+02 -0.66135954354E+02  0.11721130930E+03  0.00000000000E+00 0. -1.
          2    1    1    2  501    0 -0.93370386986E+00 -0.31014596486E+02  0.27511848732E+03  0.27686270796E+03  0.00000000000E+00 0.  1.
<scales pt_clust_3="33.40245" pt_clust_4="33.40245" pt_clust_5="98.91001" pt_clust_6="31.02865"></scales>
<clustering>
<clus scale="   31.029">  1  6  2 -1</clus>
<clus scale="   33.402">  3  4 -1 -1</clus>
<clus scale="   98.910">  2  5  1 -1</clus>
<clus scale="   98.910">  2  3  1 -1</clus>
</clustering>
</event>
<event>
 6    0  0.4945982E+002  0.6861154E+02  0.7546771E-02  0.1364879E+00
         21   -1    0    0  505  502  0.00000000000E+00  0.00000000000E+00  0.12134466509E+03  0.12134466509E+03  0.00000000000E+00 0. -1.
          2   -1    0    0  504    0 -0.00000000000E+00 -0.00000000000E+00 -0.22332726149E+04  0.22332726149E+04  0.00000000000E+00 0.  1.
         21    1    1    2  503  501  0.26308763031E+02  0.71039281744E+02 -0.58426140172E+02  0.95667886035E+02  0.00000000000E+00 0. -1.
         21    1    1    2  504  502 -0.52303845570E+02 -0.84855151670E+02 -0.14896260139E+02  0.10078684236E+03  0.00000000000E+00 0.  1.
         21    1    1    2  505  503  0.42155311166E+02  0.42637579047E+02  0.44579643965E+02  0.74715313441E+02  0.00000000000E+00 0. -1.
          2    1    1    2  501    0 -0.16160228626E+02 -0.28821709121E+02 -0.20831851935E+04  0.20834472382E+04  0.00000000000E+00 0.  1.
<scales pt_clust_3="68.61154" pt_clust_4="14000.00000" pt_clust_5="56.76436" pt_clust_6="33.04306"></scales>
<clustering>
<clus scale="   33.043">  2  6  1 -1</clus>
<clus scale="   56.764">  1  5  2 -1</clus>
<clus scale="   68.612">  2  3  1 -1</clus>
<clus scale="   56.764">  1  3  2 -1</clus>
</clustering>
</event>
<event>
 6    0  0.4945982E+002  0.9976258E+02  0.7546771E-02  0.1280796E+00
          1   -1    0    0  504    0 -0.00000000000E+00  0.00000000000E+00  0.10868874734E+04  0.10868874734E+04  0.00000000000E+00 0.  1.
         21   -1    0    0  503  502  0.00000000000E+00 -0.00000000000E+00 -0.31369298224E+03  0.31369298224E+03  0.00000000000E+00 0. -1.
         21    1    1    2  503  505 -0.35019786023E+02  0.95661814634E+02 -0.27195716173E+03  0.29041051291E+03  0.00000000000E+00 0. -1.
         21    1    1    2  504  502 -0.76135311613E+02 -0.59862272748E+02  0.15940555145E+03  0.18652133177E+03  0.00000000000E+00 0.  1.
         21    1    1    2  505  501  0.75833095585E+02 -0.50117239899E+02  0.93201158752E+02  0.13018775716E+03  0.00000000000E+00 0.  1.
          1    1    1    2  501    0  0.35322002051E+02  0.14317698013E+02  0.79254494269E+03  0.79346085379E+03  0.00000000000E+00 0.  1.
<scales pt_clust_3="14000.00000" pt_clust_4="75.55728" pt_clust_5="99.76258" pt_clust_6="38.11352"></scales>
<clustering>
<clus scale="   38.114">  1  6  2 -1</clus>
<clus scale="   75.557">  1  4  2 -1</clus>
<clus scale="   99.763">  1  5  2 -1</clus>
<clus scale="   99.763">  2  3  1 -1</clus>
</clustering>
</event>
<event>
 6    0  0.4945982E+002  0.7965165E+02  0.7546771E-02  0.1330043E+00
         -1   -1    0    0    0  501 -0.00000000000E+00  0.00000000000E+00  0.34764719230E+02  0.34764719230E+02  0.00000000000E+00 0. -1.
         21   -1    0    0  504  502  0.00000000000E+00 -0.00000000000E+00 -0.19202020430E+04  0.19202020430E+04  0.00000000000E+00 0.  1.
         21    1    1    2  503  502  0.25914162055E+02 -0.19978299666E+02 -0.20650105453E+03  0.20907740618E+03  0.00000000000E+00 0. -1.
         21    1    1    2  504  501  0.41031400261E+02  0.86034205800E+02 -0.75833863945E+03  0.76430553607E+03  0.00000000000E+00 0.  1.
         21    1    1    2  505  503  0.80451757134E+01 -0.69735436741E+02 -0.90134407706E+03  0.90407350433E+03  0.00000000000E+00 0.  1.
         -1    1    1    2    0  505 -0.74990738029E+02  0.36795306082E+01 -0.19253552696E+02  0.77510315617E+02  0.00000000000E+00 0. -1.
<scales pt_clust_3="32.72119" pt_clust_4="14000.00000" pt_clust_5="79.65165" pt_clust_6="74.32388"></scales>
<clustering>
<clus scale="   32.721">  2  3  1 -1</clus>
<clus scale="   74.324">  1  6  2 -1</clus>
<clus scale="   79.652">  2  5  1 -1</clus>
<clus scale="   32.721">  2  3  1 -1</clus>
</clustering>
</event>
<event>
 6    0  0.4945982E+002  0.1075341E+03  0.7546771E-02  0.1265206E+00
          1   -1    0    0  505    0 -0.00000000000E+00  0.00000000000E+00  0.19671515432E+03  0.19671515432E+03  0.00000000000E+00 0.  1.
         21   -1    0    0  503  502  0.00000000000E+00 -0.00000000000E+00 -0.51205058277E+03  0.51205058277E+03  0.00000000000E+00 0.  1.
         21    1    1    2  503  501 -0.85997338712E+02  0.61840479703E+02 -0.42761555924E+03  0.44053927600E+03  0.00000000000E+00 0.  1.
         21    1    1    2  504  502  0.14267882985E+03 -0.20417901613E+02  0.27124386851E+02  0.14666244085E+03  0.00000000000E+00 0.  1.
         21    1    1    2  505  504 -0.14503484515E+02 -0.42137376874E+02  0.44500782220E+02  0.62978005773E+02  0.00000000000E+00 0.  1.
          1    1    1    2  501    0 -0.42178006622E+02  0.71479878408E+00  0.40654961717E+02  0.58586014476E+02  0.00000000000E+00 0.  1.
<scales pt_clust_3="107.53411" pt_clust_4="14000.00000" pt_clust_5="51.46252" pt_clust_6="42.18406"></scales>
<clustering>
<clus scale="   42.184">  1  6  2 -1</clus>
<clus scale="   51.463">  1  5  2 -1</clus>
<clus scale="  107.534">  2  3  1 -1</clus>
<clus scale="  107.534">  2  3  1 -1</clus>
</clustering>
</event>
<event>
 6    0  0.4945982E+002  0.1832902E+03  0.7546771E-02  0.1164656E+00
         21   -1    0    0  501  502  0.00000000000E+00  0.00000000000E+00  0.48028202915E+03  0.48028202915E+03  0.00000000000E+00 0. -1.
          1   -1    0    0  505    0 -0.00000000000E+00 -0.00000000000E+00 -0.85525416996E+03  0.85525416996E+03  0.00000000000E+00 0. -1.
         21    1    1    2  503  502  0.10112509904E+03  0.12698945341E+02  0.28833038675E+03  0.30581360465E+03  0.00000000000E+00 0. -1.
         21    1    1    2  504  503 -0.65532093298E+02 -0.15681827861E+02  0.42437084990E+02  0.79632161590E+02  0.00000000000E+00 0.  1.
         21    1    1    2  505  504 -0.17249582324E+03 -0.94459471553E+02  0.26836881834E+02  0.19848833474E+03  0.00000000000E+00 0. -1.
          1    1    1    2  501    0  0.13690281749E+03  0.97442354073E+02 -0.73257649438E+03  0.75160209814E+03  0.00000000000E+00 0. -1.
<scales pt_clust_3="101.91933" pt_clust_4="35.91022" pt_clust_5="35.91022" pt_clust_6="172.71819"></scales>
<clustering>
<clus scale="   35.910">  4  5 -1 -1</clus>
<clus scale="  101.919">  1  3  2 -1</clus>
<clus scale="  172.718">  2  6  1 -1</clus>
<clus scale="  101.919">  1  3  2 -1</clus>
</clustering>
</event>
<event>
 6    0  0.4945982E+002  0.2517644E+03  0.7546771E-02  0.1112195E+00
          2   -1    0    0  505    0 -0.00000000000E+00  0.00000000000E+00  0.75468927726E+03  0.75468927726E+03  0.00000000000E+00 0. -1.
         21   -1    0    0  503  502  0.00000000000E+00 -0.00000000000E+00 -0.10010499412E+03  0.10010499412E+03  0.00000000000E+00 0.  1.
         21    1    1    2  503  504 -0.13016560297E+03 -0.56518012037E+02  0.56504694137E+02  0.15274210402E+03  0.00000000000E+00 0.  1.
         21    1    1    2  504  501 -0.70120314207E+02 -0.51789203339E+02  0.15065526700E+03  0.17405743168E+03  0.00000000000E+00 0.  1.
         21    1    1    2  505  502  0.29012313802E+02 -0.42952945197E+02  0.83372792523E+02  0.98171749431E+02  0.00000000000E+00 0.  1.
          2    1    1    2  501    0  0.17127360337E+03  0.15126016057E+03  0.36405152948E+03  0.42982298625E+03  0.00000000000E+00 0. -1.
<scales pt_clust_3="87.09160" pt_clust_4="87.09160" pt_clust_5="51.83310" pt_clust_6="226.59989"></scales>
<clustering>
<clus scale="   51.833">  1  5  2 -1</clus>
<clus scale="   87.092">  3  4 -1 -1</clus>
<clus scale="  226.600">  1  6  2 -1</clus>
<clus scale="  251.764">  2  3  1 -1</clus>
</clustering>
</event>
<event>
 6    0  0.4945982E+002  0.1407492E+03  0.7546771E-02  0.1212324E+00
          2   -1    0    0  504    0 -0.00000000000E+00  0.00000000000E+00  0.25711906082E+03  0.25711906082E+03  0.00000000000E+00 0.  1.
         21   -1    0    0  505  502  0.00000000000E+00 -0.00000000000E+00 -0.37419469696E+03  0.37419469696E+03  0.00000000000E+00 0. -1.
         21    1    1    2  503  501 -0.12669769239E+03  0.75115944856E+02 -0.70749028075E+02  0.16340176070E+03  0.00000000000E+00 0. -1.
         21    1    1    2  504  502  0.11687443851E+03 -0.83409913043E+02 -0.88382313635E+02  0.16860688401E+03  0.00000000000E+00 0. -1.
         21    1    1    2  505  503 -0.99523397649E+01  0.38047350225E+02 -0.12366990415E+03  0.12977247443E+03  0.00000000000E+00 0. -1.
          2    1    1    2  501    0  0.19775593643E+02 -0.29753382038E+02  0.16572560972E+03  0.16953263864E+03  0.00000000000E+00 0.  1.
<scales pt_clust_3="140.74919" pt_clust_4="14000.00000" pt_clust_5="38.17742" pt_clust_6="35.72587"></scales>
<clustering>
<clus scale="   35.726">  1  6  2 -1</clus>
<clus scale="   38.177">  2  5  1 -1</clus>
<clus scale="  140.749">  1  3  2 -1</clus>
<clus scale="   38.177">  2  3  1 -1</clus>
</clustering>
</event>
<event>
 6    0  0.4945982E+002  0.7702801E+02  0.7546771E-02  0.1337704E+00
         21   -1    0    0  505  502  0.00000000000E+00  0.00000000000E+00  0.35329895297E+02  0.35329895297E+02  0.00000000000E+00 0. -1.
          2   -1    0    0  503    0 -0.00000000000E+00 -0.00000000000E+00 -0.27555317270E+04  0.27555317270E+04  0.00000000000E+00 0. -1.
         21    1    1    2  503  502  0.29281540124E+02  0.82838118728E+01 -0.48838689182E+03  0.48933402317E+03  0.00000000000E+00 0.  1.
         21    1    1    2  504  501  0.48369775560E+02 -0.75865723384E+02 -0.69792938757E+03  0.70370496176E+03  0.00000000000E+00 0.  1.
         21    1    1    2  505  504 -0.61364508567E+02 -0.34480718322E+01  0.74204382662E+00  0.61465785117E+02  0.00000000000E+00 0. -1.
          2    1    1    2  501    0 -0.16286807117E+02  0.71029983344E+02 -0.15346275961E+04  0.15363568522E+04  0.00000000000E+00 0. -1.
<scales pt_clust_3="30.43074" pt_clust_4="14000.00000" pt_clust_5="61.06354" pt_clust_6="77.02801"></scales>
<clustering>
<clus scale="   30.431">  2  3  1 -1</clus>
<clus scale="   61.064">  1  5  2 -1</clus>
<clus scale="   77.028">  2  6  1 -1</clus>
<clus scale="   61.064">  1  3  2 -1</clus>
</clustering>
</event>
<event>
 6    0  0.4945982E+002  0.8190295E+02  0.7546771E-02  0.1323736E+00
         21   -1    0    0  505  502  0.00000000000E+00  0.00000000000E+00  0.31885425421E+03  0.31885425421E+03  0.00000000000E+00 0.  1.
          1   -1    0    0  504    0 -0.00000000000E+00 -0.00000000000E+00 -0.91108583335E+03  0.91108583335E+03  0.00000000000E+00 0. -1.
         21    1    1    2  503  501  0.28648507677E+02  0.10632072050E+03  0.94226083577E+01  0.11051523943E+03  0.00000000000E+00 0.  1.
         21    1    1    2  504  502  0.39860712060E+02 -0.57051706362E+02  0.70734617608E+02  0.99232855914E+02  0.00000000000E+00 0.  1.
         21    1    1    2  505  503 -0.36753370485E+02 -0.30400495619E+02  0.17021880077E+03  0.17677511282E+03  0.00000000000E+00 0.  1.
          1    1    1    2  501    0 -0.31755849252E+02 -0.18868518514E+02 -0.84260760588E+03  0.84341687939E+03  0.00000000000E+00 0. -1.
<scales pt_clust_3="81.90295" pt_clust_4="14000.00000" pt_clust_5="49.45523" pt_clust_6="36.93853"></scales>
<clustering>
<clus scale="   36.939">  2  6  1 -1</clus>
<clus scale="   49.455">  1  5  2 -1</clus>
<clus scale="   81.903">  2  3  1 -1</clus>
<clus scale="   49.455">  1  3  2 -1</clus>
</clustering>
</event>
<event>
 6    0  0.4945982E+002  0.9965667E+02  0.7546771E-02  0.1281020E+00
         21   -1    0    0  503  502  0.00000000000E+00  0.00000000000E+00  0.62281569173E+02  0.62281569173E+02  0.00000000000E+00 0.  1.
          2   -1    0    0  504    0 -0.00000000000E+00 -0.00000000000E+00 -0.36070725900E+04  0.36070725900E+04  0.00000000000E+00 0.  1.
         21    1    1    2  503  505 -0.33858223681E+02 -0.12312339099E+02 -0.46776003439E+02  0.59042082472E+02  0.00000000000E+00 0. -1.
         21    1    1    2  504  502  0.13545968201E+03 -0.64917431538E+01 -0.56352966253E+02  0.14685749891E+03  0.00000000000E+00 0.  1.
         21    1    1    2  505  501 -0.48180437293E+02  0.89255712172E+02 -0.23976054898E+03  0.26033259024E+03  0.00000000000E+00 0.  1.
          2    1    1    2  501    0 -0.53421021040E+02 -0.70451629919E+02 -0.32019015022E+04  0.32031219876E+04  0.00000000000E+00 0.  1.
<scales pt_clust_3="36.02739" pt_clust_4="14000.00000" pt_clust_5="99.65667" pt_clust_6="88.74436"></scales>
<clustering>
<clus scale="   36.027">  1  3  2 -1</clus>
<clus scale="   88.744">  2  6  1 -1</clus>
<clus scale="   99.657">  2  5  1 -1</clus>
<clus scale="   36.027">  1  3  2 -1</clus>
</clustering>
</event>
<event>
 6    0  0.4945982E+002  0.8403875E+02  0.7546771E-02  0.1317966E+00
          2   -1    0    0  503    0 -0.00000000000E+00  0.00000000000E+00  0.62605400293E+03  0.62605400293E+03  0.00000000000E+00 0. -1.
         21   -1    0    0  505  502  0.00000000000E+00 -0.00000000000E+00 -0.22888220464E+03  0.22888220464E+03  0.00000000000E+00 0. -1.
         21    1    1    2  503  504 -0.26100154083E+00 -0.33376299249E+02  0.74629168566E+02  0.81753032202E+02  0.00000000000E+00 0. -1.
         21    1    1    2  504  502 -0.68112557858E+02 -0.28320089176E+02 -0.12861447302E+03  0.14826675507E+03  0.00000000000E+00 0. -1.
         21    1    1    2  505  501  0.33407360782E+02  0.10764554529E+03 -0.47946031475E+02  0.12248443619E+03  0.00000000000E+00 0. -1.
          2    1    1    2  501    0  0.34966198616E+02 -0.45949156867E+02  0.49910313422E+03  0.50243198410E+03  0.00000000000E+00 0. -1.
<scales pt_clust_3="33.37732" pt_clust_4="74.00169" pt_clust_5="84.03875" pt_clust_6="14000.00000"></scales>
<clustering>
<clus scale="   33.377">  1  3  2 -1</clus>
<clus scale="   74.002">  2  4  1 -1</clus>
<clus scale="   84.039">  2  5  1 -1</clus>
<clus scale="   74.002">  2  3  1 -1</clus>
</clustering>
</event>
<event>
 6    0  0.4945982E+002  0.1251741E+03  0.7546771E-02  0.1234797E+00
         21   -1    0    0  503  502  0.00000000000E+00  0.00000000000E+00  0.36919899665E+03  0.36919899665E+03  0.00000000000E+00 0.  1.
          2   -1    0    0  505    0 -0.00000000000E+00 -0.00000000000E+00 -0.64799848034E+03  0.64799848034E+03  0.00000000000E+00 0.  1.
         21    1    1    2  503  501 -0.16487586345E+02  0.63583088981E+02  0.50308876962E+02  0.82738339414E+02  0.00000000000E+00 0.  1.
         21    1    1    2  504  502 -0.17167415216E+02 -0.52592544456E+02  0.39382449967E+02  0.67909301594E+02  0.00000000000E+00 0. -1.
         21    1    1    2  505  504  0.20554217977E+02 -0.10767838121E+03  0.23283977668E+03  0.25735475761E+03  0.00000000000E+00 0.  1.
          2    1    1    2  501    0  0.13100783584E+02  0.96687836684E+02 -0.60133058730E+03  0.60919507838E+03  0.00000000000E+00 0.  1.
<scales pt_clust_3="65.68599" pt_clust_4="54.99792" pt_clust_5="54.99792" pt_clust_6="98.36169"></scales>
<clustering>
<clus scale="   54.998">  4  5 -1 -1</clus>
<clus scale="   65.686">  1  3  2 -1</clus>
<clus scale="   98.362">  2  6  1 -1</clus>
<clus scale="   65.686">  1  3  2 -1</clus>
</clustering>
</event>
<event>
 6    0  0.4945982E+002  0.8060450E+02  0.7546771E-02  0.1327345E+00
          2   -1    0    0  505    0 -0.00000000000E+00  0.00000000000E+00  0.14039629457E+04  0.14039629457E+04  0.00000000000E+00 0. -1.
         21   -1    0    0  501  502  0.00000000000E+00 -0.00000000000E+00 -0.62810175569E+03  0.62810175569E+03  0.00000000000E+00 0. -1.
         21    1    1    2  503  502 -0.42373720444E+02  0.49919320594E+02 -0.44349838410E+03  0.44830601987E+03  0.00000000000E+00 0. -1.
         21    1    1    2  504  503  0.11802903500E+03 -0.70211187805E+02 -0.13173775875E+03  0.19030318199E+03  0.00000000000E+00 0. -1.
         21    1    1    2  505  504 -0.68053244877E+02 -0.33466551910E+02  0.49138417258E+02  0.90365028001E+02  0.00000000000E+00 0.  1.
          2    1    1    2  501    0 -0.76020696827E+01  0.53758419120E+02  0.13019589156E+04  0.13030904715E+04  0.00000000000E+00 0. -1.
<scales pt_clust_3="66.57012" pt_clust_4="80.60450" pt_clust_5="14000.00000" pt_clust_6="54.29327"></scales>
<clustering>
<clus scale="   54.293">  1  6  2 -1</clus>
<clus scale="   66.570">  2  3  1 -1</clus>
<clus scale="   80.605">  2  4  1 -1</clus>
<clus scale="   66.570">  2  3  1 -1</clus>
</clustering>
</event>
<event>
 6    0  0.4945982E+002  0.1031271E+03  0.7546771E-02  0.1273854E+00
         21   -1    0    0  503  502  0.00000000000E+00  0.00000000000E+00  0.71428279684E+03  0.71428279684E+03  0.00000000000E+00 0.  1.
         -1   -1    0    0    0  501 -0.00000000000E+00 -0.00000000000E+00 -0.14002359973E+03  0.14002359973E+03  0.00000000000E+00 0.  1.
         21    1    1    2  503  501  0.48089397241E+02  0.78534509252E+02  0.38856172940E+03  0.39932502654E+03  0.00000000000E+00 0.  1.
         21    1    1    2  504  505  0.60597805094E+02  0.57579186220E+01  0.85126504331E+02  0.10465070162E+03  0.00000000000E+00 0.  1.
         21    1    1    2  505  502 -0.19861600816E+02 -0.29666089449E+02  0.20183877063E+03  0.20497182582E+03  0.00000000000E+00 0.  1.
         -1    1    1    2    0  504 -0.88825601519E+02 -0.54626338425E+02 -0.10126780725E+03  0.14535884259E+03  0.00000000000E+00 0.  1.
<scales pt_clust_3="103.12709" pt_clust_4="56.90932" pt_clust_5="35.70098" pt_clust_6="14000.00000"></scales>
<clustering>
<clus scale="   35.701">  1  5  2 -1</clus>
<clus scale="   56.909">  1  4  2 -1</clus>
<clus scale="  103.127">  1  3  2 -1</clus>
<clus scale="   35.701">  1  3  2 -1</clus>
</clustering>
</event>
<event>
 6    0  0.4945982E+002  0.3059431E+03  0.7546771E-02  0.1082307E+00
          1   -1    0    0  504    0 -0.00000000000E+00  0.00000000000E+00  0.15818175097E+04  0.15818175097E+04  0.00000000000E+00 0.  1.
         21   -1    0    0  505  502  0.00000000000E+00 -0.00000000000E+00 -0.15414310180E+03  0.15414310180E+03  0.00000000000E+00 0. -1.
         21    1    1    2  503  502  0.13849601656E+03  0.26665125905E+03  0.74786628287E+03  0.80597023370E+03  0.00000000000E+00 0.  1.
         21    1    1    2  504  503  0.40460635534E+02  0.63550734400E+01  0.14893389266E+03  0.15446279283E+03  0.00000000000E+00 0. -1.
         21    1    1    2  505  501 -0.18512467628E+03 -0.20976697244E+03  0.42435863267E+02  0.28297372843E+03  0.00000000000E+00 0. -1.
          1    1    1    2  501    0  0.61680241858E+01 -0.63239360048E+02  0.48843836909E+03  0.49255385652E+03  0.00000000000E+00 0.  1.
<scales pt_clust_3="39.80345" pt_clust_4="39.80345" pt_clust_5="286.31818" pt_clust_6="63.53945"></scales>
<clustering>
<clus scale="   39.803">  3  4 -1 -1</clus>
<clus scale="   63.539">  1  6  2 -1</clus>
<clus scale="  286.318">  2  5  1 -1</clus>
<clus scale="  286.318">  2  3  1 -1</clus>
</clustering>
</event>
<event>
 6    0  0.4945982E+002  0.1539281E+03  0.7546771E-02  0.1195728E+00
          2   -1    0    0  505    0 -0.00000000000E+00  0.00000000000E+00  0.57264209063E+03  0.57264209063E+03  0.00000000000E+00 0.  1.
         21   -1    0    0  504  502  0.00000000000E+00 -0.00000000000E+00 -0.83372423373E+03  0.83372423373E+03  0.00000000000E+00 0. -1.
         21    1    1    2  503  501  0.27520402957E+02  0.79489994127E+02 -0.20123558378E+03  0.21810958696E+03  0.00000000000E+00 0.  1.
         21    1    1    2  504  503  0.21413346752E+02  0.72542087118E+02 -0.54318207884E+03  0.54842288118E+03  0.00000000000E+00 0. -1.
         21    1    1    2  505  502 -0.54120961369E+02  0.58783959027E+01 -0.55840371001E+02  0.77985774545E+02  0.00000000000E+00 0.  1.
          2    1    1    2  501    0  0.51872116605E+01 -0.15791047715E+03  0.53917589053E+03  0.56184808168E+03  0.00000000000E+00 0.  1.
<scales pt_clust_3="153.92811" pt_clust_4="78.61063" pt_clust_5="54.43927" pt_clust_6="14000.00000"></scales>
<clustering>
<clus scale="   54.439">  2  5  1 -1</clus>
<clus scale="   78.611">  2  4  1 -1</clus>
<clus scale="  153.928">  2  3  1 -1</clus>
<clus scale="   54.439">  2  3  1 -1</clus>
</clustering>
</event>
<event>
 6    0  0.4945982E+002  0.1120070E+03  0.7546771E-02  0.1256898E+00
          2   -1    0    0  504    0 -0.00000000000E+00  0.00000000000E+00  0.17715029285E+04  0.17715029285E+04  0.00000000000E+00 0. -1.
         21   -1    0    0  505  502  0.00000000000E+00 -0.00000000000E+00 -0.45815536048E+03  0.45815536048E+03  0.00000000000E+00 0.  1.
         21    1    1    2  503  501  0.25015141817E+02  0.53921651190E+02 -0.55236247349E+02  0.81143975798E+02  0.00000000000E+00 0. -1.
         21    1    1    2  504  502 -0.70527043253E+02  0.97314954103E+02 -0.31469396830E+03  0.33686281749E+03  0.00000000000E+00 0.  1.
         21    1    1    2  505  503  0.24408874280E+01 -0.47871679776E+02 -0.53175609021E+02  0.71591207915E+02  0.00000000000E+00 0.  1.
          2    1    1    2  501    0  0.43071014008E+02 -0.10336492552E+03  0.17364533927E+04  0.17400602878E+04  0.00000000000E+00 0. -1.
<scales pt_clust_3="52.27854" pt_clust_4="14000.00000" pt_clust_5="47.93387" pt_clust_6="112.00705"></scales>
<clustering>
<clus scale="   47.934">  2  5  1 -1</clus>
<clus scale="   52.279">  2  3  1 -1</clus>
<clus scale="  112.007">  1  6  2 -1</clus>
<clus scale="   47.934">  2  3  1 -1</clus>
</clustering>
</event>
<event>
 6    0  0.4945982E+002  0.6113720E+02  0.7546771E-02  0.1393120E+00
         21   -1    0    0  504  502  0.00000000000E+00  0.00000000000E+00  0.86604755527E+02  0.86604755527E+02  0.00000000000E+00 0.  1.
          2   -1    0    0  505    0 -0.00000000000E+00 -0.00000000000E+00 -0.44791426401E+03  0.44791426401E+03  0.00000000000E+00 0.  1.
         21    1    1    2  503  501 -0.83584984477E+02  0.51650772158E+02 -0.26829677887E+02  0.10185324497E+03  0.00000000000E+00 0.  1.
         21    1    1    2  504  503  0.25544687236E+01 -0.42012938402E+02  0.22955401153E+02  0.47943328480E+02  0.00000000000E+00 0.  1.
         21    1    1    2  505  502  0.43760578869E+02  0.35626490043E+02 -0.63301913886E+02  0.84801930152E+02  0.00000000000E+00 0.  1.
          2    1    1    2  501    0  0.37269936884E+02 -0.45264323800E+02 -0.29413331786E+03  0.29992051594E+03  0.00000000000E+00 0.  1.
<scales pt_clust_3="61.13720" pt_clust_4="42.09053" pt_clust_5="51.77235" pt_clust_6="14000.00000"></scales>
<clustering>
<clus scale="   42.091">  1  4  2 -1</clus>
<clus scale="   51.772">  1  5  2 -1</clus>
<clus scale="   61.137">  1  3  2 -1</clus>
<clus scale="   42.091">  1  3  2 -1</clus>
</clustering>
</event>
<event>
 6    0  0.4945982E+002  0.1088366E+03  0.7546771E-02  0.1262740E+00
         -1   -1    0    0    0  501 -0.00000000000E+00  0.00000000000E+00  0.27143707914E+03  0.27143707914E+03  0.00000000000E+00 0.  1.
         21   -1    0    0  505  502  0.00000000000E+00 -0.00000000000E+00 -0.10919244167E+03  0.10919244167E+03  0.00000000000E+00 0.  1.
         21    1    1    2  503  504  0.69586224713E+02 -0.55706393319E+02  0.70329629825E+02  0.11354163006E+03  0.00000000000E+00 0.  1.
         21    1    1    2  504  502  0.32568511167E+02  0.10302160398E+02  0.21515899987E+02  0.40370488983E+02  0.00000000000E+00 0.  1.
         21    1    1    2  505  501 -0.35852659834E+02 -0.14757524654E+02 -0.58255255342E+02  0.69977657335E+02  0.00000000000E+00 0.  1.
         -1    1    1    2    0  503 -0.66302076046E+02  0.60161757575E+02  0.12865436300E+03  0.15673974442E+03  0.00000000000E+00 0.  1.
<scales pt_clust_3="32.49969" pt_clust_4="32.49969" pt_clust_5="38.77109" pt_clust_6="95.33733"></scales>
<clustering>
<clus scale="   32.500">  3  4 -1 -1</clus>
<clus scale="   38.771">  2  5  1 -1</clus>
<clus scale="   95.337">  1  6  2 -1</clus>
<clus scale="   38.771">  2  3  1 -1</clus>
</clustering>
</event>
<event>
 6    0  0.4945982E+002  0.1143415E+03  0.7546771E-02  0.1252735E+00
          1   -1    0    0  503    0 -0.00000000000E+00  0.00000000000E+00  0.11262734304E+04  0.11262734304E+04  0.00000000000E+00 0.  1.
         21   -1    0    0  505  502  0.00000000000E+00 -0.00000000000E+00 -0.13045422197E+03  0.13045422197E+03  0.00000000000E+00 0. -1.
         21    1    1    2  503  504 -0.36363249039E+02  0.20456394601E+02  0.62965300143E+02  0.75533959136E+02  0.00000000000E+00 0. -1.
         21    1    1    2  504  502 -0.95170118365E+02 -0.14043035800E+01  0.12886832453E+02  0.96048914356E+02  0.00000000000E+00 0. -1.
         21    1    1    2  505  501  0.12994434155E+03 -0.51504197391E+02 -0.22964978426E+02  0.14165311321E+03  0.00000000000E+00 0. -1.
          1    1    1    2  501    0  0.15890258580E+01  0.32452106370E+02  0.94293205430E+03  0.94349166570E+03  0.00000000000E+00 0.  1.
<scales pt_clust_3="48.48043" pt_clust_4="14000.00000" pt_clust_5="114.34155" pt_clust_6="32.49099"></scales>
<clustering>
<clus scale="   32.491">  1  6  2 -1</clus>
<clus scale="   48.480">  1  3  2 -1</clus>
<clus scale="  114.342">  1  5  2 -1</clus>
<clus scale="  114.342">  2  3  1 -1</clus>
</clustering>
</event>
<event>
 6    0  0.4945982E+002  0.7130992E+02  0.7546771E-02  0.1355694E+00
          2   -1    0    0  502    0 -0.00000000000E+00  0.00000000000E+00  0.38382051012E+03  0.38382051012E+03  0.00000000000E+00 0.  1.
         21   -1    0    0  505  502  0.00000000000E+00 -0.00000000000E+00 -0.12227511069E+03  0.12227511069E+03  0.00000000000E+00 0.  1.
         21    1    1    2  503  504 -0.53185263109E+02  0.15755923886E+01  0.43187172488E+02  0.68529457687E+02  0.00000000000E+00 0.  1.
         21    1    1    2  504  501  0.39803802855E+02 -0.10288502874E+03  0.85571058404E+02  0.13961403188E+03  0.00000000000E+00 0.  1.
         21    1    1    2  505  503 -0.10336660682E+02  0.37823273629E+02 -0.72140961468E+02  0.82108251130E+02  0.00000000000E+00 0.  1.
          2    1    1    2  501    0  0.23718120936E+02  0.63486162725E+02  0.20492813000E+03  0.21584388011E+03  0.00000000000E+00 0.  1.
<scales pt_clust_3="57.39568" pt_clust_4="14000.00000" pt_clust_5="39.21029" pt_clust_6="71.30992"></scales>
<clustering>
<clus scale="   39.210">  2  5  1 -1</clus>
<clus scale="   57.396">  2  3  1 -1</clus>
<clus scale="   71.310">  1  6  2 -1</clus>
<clus scale="   39.210">  2  3  1 -1</clus>
</clustering>
</event>
<event>
 6    0  0.4945982E+002  0.1746665E+03  0.7546771E-02  0.1173067E+00
         -1   -1    0    0    0  501 -0.00000000000E+00  0.00000000000E+00  0.14331865481E+03  0.14331865481E+03  0.00000000000E+00 0. -1.
         21   -1    0    0  503  502  0.00000000000E+00 -0.00000000000E+00 -0.25487722268E+03  0.25487722268E+03  0.00000000000E+00 0. -1.
         21    1    1    2  503  504 -0.73689680211E+02  0.90375369596E+02 -0.98473089717E+02  0.15262642562E+03  0.00000000000E+00 0. -1.
         21    1    1    2  504  501 -0.58051576592E+02  0.58993529562E+00 -0.49806790105E+02  0.76492155866E+02  0.00000000000E+00 0. -1.
         21    1    1    2  505  502  0.44009937318E+02 -0.47902016209E+02  0.11048145822E+01  0.65059191164E+02  0.00000000000E+00 0.  1.
         -1    1    1    2    0  505  0.87731319484E+02 -0.43063288683E+02  0.35616497372E+02  0.10401810485E+03  0.00000000000E+00 0. -1.
<scales pt_clust_3="49.27985" pt_clust_4="49.27985" pt_clust_5="32.71768" pt_clust_6="165.04144"></scales>
<clustering>
<clus scale="   32.718">  5  6 -1 -1</clus>
<clus scale="   49.280">  3  4 -1 -1</clus>
<clus scale="  165.041">  1  5  2 -1</clus>
<clus scale="  174.667">  2  3  1 -1</clus>
</clustering>
</event>
<event>
 6    0  0.4945982E+002  0.1788668E+03  0.7546771E-02  0.1168904E+00
         21   -1    0    0  501  502  0.00000000000E+00  0.00000000000E+00  0.11581503403E+03  0.11581503403E+03  0.00000000000E+00 0.  1.
          1   -1    0    0  504    0 -0.00000000000E+00 -0.00000000000E+00 -0.73476584438E+03  0.73476584438E+03  0.00000000000E+00 0.  1.
         21    1    1    2  503  505 -0.10120683254E+03  0.51343560384E+02 -0.31772982153E+03  0.33738883152E+03  0.00000000000E+00 0.  1.
         21    1    1    2  504  503 -0.37984638598E+02  0.55203841469E+02 -0.17748729830E+03  0.18971567658E+03  0.00000000000E+00 0.  1.
         21    1    1    2  505  502  0.19045480444E+03 -0.14575004761E+02 -0.59180764707E+02  0.19996956321E+03  0.00000000000E+00 0.  1.
          1    1    1    2  501    0 -0.51263333303E+02 -0.91972397092E+02 -0.64552925811E+02  0.12350680710E+03  0.00000000000E+00 0.  1.
<scales pt_clust_3="33.25181" pt_clust_4="33.25181" pt_clust_5="173.55343" pt_clust_6="105.29412"></scales>
<clustering>
<clus scale="   33.252">  3  4 -1 -1</clus>
<clus scale="  105.294">  1  6  2 -1</clus>
<clus scale="  173.553">  1  5  2 -1</clus>
<clus scale="  105.294">  1  3  2 -1</clus>
</clustering>
</event>
<event>
 6    0  0.4945982E+002  0.2062776E+03  0.7546771E-02  0.1144548E+00
          2   -1    0    0  505    0 -0.00000000000E+00  0.00000000000E+00  0.11920778408E+04  0.11920778408E+04  0.00000000000E+00 0.  1.
         21   -1    0    0  503  502  0.00000000000E+00 -0.00000000000E+00 -0.19474740923E+03  0.19474740923E+03  0.00000000000E+00 0.  1.
         21    1    1    2  503  501  0.27707397753E+02  0.63675280845E+02 -0.51018490773E+02  0.86169180579E+02  0.00000000000E+00 0.  1.
         21    1    1    2  504  502 -0.13071703646E+03 -0.88857115794E+02  0.40759582017E+02  0.16322951379E+03  0.00000000000E+00 0.  1.
         21    1    1    2  505  504 -0.75118969429E+02 -0.55526797043E+02 -0.16476476423E+02  0.94855463908E+02  0.00000000000E+00 0. -1.
          2    1    1    2  501    0  0.17812860813E+03  0.80708631992E+02  0.10240658167E+04  0.10425710917E+04  0.00000000000E+00 0.  1.
<scales pt_clust_3="69.44236" pt_clust_4="40.70129" pt_clust_5="40.70129" pt_clust_6="199.36764"></scales>
<clustering>
<clus scale="   40.701">  4  5 -1 -1</clus>
<clus scale="   69.442">  2  3  1 -1</clus>
<clus scale="  199.368">  1  6  2 -1</clus>
<clus scale="   69.442">  2  3  1 -1</clus>
</clustering>
</event>
<event>
 6    0  0.4945982E+002  0.2862954E+03  0.7546771E-02  0.1092299E+00
          2   -1    0    0  504    0 -0.00000000000E+00  0.00000000000E+00  0.94433636940E+03  0.94433636940E+03  0.00000000000E+00 0. -1.
         21   -1    0    0  501  502  0.00000000000E+00 -0.00000000000E+00 -0.17651857402E+03  0.17651857402E+03  0.00000000000E+00 0.  1.
         21    1    1    2  503  502  0.59703512962E+02  0.58129261713E+02  0.38758533159E+02  0.91900731335E+02  0.00000000000E+00 0. -1.
         21    1    1    2  504  505 -0.13950577528E+03 -0.33312422861E+02  0.20365864507E+02  0.14486665348E+03  0.00000000000E+00 0.  1.
         21    1    1    2  505  503 -0.17940517809E+03 -0.80591644703E+02  0.10104783670E+03  0.22111512030E+03  0.00000000000E+00 0.  1.
          2    1    1    2  501    0  0.25920744041E+03  0.55774805851E+02  0.60764556101E+03  0.66297243830E+03  0.00000000000E+00 0. -1.
<scales pt_clust_3="83.32779" pt_clust_4="57.43241" pt_clust_5="57.43241" pt_clust_6="278.28409"></scales>
<clustering>
<clus scale="   57.432">  4  5 -1 -1</clus>
<clus scale="   83.328">  2  3  1 -1</clus>
<clus scale="  278.284">  1  6  2 -1</clus>
<clus scale="   83.328">  2  3  1 -1</clus>
</clustering>
</event>
<event>
 6    0  0.4945982E+002  0.1711622E+03  0.7546771E-02  0.1176641E+00
          1   -1    0    0  505    0 -0.00000000000E+00  0.00000000000E+00  0.33898096399E+04  0.33898096399E+04  0.00000000000E+00 0.  1.
         21   -1    0    0  504  502  0.00000000000E+00 -0.00000000000E+00 -0.37880532189E+02  0.37880532189E+02  0.00000000000E+00 0. -1.
         21    1    1    2  503  502 -0.64947608405E+02 -0.38267017755E+01  0.33947776679E+02  0.73384514888E+02  0.00000000000E+00 0. -1.
         21    1    1    2  504  501  0.97515995443E+02  0.15395160757E+01  0.96112414451E+03  0.96605970863E+03  0.00000000000E+00 0.  1.
         21    1    1    2  505  503 -0.10656765646E+03 -0.17253299745E+02  0.17892989130E+03  0.20897427535E+03  0.00000000000E+00 0. -1.
          1    1    1    2  501    0  0.73999269424E+02  0.19540485445E+02  0.21779272952E+04  0.21792716733E+04  0.00000000000E+00 0.  1.
<scales pt_clust_3="52.35201" pt_clust_4="157.31745" pt_clust_5="52.35201" pt_clust_6="76.53576"></scales>
<clustering>
<clus scale="   52.352">  3  5 -1 -1</clus>
<clus scale="   76.536">  1  6  2 -1</clus>
<clus scale="  157.317">  1  4  2 -1</clus>
<clus scale="  171.162">  2  3  1 -1</clus>
</clustering>
</event>
<event>
 6    0  0.4945982E+002  0.1011056E+03  0.7546771E-02  0.1277988E+00
          2   -1    0    0  504    0 -0.00000000000E+00  0.00000000000E+00  0.23737606693E+04  0.23737606693E+04  0.00000000000E+00 0. -1.
         21   -1    0    0  503  502  0.00000000000E+00 -0.00000000000E+00 -0.25461114827E+03  0.25461114827E+03  0.00000000000E+00 0.  1.
         21    1    1    2  503  505  0.11764574261E+02 -0.97462734812E+02  0.13186062299E+03  0.16439164754E+03  0.00000000000E+00 0. -1.
         21    1    1    2  504  502  0.47434337850E+02  0.90954402615E+02 -0.21773681791E+03  0.24069075935E+03  0.00000000000E+00 0.  1.
         21    1    1    2  505  501 -0.47376382605E+02 -0.25355983800E+02  0.71241376777E+02  0.89234417734E+02  0.00000000000E+00 0. -1.
          2    1    1    2  501    0 -0.11822529506E+02  0.31864315996E+02  0.21337843392E+04  0.21340549930E+04  0.00000000000E+00 0. -1.
<scales pt_clust_3="14000.00000" pt_clust_4="101.10561" pt_clust_5="53.39381" pt_clust_6="33.98686"></scales>
<clustering>
<clus scale="   33.987">  1  6  2 -1</clus>
<clus scale="   53.394">  1  5  2 -1</clus>
<clus scale="  101.106">  2  4  1 -1</clus>
<clus scale="  101.106">  2  3  1 -1</clus>
</clustering>
</event>
<event>
 6    0  0.4945982E+002  0.1749065E+03  0.7546771E-02  0.1172826E+00
         21   -1    0    0  504  502  0.00000000000E+00  0.00000000000E+00  0.21189721797E+04  0.21189721797E+04  0.00000000000E+00 0. -1.
          1   -1    0    0  502    0 -0.00000000000E+00 -0.00000000000E+00 -0.16589266844E+03  0.16589266844E+03  0.00000000000E+00 0.  1.
         21    1    1    2  503  505  0.42986372401E+02 -0.42883719912E+01  0.59942838900E+03  0.60098303793E+03  0.00000000000E+00 0. -1.
         21    1    1    2  504  503  0.65809504656E+02 -0.11537675110E+03  0.14383190767E+04  0.14444391479E+04  0.00000000000E+00 0. -1.
         21    1    1    2  505  501 -0.95191869710E+02  0.84264202865E+02  0.19471832798E+02  0.12861220866E+03  0.00000000000E+00 0.  1.
          1    1    1    2  501    0 -0.13604007347E+02  0.35400920223E+02 -0.10413978724E+03  0.11083045364E+03  0.00000000000E+00 0.  1.
<scales pt_clust_3="41.24818" pt_clust_4="41.24818" pt_clust_5="159.40945" pt_clust_6="37.92485"></scales>
<clustering>
<clus scale="   37.925">  2  6  1 -1</clus>
<clus scale="   41.248">  3  4 -1 -1</clus>
<clus scale="  159.409">  2  5  1 -1</clus>
<clus scale="  174.906">  1  3  2 -1</clus>
</clustering>
</event>
<event>
 6    0  0.4945982E+002  0.1030346E+03  0.7546771E-02  0.1274041E+00
         21   -1    0    0  503  502  0.00000000000E+00  0.00000000000E+00  0.19121163186E+03  0.19121163186E+03  0.00000000000E+00 0.  1.
          2   -1    0    0  505    0 -0.00000000000E+00 -0.00000000000E+00 -0.13676644393E+04  0.13676644393E+04  0.00000000000E+00 0.  1.
         21    1    1    2  503  504  0.82475880695E+01 -0.32459148131E+02  0.12042318689E+03  0.12499345161E+03  0.00000000000E+00 0.  1.
         21    1    1    2  504  501  0.30901461612E+02  0.19383811386E+02 -0.33777516972E+01  0.36633887047E+02  0.00000000000E+00 0.  1.
         21    1    1    2  505  502 -0.13525740107E+03  0.45371983265E+02 -0.52350050760E+02  0.15196614500E+03  0.00000000000E+00 0.  1.
          2    1    1    2  501    0  0.96108351392E+02 -0.32296646519E+02 -0.12411481919E+04  0.12452825875E+04  0.00000000000E+00 0.  1.
<scales pt_clust_3="33.49058" pt_clust_4="34.85682" pt_clust_5="103.03456" pt_clust_6="14000.00000"></scales>
<clustering>
<clus scale="   33.491">  1  3  2 -1</clus>
<clus scale="   34.857">  1  4  2 -1</clus>
<clus scale="  103.035">  1  5  2 -1</clus>
<clus scale="   33.491">  1  3  2 -1</clus>
</clustering>
</event>
<event>
 6    0  0.4945982E+002  0.1601086E+03  0.7546771E-02  0.1188574E+00
         21   -1    0    0  503  502  0.00000000000E+00  0.00000000000E+00  0.56200380528E+03  0.56200380528E+03  0.00000000000E+00 0.  1.
          2   -1    0    0  504    0 -0.00000000000E+00 -0.00000000000E+00 -0.26335932890E+04  0.26335932890E+04  0.00000000000E+00 0. -1.
         21    1    1    2  503  505  0.65353934581E+02  0.62644158828E+02  0.53749615713E+03  0.54506655220E+03  0.00000000000E+00 0.  1.
         21    1    1    2  504  502 -0.13457984905E+03 -0.14287554751E+03 -0.18704480170E+04  0.18807181985E+04  0.00000000000E+00 0. -1.
         21    1    1    2  505  501  0.84980996832E+02  0.40334261080E+02 -0.13437009314E+03  0.16402421885E+03  0.00000000000E+00 0.  1.
          2    1    1    2  501    0 -0.15755082367E+02  0.39897127599E+02 -0.60426753070E+03  0.60578812474E+03  0.00000000000E+00 0. -1.
<scales pt_clust_3="90.55892" pt_clust_4="160.10857" pt_clust_5="14000.00000" pt_clust_6="42.89526"></scales>
<clustering>
<clus scale="   42.895">  2  6  1 -1</clus>
<clus scale="   90.559">  1  3  2 -1</clus>
<clus scale="  160.109">  2  4  1 -1</clus>
<clus scale="   90.559">  1  3  2 -1</clus>
</clustering>
</event>
<event>
 6    0  0.4945982E+002  0.1144484E+03  0.7546771E-02  0.1252547E+00
         21   -1    0    0  503  502  0.00000000000E+00  0.00000000000E+00  0.32367364675E+02  0.32367364675E+02  0.00000000000E+00 0. -1.
          2   -1    0    0  504    0 -0.00000000000E+00 -0.00000000000E+00 -0.29558987344E+04  0.29558987344E+04  0.00000000000E+00 0. -1.
         21    1    1    2  503  501  0.88402865769E+02 -0.39642500748E+02 -0.84441915239E+02  0.12851860407E+03  0.00000000000E+00 0. -1.
         21    1    1    2  504  505 -0.85720018438E+02 -0.50027003864E+01 -0.44668718072E+03  0.45486523937E+03  0.00000000000E+00 0.  1.
         21    1    1    2  505  502 -0.79925043693E+02  0.33181525378E+02 -0.33495311082E+03  0.34595174907E+03  0.00000000000E+00 0.  1.
          2    1    1    2  501    0  0.77242196363E+02  0.11463675756E+02 -0.20574491630E+04  0.20589305066E+04  0.00000000000E+00 0. -1.
<scales pt_clust_3="104.80679" pt_clust_4="45.79873" pt_clust_5="45.79873" pt_clust_6="78.08824"></scales>
<clustering>
<clus scale="   45.799">  4  5 -1 -1</clus>
<clus scale="   78.088">  2  6  1 -1</clus>
<clus scale="  104.807">  1  3  2 -1</clus>
<clus scale="  104.807">  1  3  2 -1</clus>
</clustering>
</event>
<event>
 6    0  0.4945982E+002  0.9911704E+02  0.7546771E-02  0.1282164E+00
          1   -1    0    0  503    0 -0.00000000000E+00  0.00000000000E+00  0.20440495657E+04  0.20440495657E+04  0.00000000000E+00 0.  1.
         21   -1    0    0  504  502  0.00000000000E+00 -0.00000000000E+00 -0.64298193647E+02  0.64298193647E+02  0.00000000000E+00 0. -1.
         21    1    1    2  503  505  0.14867624094E+03 -0.44814941150E+02  0.87389622918E+03  0.88758527644E+03  0.00000000000E+00 0. -1.
         21    1    1    2  504  501 -0.37657079550E+02  0.37597676583E+02  0.24518112168E+02  0.58589920200E+02  0.00000000000E+00 0. -1.
         21    1    1    2  505  502 -0.61522545554E+02 -0.28102161021E+02 -0.10670462283E+02  0.68473453475E+02  0.00000000000E+00 0. -1.
          1    1    1    2  501    0 -0.49496615840E+02  0.35319425588E+02  0.10920074930E+04  0.10936991093E+04  0.00000000000E+00 0.  1.
<scales pt_clust_3="99.11704" pt_clust_4="53.21316" pt_clust_5="14000.00000" pt_clust_6="61.74565"></scales>
<clustering>
<clus scale="   53.213">  2  4  1 -1</clus>
<clus scale="   61.746">  1  6  2 -1</clus>
<clus scale="   99.117">  1  3  2 -1</clus>
<clus scale="   53.213">  2  3  1 -1</clus>
</clustering>
</event>
<event>
 6    0  0.4945982E+002  0.1179886E+03  0.7546771E-02  0.1246453E+00
          3   -1    0    0  502    0 -0.00000000000E+00  0.00000000000E+00  0.16458063480E+04  0.16458063480E+04  0.00000000000E+00 0. -1.
         21   -1    0    0  505  502  0.00000000000E+00 -0.00000000000E+00 -0.39229817345E+02  0.39229817345E+02  0.00000000000E+00 0.  1.
         21    1    1    2  503  504  0.64872361447E+02 -0.63556357304E+02  0.17612632721E+03  0.19816235003E+03  0.00000000000E+00 0.  1.
         21    1    1    2  504  501 -0.20453129043E+02 -0.92040960192E+02  0.14437552931E+03  0.17243596581E+03  0.00000000000E+00 0.  1.
         21    1    1    2  505  503 -0.14164324574E+02  0.34235443343E+02  0.19814825687E+02  0.42015723111E+02  0.00000000000E+00 0.  1.
          3    1    1    2  501    0 -0.30254907831E+02  0.12136187415E+03  0.12662598485E+04  0.12724221264E+04  0.00000000000E+00 0. -1.
<scales pt_clust_3="77.67923" pt_clust_4="117.98863" pt_clust_5="37.04988" pt_clust_6="14000.00000"></scales>
<clustering>
<clus scale="   37.050">  2  5  1 -1</clus>
<clus scale="   77.679">  2  3  1 -1</clus>
<clus scale="  117.989">  2  4  1 -1</clus>
<clus scale="   37.050">  2  3  1 -1</clus>
</clustering>
</event>
<event>
 6    0  0.4945982E+002  0.1102260E+03  0.7546771E-02  0.1260152E+00
         -1   -1    0    0    0  501 -0.00000000000E+00  0.00000000000E+00  0.13248147952E+04  0.13248147952E+04  0.00000000000E+00 0.  1.
         21   -1    0    0  501  502  0.00000000000E+00 -0.00000000000E+00 -0.28030874677E+03  0.28030874677E+03  0.00000000000E+00 0.  1.
         21    1    1    2  503  505 -0.46840035258E+02 -0.72147575650E+02 -0.61180606376E+02  0.10555722700E+03  0.00000000000E+00 0.  1.
         21    1    1    2  504  503  0.51576583358E+02 -0.32821882557E+02 -0.17308808110E+03  0.18356716412E+03  0.00000000000E+00 0.  1.
         21    1    1    2  505  502  0.36168176054E+02  0.17309723163E+01  0.40372202774E+01  0.36433945323E+02  0.00000000000E+00 0.  1.
         -1    1    1    2    0  504 -0.40904724154E+02  0.10323848589E+03  0.12747375156E+04  0.12795652055E+04  0.00000000000E+00 0.  1.
<scales pt_clust_3="79.88450" pt_clust_4="110.22599" pt_clust_5="36.20957" pt_clust_6="14000.00000"></scales>
<clustering>
<clus scale="   36.210">  2  5  1 -1</clus>
<clus scale="   79.884">  2  3  1 -1</clus>
<clus scale="  110.226">  2  4  1 -1</clus>
<clus scale="   36.210">  2  3  1 -1</clus>
</clustering>
</event>
<event>
 6    0  0.4945982E+002  0.9539906E+02  0.7546771E-02  0.1290280E+00
         -3   -1    0    0    0  501 -0.00000000000E+00  0.00000000000E+00  0.14083131689E+04  0.14083131689E+04  0.00000000000E+00 0.  1.
         21   -1    0    0  503  502  0.00000000000E+00 -0.00000000000E+00 -0.10876363002E+03  0.10876363002E+03  0.00000000000E+00 0. -1.
         21    1    1    2  503  501 -0.99774524925E+02  0.18210887355E+02  0.14961338637E+03  0.18075053976E+03  0.00000000000E+00 0. -1.
         21    1    1    2  504  502  0.11345243220E+02  0.41052779666E+02 -0.84436401877E+02  0.94570350660E+02  0.00000000000E+00 0. -1.
         21    1    1    2  505  504  0.75681093280E+02 -0.74303413284E+01  0.53904529147E+03  0.54438282863E+03  0.00000000000E+00 0. -1.
         -3    1    1    2    0  505  0.12748188424E+02 -0.51833325693E+02  0.69532726288E+03  0.69737307983E+03  0.00000000000E+00 0.  1.
<scales pt_clust_3="95.39906" pt_clust_4="42.59161" pt_clust_5="14000.00000" pt_clust_6="51.41658"></scales>
<clustering>
<clus scale="   42.592">  2  4  1 -1</clus>
<clus scale="   51.417">  1  6  2 -1</clus>
<clus scale="   95.399">  2  3  1 -1</clus>
<clus scale="   42.592">  2  3  1 -1</clus>
</clustering>
</event>
<event>
 6    0  0.4945982E+002  0.8649494E+02  0.7546771E-02  0.1311569E+00
          2   -1    0    0  504    0 -0.00000000000E+00  0.00000000000E+00  0.84817744539E+02  0.84817744539E+02  0.00000000000E+00 0.  1.
         21   -1    0    0  505  502  0.00000000000E+00 -0.00000000000E+00 -0.83337027646E+03  0.83337027646E+03  0.00000000000E+00 0.  1.
         21    1    1    2  503  502  0.13570598868E+02  0.35848406386E+02 -0.11876238629E+03  0.12479492695E+03  0.00000000000E+00 0.  1.
         21    1    1    2  504  503 -0.72772787354E+02  0.74042747029E+02 -0.49906108281E+03  0.50974520237E+03  0.00000000000E+00 0.  1.
         21    1    1    2  505  501  0.19146648315E+02 -0.68036060032E+02 -0.18881477639E+03  0.20160981967E+03  0.00000000000E+00 0.  1.
          2    1    1    2  501    0  0.40055540171E+02 -0.41855093384E+02  0.58085713558E+02  0.82038072016E+02  0.00000000000E+00 0.  1.
<scales pt_clust_3="38.33105" pt_clust_4="86.49494" pt_clust_5="14000.00000" pt_clust_6="57.65850"></scales>
<clustering>
<clus scale="   38.331">  2  3  1 -1</clus>
<clus scale="   57.659">  1  6  2 -1</clus>
<clus scale="   86.495">  1  4  2 -1</clus>
<clus scale="   38.331">  2  3  1 -1</clus>
</clustering>
</event>
<event>
 6    0  0.4945982E+002  0.1352490E+03  0.7546771E-02  0.1219869E+00
          4   -1    0    0  504    0 -0.00000000000E+00  0.00000000000E+00  0.10680096952E+03  0.10680096952E+03  0.00000000000E+00 0.  1.
         21   -1    0    0  503  502  0.00000000000E+00 -0.00000000000E+00 -0.47016146696E+03  0.47016146696E+03  0.00000000000E+00 0.  1.
         21    1    1    2  503  501  0.10708595858E+03 -0.57880789458E+02 -0.68211223935E+02  0.13953622965E+03  0.00000000000E+00 0.  1.
         21    1    1    2  504  505 -0.11038998962E+03  0.66299699773E+02 -0.27384908403E+03  0.30261348420E+03  0.00000000000E+00 0.  1.
         21    1    1    2  505  502 -0.46349243186E+02 -0.17951441614E+02 -0.54937698725E+02  0.74085473213E+02  0.00000000000E+00 0.  1.
          4    1    1    2  501    0  0.49653274228E+02  0.95325312992E+01  0.33637509239E+02  0.60727249422E+02  0.00000000000E+00 0.  1.
<scales pt_clust_3="135.24897" pt_clust_4="14000.00000" pt_clust_5="49.70419" pt_clust_6="48.92805"></scales>
<clustering>
<clus scale="   49.704">  2  5  1 -1</clus>
<clus scale="   48.928">  1  6  2 -1</clus>
<clus scale="  135.249">  1  3  2 -1</clus>
<clus scale="   49.704">  2  3  1 -1</clus>
</clustering>
</event>
<event>
 6    0  0.4945982E+002  0.1120356E+03  0.7546771E-02  0.1256846E+00
         21   -1    0    0  503  502  0.00000000000E+00  0.00000000000E+00  0.96510935794E+02  0.96510935794E+02  0.00000000000E+00 0. -1.
          1   -1    0    0  504    0 -0.00000000000E+00 -0.00000000000E+00 -0.17703932537E+04  0.17703932537E+04  0.00000000000E+00 0.  1.
         21    1    1    2  503  505  0.18976512430E+02  0.56865316824E+02 -0.15695438893E+02  0.61968694383E+02  0.00000000000E+00 0. -1.
         21    1    1    2  504  502  0.36751782335E+02 -0.10336173333E+03  0.20906802269E+02  0.11167558284E+03  0.00000000000E+00 0. -1.
         21    1    1    2  505  501 -0.73611961015E+01  0.37243736560E+02 -0.46973299554E+02  0.60396804485E+02  0.00000000000E+00 0.  1.
          1    1    1    2  501    0 -0.48367098663E+02  0.92526799447E+01 -0.16321203818E+04  0.16328631078E+04  0.00000000000E+00 0.  1.
<scales pt_clust_3="36.07068" pt_clust_4="102.45716" pt_clust_5="36.07068" pt_clust_6="49.24417"></scales>
<clustering>
<clus scale="   36.071">  3  5 -1 -1</clus>
<clus scale="   49.244">  2  6  1 -1</clus>
<clus scale="  102.457">  1  4  2 -1</clus>
<clus scale="  102.457">  1  3  2 -1</clus>
</clustering>
</event>
<event>
 6    0  0.4945982E+002  0.1378234E+03  0.7546771E-02  0.1216288E+00
          1   -1    0    0  505    0 -0.00000000000E+00  0.00000000000E+00  0.14227422324E+04  0.14227422324E+04  0.00000000000E+00 0. -1.
         21   -1    0    0  504  502  0.00000000000E+00 -0.00000000000E+00 -0.10061716875E+03  0.10061716875E+03  0.00000000000E+00 0.  1.
         21    1    1    2  503  501  0.45142990134E+02 -0.19269732062E+02 -0.56513475625E+00  0.49086979020E+02  0.00000000000E+00 0.  1.
         21    1    1    2  504  503  0.79315080405E+02  0.33446067254E+02 -0.26874181075E+02  0.90176177580E+02  0.00000000000E+00 0. -1.
         21    1    1    2  505  502 -0.13552215959E+03  0.15525008271E+02  0.25601682042E+03  0.29008945855E+03  0.00000000000E+00 0.  1.
          1    1    1    2  501    0  0.11064089054E+02 -0.29701343464E+02  0.10935475591E+04  0.10940067860E+04  0.00000000000E+00 0. -1.
<scales pt_clust_3="41.71509" pt_clust_4="41.71509" pt_clust_5="126.66789" pt_clust_6="31.69517"></scales>
<clustering>
<clus scale="   31.695">  1  6  2 -1</clus>
<clus scale="   41.715">  3  4 -1 -1</clus>
<clus scale="  126.668">  1  5  2 -1</clus>
<clus scale="  137.823">  2  3  1 -1</clus>
</clustering>
</event>
<event>
 6    0  0.4945982E+002  0.1034324E+03  0.7546771E-02  0.1273239E+00
         21   -1    0    0  505  502  0.00000000000E+00  0.00000000000E+00  0.32235720694E+02  0.32235720694E+02  0.00000000000E+00 0.  1.
          1   -1    0    0  503    0 -0.00000000000E+00 -0.00000000000E+00 -0.30866406463E+04  0.30866406463E+04  0.00000000000E+00 0.  1.
         21    1    1    2  503  502  0.57096567328E+01  0.47071252536E+02 -0.19496640647E+02  0.51268138174E+02  0.00000000000E+00 0.  1.
         21    1    1    2  504  501  0.25512543423E+02 -0.38463476071E+02 -0.11993316724E+03  0.12850795099E+03  0.00000000000E+00 0.  1.
         21    1    1    2  505  504  0.59592278620E+02 -0.33903397760E+02 -0.92947830273E+02  0.11549882771E+03  0.00000000000E+00 0.  1.
          1    1    1    2  501    0 -0.90814478776E+02  0.25295621296E+02 -0.28220272874E+04  0.28236014501E+04  0.00000000000E+00 0.  1.
<scales pt_clust_3="47.41627" pt_clust_4="34.23695" pt_clust_5="34.23695" pt_clust_6="94.64177"></scales>
<clustering>
<clus scale="   34.237">  4  5 -1 -1</clus>
<clus scale="   47.416">  1  3  2 -1</clus>
<clus scale="   94.642">  2  6  1 -1</clus>
<clus scale="   47.416">  1  3  2 -1</clus>
</clustering>
</event>
<event>
 6    0  0.4945982E+002  0.1241062E+03  0.7546771E-02  0.1236473E+00
          1   -1    0    0  504    0 -0.00000000000E+00  0.00000000000E+00  0.14114595805E+04  0.14114595805E+04  0.00000000000E+00 0.  1.
         21   -1    0    0  505  502  0.00000000000E+00 -0.00000000000E+00 -0.18355598575E+04  0.18355598575E+04  0.00000000000E+00 0.  1.
         21    1    1    2  503  501  0.79160653310E+02 -0.35827986960E+02 -0.64633848094E+03  0.65215296183E+03  0.00000000000E+00 0. -1.
         21    1    1    2  504  502 -0.12992946827E+03 -0.25332083138E+01 -0.78497297382E+03  0.79565737193E+03  0.00000000000E+00 0.  1.
         21    1    1    2  505  503  0.14808737557E+01 -0.75804971106E+02 -0.38958213826E+03  0.39689145756E+03  0.00000000000E+00 0.  1.
          1    1    1    2  501    0  0.49287941200E+02  0.11416616638E+03  0.13967933160E+04  0.14023176467E+04  0.00000000000E+00 0.  1.
<scales pt_clust_3="106.13905" pt_clust_4="124.10623" pt_clust_5="75.81943" pt_clust_6="14000.00000"></scales>
<clustering>
<clus scale="   75.819">  2  5  1 -1</clus>
<clus scale="  106.139">  2  3  1 -1</clus>
<clus scale="  124.106">  2  4  1 -1</clus>
<clus scale="   75.819">  2  3  1 -1</clus>
</clustering>
</event>
<event>
 6    0  0.4945982E+002  0.1659099E+03  0.7546771E-02  0.1182182E+00
         21   -1    0    0  505  502  0.00000000000E+00  0.00000000000E+00  0.40771252012E+03  0.40771252012E+03  0.00000000000E+00 0. -1.
         -1   -1    0    0    0  501 -0.00000000000E+00 -0.00000000000E+00 -0.71199664772E+03  0.71199664772E+03  0.00000000000E+00 0.  1.
         21    1    1    2  503  502 -0.96162299869E+02  0.64326700347E+02  0.25304916322E+03  0.27824268418E+03  0.00000000000E+00 0. -1.
         21    1    1    2  504  501  0.13573087083E+02  0.46380355973E+02  0.19227254520E+02  0.52010128144E+02  0.00000000000E+00 0. -1.
         21    1    1    2  505  504  0.88639087235E+01  0.40800643644E+02  0.91446471110E+02  0.10052720268E+03  0.00000000000E+00 0.  1.
         -1    1    1    2    0  503  0.73725304062E+02 -0.15150769996E+03 -0.66800701645E+03  0.68892915284E+03  0.00000000000E+00 0.  1.
<scales pt_clust_3="165.90990" pt_clust_4="53.08550" pt_clust_5="41.75238" pt_clust_6="14000.00000"></scales>
<clustering>
<clus scale="   41.752">  1  5  2 -1</clus>
<clus scale="   53.086">  1  4  2 -1</clus>
<clus scale="  165.910">  1  3  2 -1</clus>
<clus scale="   41.752">  1  3  2 -1</clus>
</clustering>
</event>
<event>
 6    0  0.4945982E+002  0.8830835E+02  0.7546771E-02  0.1307001E+00
          1   -1    0    0  503    0 -0.00000000000E+00  0.00000000000E+00  0.16694262399E+04  0.16694262399E+04  0.00000000000E+00 0. -1.
         21   -1    0    0  505  502  0.00000000000E+00 -0.00000000000E+00 -0.29062887359E+02  0.29062887359E+02  0.00000000000E+00 0.  1.
         21    1    1    2  503  502 -0.39758108876E+02 -0.13394990923E+03  0.67129127439E+03  0.68567868603E+03  0.00000000000E+00 0.  1.
         21    1    1    2  504  501  0.41249553500E+02  0.21791552784E+02  0.25609291316E+03  0.26030746744E+03  0.00000000000E+00 0. -1.
         21    1    1    2  505  504 -0.21839197565E+01  0.37009331996E+02  0.15401893433E+01  0.37105691524E+02  0.00000000000E+00 0.  1.
          1    1    1    2  501    0  0.69247513295E+00  0.75149024447E+02  0.71143897567E+03  0.71539728228E+03  0.00000000000E+00 0. -1.
<scales pt_clust_3="88.30835" pt_clust_4="49.92026" pt_clust_5="37.07371" pt_clust_6="14000.00000"></scales>
<clustering>
<clus scale="   37.074">  2  5  1 -1</clus>
<clus scale="   49.920">  2  4  1 -1</clus>
<clus scale="   88.308">  2  3  1 -1</clus>
<clus scale="   37.074">  2  3  1 -1</clus>
</clustering>
</event>
<event>
 6    0  0.4945982E+002  0.9293069E+02  0.7546771E-02  0.1295906E+00
         21   -1    0    0  504  502  0.00000000000E+00  0.00000000000E+00  0.24347438920E+04  0.24347438920E+04  0.00000000000E+00 0.  1.
          2   -1    0    0  503    0 -0.00000000000E+00 -0.00000000000E+00 -0.19087288998E+04  0.19087288998E+04  0.00000000000E+00 0.  1.
         21    1    1    2  503  505 -0.96739120205E+02 -0.92897291597E+02  0.14098120719E+04  0.14161774049E+04  0.00000000000E+00 0.  1.
         21    1    1    2  504  501  0.35509391174E+01  0.73953024400E+02  0.65128631692E+03  0.65548114053E+03  0.00000000000E+00 0. -1.
         21    1    1    2  505  502  0.31496184323E+02 -0.35628964182E+01  0.36711590212E+03  0.36848173556E+03  0.00000000000E+00 0. -1.
          2    1    1    2  501    0  0.61691996765E+02  0.22507163615E+02 -0.19021992987E+04  0.19033325109E+04  0.00000000000E+00 0.  1.
<scales pt_clust_3="14000.00000" pt_clust_4="92.93069" pt_clust_5="31.69706" pt_clust_6="65.67721"></scales>
<clustering>
<clus scale="   31.697">  1  5  2 -1</clus>
<clus scale="   65.677">  2  6  1 -1</clus>
<clus scale="   92.931">  1  4  2 -1</clus>
<clus scale="   31.697">  1  3  2 -1</clus>
</clustering>
</event>
<event>
 6    0  0.4945982E+002  0.7689882E+02  0.7546771E-02  0.1338090E+00
          2   -1    0    0  504    0 -0.00000000000E+00  0.00000000000E+00  0.15936669653E+04  0.15936669653E+04  0.00000000000E+00 0. -1.
         21   -1    0    0  503  502  0.00000000000E+00 -0.00000000000E+00 -0.14352277288E+03  0.14352277288E+03  0.00000000000E+00 0. -1.
         21    1    1    2  503  505 -0.15295698476E+02 -0.75471705586E+02 -0.11149220621E+02  0.77809008838E+02  0.00000000000E+00 0. -1.
         21    1    1    2  504  502  0.68744884297E+02  0.39561996141E+02 -0.41855267979E+02  0.89682072419E+02  0.00000000000E+00 0. -1.
         21    1    1    2  505  501 -0.89716906824E+02  0.40570668603E+02  0.40297835907E+02  0.10639087414E+03  0.00000000000E+00 0. -1.
          2    1    1    2  501    0  0.36267721003E+02 -0.46609591581E+01  0.14628508451E+04  0.14633077827E+04  0.00000000000E+00 0. -1.
<scales pt_clust_3="76.89882" pt_clust_4="14000.00000" pt_clust_5="73.58150" pt_clust_6="36.56600"></scales>
<clustering>
<clus scale="   36.566">  1  6  2 -1</clus>
<clus scale="   76.899">  2  3  1 -1</clus>
<clus scale="   73.582">  1  5  2 -1</clus>
<clus scale="   76.899">  2  3  1 -1</clus>
</clustering>
</event>
<event>
 6    0  0.4945982E+002  0.9726808E+02  0.7546771E-02  0.1286148E+00
         21   -1    0    0  503  502  0.00000000000E+00  0.00000000000E+00  0.15128468953E+03  0.15128468953E+03  0.00000000000E+00 0.  1.
          2   -1    0    0  505    0 -0.00000000000E+00 -0.00000000000E+00 -0.38022432838E+03  0.38022432838E+03  0.00000000000E+00 0. -1.
         21    1    1    2  503  501  0.91098081763E+02  0.47191333196E+02  0.72166402431E+02  0.12543473231E+03  0.00000000000E+00 0.  1.
         21    1    1    2  504  502 -0.32047335769E+02  0.34960173744E+01  0.82533639431E+01  0.33277197655E+02  0.00000000000E+00 0.  1.
         21    1    1    2  505  504 -0.15334228865E+02  0.37310643517E+02  0.75193884838E+01  0.41033692226E+02  0.00000000000E+00 0. -1.
          2    1    1    2  501    0 -0.43716517130E+02 -0.87997994087E+02 -0.31687879371E+03  0.33176339571E+03  0.00000000000E+00 0. -1.
<scales pt_clust_3="14000.00000" pt_clust_4="32.23746" pt_clust_5="43.52594" pt_clust_6="97.26808"></scales>
<clustering>
<clus scale="   32.237">  1  4  2 -1</clus>
<clus scale="   43.526">  1  5  2 -1</clus>
<clus scale="   97.268">  2  6  1 -1</clus>
<clus scale="   32.237">  1  3  2 -1</clus>
</clustering>
</event>
<event>
 6    0  0.4945982E+002  0.1400661E+03  0.7546771E-02  0.1213240E+00
         21   -1    0    0  505  502  0.00000000000E+00  0.00000000000E+00  0.94624031267E+02  0.94624031267E+02  0.00000000000E+00 0.  1.
          2   -1    0    0  504    0 -0.00000000000E+00 -0.00000000000E+00 -0.10264391166E+04  0.10264391166E+04  0.00000000000E+00 0. -1.
         21    1    1    2  503  502  0.89851691198E+02  0.75154684117E+01 -0.18884801419E+03  0.20926868170E+03  0.00000000000E+00 0.  1.
         21    1    1    2  504  503  0.58355190216E+02 -0.10473505473E+02 -0.66345606359E+02  0.88976187967E+02  0.00000000000E+00 0.  1.
         21    1    1    2  505  501 -0.25789127447E+02 -0.43906969203E+02  0.57661509330E+02  0.76926917898E+02  0.00000000000E+00 0.  1.
          2    1    1    2  501    0 -0.12241775397E+03  0.46865006265E+02 -0.73428297410E+03  0.74589136029E+03  0.00000000000E+00 0. -1.
<scales pt_clust_3="34.89832" pt_clust_4="34.89832" pt_clust_5="50.92054" pt_clust_6="133.29041"></scales>
<clustering>
<clus scale="   34.898">  3  4 -1 -1</clus>
<clus scale="   50.921">  1  5  2 -1</clus>
<clus scale="  133.290">  2  6  1 -1</clus>
<clus scale="   50.921">  1  3  2 -1</clus>
</clustering>
</event>
<event>
 6    0  0.4945982E+002  0.1688459E+03  0.7546771E-02  0.1179057E+00
          1   -1    0    0  504    0 -0.00000000000E+00  0.00000000000E+00  0.53417477331E+03  0.53417477331E+03  0.00000000000E+00 0.  1.
         21   -1    0    0  505  502  0.00000000000E+00 -0.00000000000E+00 -0.50973577846E+03  0.50973577846E+03  0.00000000000E+00 0. -1.
         21    1    1    2  503  501 -0.47070180044E+02  0.13713172433E+02 -0.43934562067E+02  0.65832352924E+02  0.00000000000E+00 0. -1.
         21    1    1    2  504  502  0.28758999717E+02  0.44553774026E+02 -0.36263187614E+03  0.36648873985E+03  0.00000000000E+00 0. -1.
         21    1    1    2  505  503 -0.55570508541E+02  0.85324605905E+02 -0.43224194504E+02  0.11061962205E+03  0.00000000000E+00 0. -1.
          1    1    1    2  501    0  0.73881688869E+02 -0.14359155236E+03  0.47422962757E+03  0.50096983694E+03  0.00000000000E+00 0.  1.
<scales pt_clust_3="39.22200" pt_clust_4="53.02941" pt_clust_5="39.22200" pt_clust_6="159.10335"></scales>
<clustering>
<clus scale="   39.222">  3  5 -1 -1</clus>
<clus scale="   53.029">  2  4  1 -1</clus>
<clus scale="  159.103">  1  6  2 -1</clus>
<clus scale="   53.029">  2  3  1 -1</clus>
</clustering>
</event>
<event>
 6    0  0.4945982E+002  0.1100669E+03  0.7546771E-02  0.1260446E+00
         21   -1    0    0  503  502  0.00000000000E+00  0.00000000000E+00  0.23896682026E+02  0.23896682026E+02  0.00000000000E+00 0.  1.
          1   -1    0    0  504    0 -0.00000000000E+00 -0.00000000000E+00 -0.32981165934E+04  0.32981165934E+04  0.00000000000E+00 0.  1.
         21    1    1    2  503  505  0.71519146278E+02 -0.91699597246E+02 -0.14419741145E+03  0.18524766635E+03  0.00000000000E+00 0.  1.
         21    1    1    2  504  502  0.21448108754E+02  0.88010587623E+02 -0.13580429840E+04  0.13610608477E+04  0.00000000000E+00 0.  1.
         21    1    1    2  505  501 -0.58124771504E+02  0.27215156067E+02 -0.71045850676E+03  0.71335155682E+03  0.00000000000E+00 0. -1.
          1    1    1    2  501    0 -0.34842483528E+02 -0.23526146443E+02 -0.10615210092E+04  0.10623532046E+04  0.00000000000E+00 0.  1.
<scales pt_clust_3="110.06695" pt_clust_4="14000.00000" pt_clust_5="71.97295" pt_clust_6="42.04139"></scales>
<clustering>
<clus scale="   42.041">  2  6  1 -1</clus>
<clus scale="   71.973">  2  5  1 -1</clus>
<clus scale="  110.067">  1  3  2 -1</clus>
<clus scale="  110.067">  1  3  2 -1</clus>
</clustering>
</event>
<event>
 6    0  0.4945982E+002  0.8606714E+02  0.7546771E-02  0.1312665E+00
          2   -1    0    0  505    0 -0.00000000000E+00  0.00000000000E+00  0.14984527345E+04  0.14984527345E+04  0.00000000000E+00 0.  1.
         21   -1    0    0  503  502  0.00000000000E+00 -0.00000000000E+00 -0.22544851878E+03  0.22544851878E+03  0.00000000000E+00 0.  1.
         21    1    1    2  503  504 -0.25444751671E+02  0.20773804074E+02 -0.13351806993E+03  0.13749931389E+03  0.00000000000E+00 0.  1.
         21    1    1    2  504  501  0.16556398885E+00 -0.57540433918E+02  0.24241002553E+02  0.62438410868E+02  0.00000000000E+00 0.  1.
         21    1    1    2  505  502  0.83125169849E+02 -0.27213854833E+02 -0.42031542983E+02  0.97041426014E+02  0.00000000000E+00 0.  1.
          2    1    1    2  501    0 -0.57845982167E+02  0.63980484677E+02  0.14243128261E+04  0.14269221025E+04  0.00000000000E+00 0.  1.
<scales pt_clust_3="32.84793" pt_clust_4="53.38667" pt_clust_5="86.06714" pt_clust_6="14000.00000"></scales>
<clustering>
<clus scale="   32.848">  2  3  1 -1</clus>
<clus scale="   53.387">  2  4  1 -1</clus>
<clus scale="   86.067">  2  5  1 -1</clus>
<clus scale="   32.848">  2  3  1 -1</clus>
</clustering>
</event>
<event>
 6    0  0.4945982E+002  0.1170090E+03  0.7546771E-02  0.1248114E+00
          1   -1    0    0  505    0 -0.00000000000E+00  0.00000000000E+00  0.19918330907E+04  0.19918330907E+04  0.00000000000E+00 0. -1.
         21   -1    0    0  504  502  0.00000000000E+00 -0.00000000000E+00 -0.82041460668E+02  0.82041460668E+02  0.00000000000E+00 0.  1.
         21    1    1    2  503  501  0.12026767769E+03  0.13772546177E+02  0.18157976704E+03  0.21823200756E+03  0.00000000000E+00 0.  1.
         21    1    1    2  504  503 -0.14083428273E+02  0.38795199209E+02 -0.46751911945E+02  0.62363063620E+02  0.00000000000E+00 0.  1.
         21    1    1    2  505  502 -0.34791274747E+02  0.68401418241E+02  0.11574580195E+04  0.11599992473E+04  0.00000000000E+00 0. -1.
          1    1    1    2  501    0 -0.71392974667E+02 -0.12096916363E+03  0.61750575541E+03  0.63328023287E+03  0.00000000000E+00 0. -1.
<scales pt_clust_3="14000.00000" pt_clust_4="41.27239" pt_clust_5="78.63520" pt_clust_6="117.00898"></scales>
<clustering>
<clus scale="   41.272">  2  4  1 -1</clus>
<clus scale="   78.635">  1  5  2 -1</clus>
<clus scale="  117.009">  1  6  2 -1</clus>
<clus scale="   41.272">  2  3  1 -1</clus>
</clustering>
</event>
<event>
 6    0  0.4945982E+002  0.2670297E+03  0.7546771E-02  0.1102992E+00
          1   -1    0    0  502    0 -0.00000000000E+00  0.00000000000E+00  0.16771537922E+04  0.16771537922E+04  0.00000000000E+00 0.  1.
         21   -1    0    0  503  502  0.00000000000E+00 -0.00000000000E+00 -0.11941610836E+04  0.11941610836E+04  0.00000000000E+00 0.  1.
         21    1    1    2  503  505 -0.44941785366E+02  0.24487568820E+02 -0.71401227625E+03  0.71584421191E+03  0.00000000000E+00 0.  1.
         21    1    1    2  504  501 -0.35193224278E+02 -0.99026910932E+02 -0.26999259063E+03  0.28972554447E+03  0.00000000000E+00 0.  1.
         21    1    1    2  505  504 -0.11908821551E+03 -0.61385008909E+02 -0.16696848155E+03  0.21407614586E+03  0.00000000000E+00 0. -1.
          1    1    1    2  501    0  0.19922322516E+03  0.13592435102E+03  0.16339660570E+04  0.16516689735E+04  0.00000000000E+00 0.  1.
<scales pt_clust_3="51.18012" pt_clust_4="97.68796" pt_clust_5="97.68796" pt_clust_6="240.74557"></scales>
<clustering>
<clus scale="   51.180">  2  3  1 -1</clus>
<clus scale="   97.688">  4  5 -1 -1</clus>
<clus scale="  240.746">  1  6  2 -1</clus>
<clus scale="   51.180">  2  3  1 -1</clus>
</clustering>
</event>
<event>
 6    0  0.4945982E+002  0.1258750E+03  0.7546771E-02  0.1233708E+00
         21   -1    0    0  505  502  0.00000000000E+00  0.00000000000E+00  0.11495815938E+04  0.11495815938E+04  0.00000000000E+00 0. -1.
          2   -1    0    0  503    0 -0.00000000000E+00 -0.00000000000E+00 -0.27995796575E+03  0.27995796575E+03  0.00000000000E+00 0. -1.
         21    1    1    2  503  504 -0.90888158193E+01 -0.47733785528E+02 -0.47457249374E+01  0.48822564036E+02  0.00000000000E+00 0.  1.
         21    1    1    2  504  502  0.37488807841E+02  0.11663710972E+03  0.96420918172E+03  0.97196140469E+03  0.00000000000E+00 0. -1.
         21    1    1    2  505  501 -0.32656975151E+02  0.10601295698E+02  0.15112582918E+03  0.15497703618E+03  0.00000000000E+00 0. -1.
          2    1    1    2  501    0  0.42569831293E+01 -0.79504619886E+02 -0.24096565793E+03  0.25377855463E+03  0.00000000000E+00 0. -1.
<scales pt_clust_3="48.50199" pt_clust_4="125.87496" pt_clust_5="34.33461" pt_clust_6="14000.00000"></scales>
<clustering>
<clus scale="   34.335">  1  5  2 -1</clus>
<clus scale="   48.502">  2  3  1 -1</clus>
<clus scale="  125.875">  1  4  2 -1</clus>
<clus scale="   34.335">  1  3  2 -1</clus>
</clustering>
</event>
<event>
 6    0  0.5216327E+002  0.1277811E+03  0.7546771E-02  0.1230786E+00
         21   -1    0    0  504  502  0.00000000000E+00  0.00000000000E+00  0.16633240664E+03  0.16633240664E+03  0.00000000000E+00 0. -1.
          2   -1    0    0  503    0 -0.00000000000E+00 -0.00000000000E+00 -0.19607328639E+04  0.19607328639E+04  0.00000000000E+00 0. -1.
         21    1    1    2  503  505 -0.54609631057E+01  0.34233345576E+02 -0.77938026122E+02  0.85299941285E+02  0.00000000000E+00 0. -1.
         21    1    1    2  504  501  0.29231693341E+02 -0.16372278846E+02 -0.94563547337E+01  0.34813302846E+02  0.00000000000E+00 0. -1.
         21    1    1    2  505  502 -0.58654460192E+02 -0.10916141800E+03  0.12284535113E+03  0.17449223815E+03  0.00000000000E+00 0. -1.
          2    1    1    2  501    0  0.34883729957E+02  0.91300351267E+02 -0.18298514275E+04  0.18324597883E+04  0.00000000000E+00 0. -1.
<scales pt_clust_3="34.17435" pt_clust_4="33.50438" pt_clust_5="127.78108" pt_clust_6="14000.00000"></scales>
<clustering>
<clus scale="   33.504">  1  4  2 -1</clus>
<clus scale="   34.174">  2  3  1 -1</clus>
<clus scale="  127.781">  1  5  2 -1</clus>
<clus scale="   33.504">  1  3  2 -1</clus>
</clustering>
</event>
<event>
 6    0  0.4945982E+002  0.1395971E+03  0.7546771E-02  0.1213872E+00
         21   -1    0    0  503  502  0.00000000000E+00  0.00000000000E+00  0.62484211367E+03  0.62484211367E+03  0.00000000000E+00 0. -1.
         -1   -1    0    0    0  501 -0.00000000000E+00 -0.00000000000E+00 -0.17543494568E+03  0.17543494568E+03  0.00000000000E+00 0. -1.
         21    1    1    2  503  501  0.10155352740E+03  0.76052076719E+02  0.50553237150E+03  0.52121014565E+03  0.00000000000E+00 0. -1.
         21    1    1    2  504  505 -0.10250324785E+03 -0.68243433301E-01  0.41862036700E+02  0.11072195173E+03  0.00000000000E+00 0. -1.
         21    1    1    2  505  502 -0.30798044409E+02 -0.34699961654E+02  0.10886439962E+02  0.47656284509E+02  0.00000000000E+00 0. -1.
         -1    1    1    2    0  504  0.31747764866E+02 -0.41283871632E+02 -0.10887368018E+03  0.12068867746E+03  0.00000000000E+00 0. -1.
<scales pt_clust_3="127.13831" pt_clust_4="38.78383" pt_clust_5="38.78383" pt_clust_6="52.07954"></scales>
<clustering>
<clus scale="   38.784">  4  5 -1 -1</clus>
<clus scale="   52.080">  2  6  1 -1</clus>
<clus scale="  127.138">  1  3  2 -1</clus>
<clus scale="  127.138">  1  3  2 -1</clus>
</clustering>
</event>
<event>
 6    0  0.4945982E+002  0.9040835E+02  0.7546771E-02  0.1301866E+00
         21   -1    0    0  503  502  0.00000000000E+00  0.00000000000E+00  0.67536142076E+02  0.67536142076E+02  0.00000000000E+00 0. -1.
          2   -1    0    0  504    0 -0.00000000000E+00 -0.00000000000E+00 -0.23704299250E+04  0.23704299250E+04  0.00000000000E+00 0.  1.
         21    1    1    2  503  501  0.36963874657E+02  0.49830113384E+02  0.30649047969E+01  0.62118933273E+02  0.00000000000E+00 0. -1.
         21    1    1    2  504  505 -0.22547455896E+02  0.62011092404E+02 -0.26235479328E+02  0.71007490619E+02  0.00000000000E+00 0. -1.
         21    1    1    2  505  502  0.30777176498E+02 -0.32596689278E+02 -0.31557572500E+02  0.54823891938E+02  0.00000000000E+00 0. -1.
          2    1    1    2  501    0 -0.45193595259E+02 -0.79244516510E+02 -0.22481656359E+04  0.22500157513E+04  0.00000000000E+00 0.  1.
<scales pt_clust_3="90.40835" pt_clust_4="50.01389" pt_clust_5="44.83056" pt_clust_6="14000.00000"></scales>
<clustering>
<clus scale="   44.831">  1  5  2 -1</clus>
<clus scale="   50.014">  1  4  2 -1</clus>
<clus scale="   90.408">  1  3  2 -1</clus>
<clus scale="   44.831">  1  3  2 -1</clus>
</clustering>
</event>
<event>
 6    0  0.4945982E+002  0.2390925E+03  0.7546771E-02  0.1120399E+00
         21   -1    0    0  504  502  0.00000000000E+00  0.00000000000E+00  0.68944385921E+03  0.68944385921E+03  0.00000000000E+00 0. -1.
          2   -1    0    0  503    0 -0.00000000000E+00 -0.00000000000E+00 -0.13871248652E+04  0.13871248652E+04  0.00000000000E+00 0. -1.
         21    1    1    2  503  505  0.84227973616E+02  0.91254502468E+02 -0.21963726489E+03  0.25231382025E+03  0.00000000000E+00 0. -1.
         21    1    1    2  504  501 -0.70403879054E+02 -0.28171182018E+03  0.53136594953E+03  0.60553119501E+03  0.00000000000E+00 0. -1.
         21    1    1    2  505  502 -0.63536544333E+02  0.15666373395E+03  0.34952659444E+02  0.17263286594E+03  0.00000000000E+00 0. -1.
          2    1    1    2  501    0  0.49712449771E+02  0.33793583762E+02 -0.10443623500E+04  0.10460908432E+04  0.00000000000E+00 0. -1.
<scales pt_clust_3="164.86289" pt_clust_4="239.09250" pt_clust_5="14000.00000" pt_clust_6="60.11101"></scales>
<clustering>
<clus scale="   60.111">  2  6  1 -1</clus>
<clus scale="  164.863">  2  3  1 -1</clus>
<clus scale="  239.093">  1  4  2 -1</clus>
<clus scale="  239.093">  1  3  2 -1</clus>
</clustering>
</event>
<event>
 6    0  0.4945982E+002  0.1553020E+03  0.7546771E-02  0.1194105E+00
         21   -1    0    0  503  502  0.00000000000E+00  0.00000000000E+00  0.47872621231E+03  0.47872621231E+03  0.00000000000E+00 0. -1.
         -3   -1    0    0    0  501 -0.00000000000E+00 -0.00000000000E+00 -0.53210160754E+03  0.53210160754E+03  0.00000000000E+00 0. -1.
         21    1    1    2  503  504 -0.10109718538E+03 -0.43076999811E+02  0.11993322388E+03  0.16266605975E+03  0.00000000000E+00 0.  1.
         21    1    1    2  504  501 -0.28583953345E+02  0.13015704344E+03 -0.10901730479E+03  0.17217047101E+03  0.00000000000E+00 0. -1.
         21    1    1    2  505  502  0.13354299821E+03 -0.11885839536E+03  0.27891657874E+03  0.33129368907E+03  0.00000000000E+00 0. -1.
         -3    1    1    2    0  505 -0.38618594841E+01  0.31778351740E+02 -0.34320789306E+03  0.34469760001E+03  0.00000000000E+00 0. -1.
<scales pt_clust_3="108.93689" pt_clust_4="155.30198" pt_clust_5="14000.00000" pt_clust_6="32.01215"></scales>
<clustering>
<clus scale="   32.012">  2  6  1 -1</clus>
<clus scale="  108.937">  1  3  2 -1</clus>
<clus scale="  155.302">  2  4  1 -1</clus>
<clus scale="  108.937">  1  3  2 -1</clus>
</clustering>
</event>
<event>
 6    0  0.4945982E+002  0.1580465E+03  0.7546771E-02  0.1190920E+00
         21   -1    0    0  505  502  0.00000000000E+00  0.00000000000E+00  0.45617767544E+03  0.45617767544E+03  0.00000000000E+00 0.  1.
          3   -1    0    0  504    0 -0.00000000000E+00 -0.00000000000E+00 -0.18745073638E+03  0.18745073638E+03  0.00000000000E+00 0. -1.
         21    1    1    2  503  502 -0.11408230075E+03 -0.79820348833E+01 -0.42846761303E+02  0.12212423666E+03  0.00000000000E+00 0. -1.
         21    1    1    2  504  503 -0.28530209195E+02 -0.24831202151E+02  0.15182289377E+02  0.40756144907E+02  0.00000000000E+00 0.  1.
         21    1    1    2  505  501  0.14987721657E+03  0.80526801903E+02  0.36159634293E+03  0.39962440002E+03  0.00000000000E+00 0.  1.
          3    1    1    2  501    0 -0.72647066277E+01 -0.47713564868E+02 -0.65204931939E+02  0.81123630244E+02  0.00000000000E+00 0. -1.
<scales pt_clust_3="158.04647" pt_clust_4="37.82276" pt_clust_5="14000.00000" pt_clust_6="61.20944"></scales>
<clustering>
<clus scale="   37.823">  2  4  1 -1</clus>
<clus scale="   61.209">  2  6  1 -1</clus>
<clus scale="  158.046">  2  3  1 -1</clus>
<clus scale="  158.046">  1  3  2 -1</clus>
</clustering>
</event>
<event>
 6    0  0.4945982E+002  0.6163078E+02  0.7546771E-02  0.1391113E+00
         21   -1    0    0  504  502  0.00000000000E+00  0.00000000000E+00  0.13451833257E+03  0.13451833257E+03  0.00000000000E+00 0.  1.
          2   -1    0    0  505    0 -0.00000000000E+00 -0.00000000000E+00 -0.13442964147E+04  0.13442964147E+04  0.00000000000E+00 0.  1.
         21    1    1    2  503  501  0.54241309918E+02  0.70688739901E+02 -0.98497858087E+01  0.89643939733E+02  0.00000000000E+00 0.  1.
         21    1    1    2  504  503 -0.58629834275E+02  0.42056747190E+02  0.68675025205E+02  0.99611678724E+02  0.00000000000E+00 0.  1.
         21    1    1    2  505  502  0.19182326249E+02 -0.53326690555E+02 -0.73129849948E+02  0.92518498255E+02  0.00000000000E+00 0. -1.
          2    1    1    2  501    0 -0.14793801892E+02 -0.59418796536E+02 -0.11954734716E+04  0.11970406305E+04  0.00000000000E+00 0.  1.
<scales pt_clust_3="61.63078" pt_clust_4="46.10568" pt_clust_5="56.67184" pt_clust_6="14000.00000"></scales>
<clustering>
<clus scale="   56.672">  1  5  2 -1</clus>
<clus scale="   46.106">  1  4  2 -1</clus>
<clus scale="   61.631">  1  3  2 -1</clus>
<clus scale="   56.672">  1  3  2 -1</clus>
</clustering>
</event>
<event>
 6    0  0.4945982E+002  0.9033799E+02  0.7546771E-02  0.1302035E+00
         21   -1    0    0  503  502  0.00000000000E+00  0.00000000000E+00  0.17950630889E+03  0.17950630889E+03  0.00000000000E+00 0. -1.
         -1   -1    0    0    0  501 -0.00000000000E+00 -0.00000000000E+00 -0.20351750690E+04  0.20351750690E+04  0.00000000000E+00 0.  1.
         21    1    1    2  503  501 -0.52876863190E+02 -0.66738182895E+02 -0.61423398230E+01  0.85367886558E+02  0.00000000000E+00 0. -1.
         21    1    1    2  504  505  0.13958011871E+02  0.86790072257E+02 -0.82631409854E+02  0.12064531749E+03  0.00000000000E+00 0.  1.
         21    1    1    2  505  502 -0.12745572285E+02 -0.38545836839E+02  0.11706714444E+03  0.12390701133E+03  0.00000000000E+00 0. -1.
         -1    1    1    2    0  504  0.51664423603E+02  0.18493947477E+02 -0.18839621549E+04  0.18847611626E+04  0.00000000000E+00 0.  1.
<scales pt_clust_3="90.33799" pt_clust_4="14000.00000" pt_clust_5="40.59841" pt_clust_6="54.70602"></scales>
<clustering>
<clus scale="   40.598">  1  5  2 -1</clus>
<clus scale="   54.706">  2  6  1 -1</clus>
<clus scale="   90.338">  2  3  1 -1</clus>
<clus scale="   40.598">  1  3  2 -1</clus>
</clustering>
</event>
<event>
 6    0  0.4945982E+002  0.1006115E+03  0.7546771E-02  0.1279015E+00
          1   -1    0    0  505    0 -0.00000000000E+00  0.00000000000E+00  0.10968755298E+04  0.10968755298E+04  0.00000000000E+00 0.  1.
         21   -1    0    0  503  502  0.00000000000E+00 -0.00000000000E+00 -0.34223793280E+03  0.34223793280E+03  0.00000000000E+00 0.  1.
         21    1    1    2  503  504  0.97333492490E+02  0.18616167507E+02 -0.30996439365E+03  0.32542018343E+03  0.00000000000E+00 0.  1.
         21    1    1    2  504  501 -0.17988242036E+03 -0.36449249587E+02  0.40340596375E+03  0.44319589860E+03  0.00000000000E+00 0.  1.
         21    1    1    2  505  502  0.32567189467E+02  0.10514772279E+02  0.78746991769E+02  0.85861929739E+02  0.00000000000E+00 0.  1.
          1    1    1    2  501    0  0.49981738402E+02  0.73183098006E+01  0.58244903510E+03  0.58463545079E+03  0.00000000000E+00 0.  1.
<scales pt_clust_3="100.61152" pt_clust_4="14000.00000" pt_clust_5="34.22254" pt_clust_6="70.00103"></scales>
<clustering>
<clus scale="   34.223">  1  5  2 -1</clus>
<clus scale="   70.001">  1  6  2 -1</clus>
<clus scale="  100.612">  2  3  1 -1</clus>
<clus scale="  100.612">  2  3  1 -1</clus>
</clustering>
</event>
<event>
 6    0  0.4945982E+002  0.1064921E+03  0.7546771E-02  0.1267207E+00
         21   -1    0    0  503  502  0.00000000000E+00  0.00000000000E+00  0.23722514820E+04  0.23722514820E+04  0.00000000000E+00 0.  1.
         -4   -1    0    0    0  501 -0.00000000000E+00 -0.00000000000E+00 -0.66964231047E+03  0.66964231047E+03  0.00000000000E+00 0. -1.
         21    1    1    2  503  501  0.65937663241E+02  0.10908191783E+03  0.19008824445E+02  0.12887193503E+03  0.00000000000E+00 0. -1.
         21    1    1    2  504  505 -0.11472372396E+02 -0.75212361383E+02  0.77340869695E+02  0.10849020582E+03  0.00000000000E+00 0. -1.
         21    1    1    2  505  502 -0.92538957086E+02 -0.52458134174E+02  0.22033617815E+04  0.22059280257E+04  0.00000000000E+00 0.  1.
         -4    1    1    2    0  504  0.38073666240E+02  0.18588577728E+02 -0.59710230415E+03  0.59860362587E+03  0.00000000000E+00 0. -1.
<scales pt_clust_3="14000.00000" pt_clust_4="71.25203" pt_clust_5="106.49215" pt_clust_6="42.36908"></scales>
<clustering>
<clus scale="   42.369">  2  6  1 -1</clus>
<clus scale="   71.252">  2  4  1 -1</clus>
<clus scale="  106.492">  1  5  2 -1</clus>
<clus scale="  106.492">  1  3  2 -1</clus>
</clustering>
</event>
<event>
 6    0  0.4945982E+002  0.1523085E+03  0.7546771E-02  0.1197665E+00
          1   -1    0    0  502    0 -0.00000000000E+00  0.00000000000E+00  0.12994250616E+04  0.12994250616E+04  0.00000000000E+00 0. -1.
         21   -1    0    0  505  502  0.00000000000E+00 -0.00000000000E+00 -0.14760399862E+04  0.14760399862E+04  0.00000000000E+00 0.  1.
         21    1    1    2  503  501 -0.45634091285E+01 -0.56885789007E+02 -0.73197300122E+02  0.92815205861E+02  0.00000000000E+00 0.  1.
         21    1    1    2  504  503 -0.20624413893E+01 -0.43507401037E+02 -0.12817498677E+03  0.13537346432E+03  0.00000000000E+00 0.  1.
         21    1    1    2  505  504 -0.55810796258E+01 -0.47697907582E+02 -0.12565069647E+04  0.12574243481E+04  0.00000000000E+00 0.  1.
          1    1    1    2  501    0  0.12206930144E+02  0.14809109763E+03  0.12812643271E+04  0.12898520296E+04  0.00000000000E+00 0. -1.
<scales pt_clust_3="32.64821" pt_clust_4="32.64821" pt_clust_5="48.02332" pt_clust_6="147.65264"></scales>
<clustering>
<clus scale="   32.648">  3  4 -1 -1</clus>
<clus scale="   48.023">  2  5  1 -1</clus>
<clus scale="  147.653">  1  6  2 -1</clus>
<clus scale="   48.023">  2  3  1 -1</clus>
</clustering>
</event>
<event>
 6    0  0.4945982E+002  0.2094702E+03  0.7546771E-02  0.1141986E+00
         21   -1    0    0  501  502  0.00000000000E+00  0.00000000000E+00  0.26103709116E+03  0.26103709116E+03  0.00000000000E+00 0. -1.
          2   -1    0    0  504    0 -0.00000000000E+00 -0.00000000000E+00 -0.85870971200E+03  0.85870971200E+03  0.00000000000E+00 0. -1.
         21    1    1    2  503  505  0.16422703347E+03 -0.25735945204E+03  0.17776508457E+02  0.30581106966E+03  0.00000000000E+00 0. -1.
         21    1    1    2  504  503 -0.60150130786E+02  0.60101311726E+02 -0.11216887484E+03  0.14075532810E+03  0.00000000000E+00 0.  1.
         21    1    1    2  505  502 -0.13099855562E+03  0.93764186517E+02 -0.25075169514E+01  0.16111682683E+03  0.00000000000E+00 0.  1.
          2    1    1    2  501    0  0.26921652941E+02  0.10349395379E+03 -0.50077273751E+03  0.51206357857E+03  0.00000000000E+00 0. -1.
<scales pt_clust_3="209.47015" pt_clust_4="85.03062" pt_clust_5="14000.00000" pt_clust_6="145.80036"></scales>
<clustering>
<clus scale="   85.031">  2  4  1 -1</clus>
<clus scale="  145.800">  2  6  1 -1</clus>
<clus scale="  209.470">  2  3  1 -1</clus>
<clus scale="  209.470">  1  3  2 -1</clus>
</clustering>
</event>
<event>
 6    0  0.4945982E+002  0.2866211E+03  0.7546771E-02  0.1092127E+00
         21   -1    0    0  505  502  0.00000000000E+00  0.00000000000E+00  0.11085166458E+03  0.11085166458E+03  0.00000000000E+00 0.  1.
          2   -1    0    0  503    0 -0.00000000000E+00 -0.00000000000E+00 -0.48925270063E+04  0.48925270063E+04  0.00000000000E+00 0.  1.
         21    1    1    2  503  504  0.36219892473E+02 -0.14202242433E+03 -0.71649653551E+03  0.73133407894E+03  0.00000000000E+00 0.  1.
         21    1    1    2  504  502 -0.28569703232E+02 -0.18199077399E+03 -0.62845664722E+03  0.65490047121E+03  0.00000000000E+00 0.  1.
         21    1    1    2  505  501  0.46731002075E+02  0.67979893304E+02  0.65389020679E+02  0.10526526718E+03  0.00000000000E+00 0.  1.
          2    1    1    2  501    0 -0.54381191317E+02  0.25603330502E+03 -0.35021111796E+04  0.35118788535E+04  0.00000000000E+00 0.  1.
<scales pt_clust_3="78.29113" pt_clust_4="78.29113" pt_clust_5="82.49274" pt_clust_6="272.85081"></scales>
<clustering>
<clus scale="   78.291">  3  4 -1 -1</clus>
<clus scale="   82.493">  1  5  2 -1</clus>
<clus scale="  272.851">  2  6  1 -1</clus>
<clus scale="   82.493">  1  3  2 -1</clus>
</clustering>
</event>
<event>
 6    0  0.4945982E+002  0.1734915E+03  0.7546771E-02  0.1174255E+00
          3   -1    0    0  504    0 -0.00000000000E+00  0.00000000000E+00  0.71213747423E+03  0.71213747423E+03  0.00000000000E+00 0.  1.
         21   -1    0    0  501  502  0.00000000000E+00 -0.00000000000E+00 -0.58795970467E+03  0.58795970467E+03  0.00000000000E+00 0.  1.
         21    1    1    2  503  502 -0.17102413353E+03 -0.13324107870E+02 -0.52108701979E+03  0.54859681761E+03  0.00000000000E+00 0.  1.
         21    1    1    2  504  505  0.30655843232E+02  0.31896790967E+02  0.24623341914E+03  0.25017610337E+03  0.00000000000E+00 0.  1.
         21    1    1    2  505  503 -0.71859340806E+02 -0.45162324476E+02  0.15587739028E+03  0.17748566481E+03  0.00000000000E+00 0. -1.
          3    1    1    2  501    0  0.21222763110E+03  0.26589641379E+02  0.24315397993E+03  0.32383859311E+03  0.00000000000E+00 0.  1.
<scales pt_clust_3="173.49155" pt_clust_4="44.24009" pt_clust_5="69.55580" pt_clust_6="14000.00000"></scales>
<clustering>
<clus scale="   44.240">  1  4  2 -1</clus>
<clus scale="   69.556">  1  5  2 -1</clus>
<clus scale="  173.492">  2  3  1 -1</clus>
<clus scale="  173.492">  2  3  1 -1</clus>
</clustering>
</event>
<event>
 6    0  0.4945982E+002  0.1006217E+03  0.7546771E-02  0.1278994E+00
          1   -1    0    0  503    0 -0.00000000000E+00  0.00000000000E+00  0.14615118994E+04  0.14615118994E+04  0.00000000000E+00 0.  1.
         21   -1    0    0  504  502  0.00000000000E+00 -0.00000000000E+00 -0.38662161130E+04  0.38662161130E+04  0.00000000000E+00 0.  1.
         21    1    1    2  503  505  0.21087243700E+02  0.53106562904E+02  0.82623882902E+02  0.10045737850E+03  0.00000000000E+00 0.  1.
         21    1    1    2  504  501 -0.57543642375E+02 -0.67162908786E+02 -0.38492434292E+04  0.38502593555E+04  0.00000000000E+00 0.  1.
         21    1    1    2  505  502  0.51035693985E+02  0.65170075480E+02  0.24067404460E+03  0.25451085742E+03  0.00000000000E+00 0.  1.
          1    1    1    2  501    0 -0.14579295310E+02 -0.51113729598E+02  0.11212412880E+04  0.11225004210E+04  0.00000000000E+00 0.  1.
<scales pt_clust_3="39.75755" pt_clust_4="88.51503" pt_clust_5="39.75755" pt_clust_6="53.15232"></scales>
<clustering>
<clus scale="   39.758">  3  5 -1 -1</clus>
<clus scale="   53.152">  1  6  2 -1</clus>
<clus scale="   88.515">  2  4  1 -1</clus>
<clus scale="   88.515">  2  3  1 -1</clus>
</clustering>
</event>
<event>
 6    0  0.4945982E+002  0.7982770E+02  0.7546771E-02  0.1329541E+00
         21   -1    0    0  501  502  0.00000000000E+00  0.00000000000E+00  0.25400715465E+03  0.25400715465E+03  0.00000000000E+00 0.  1.
          4   -1    0    0  505    0 -0.00000000000E+00 -0.00000000000E+00 -0.27106720547E+03  0.27106720547E+03  0.00000000000E+00 0. -1.
         21    1    1    2  503  502 -0.50991411720E+02  0.18640063106E+02  0.94337668757E+02  0.10884471401E+03  0.00000000000E+00 0.  1.
         21    1    1    2  504  503  0.52392100716E+02 -0.81728866717E+02  0.79679400419E+02  0.12559198511E+03  0.00000000000E+00 0.  1.
         21    1    1    2  505  504 -0.69554339340E+02  0.10839814958E+02  0.10833821977E+02  0.71222745019E+02  0.00000000000E+00 0.  1.
          4    1    1    2  501    0  0.68153650344E+02  0.52248988654E+02 -0.20191094197E+03  0.21941491599E+03  0.00000000000E+00 0. -1.
<scales pt_clust_3="54.29158" pt_clust_4="71.49411" pt_clust_5="79.82770" pt_clust_6="14000.00000"></scales>
<clustering>
<clus scale="   54.292">  1  3  2 -1</clus>
<clus scale="   71.494">  1  4  2 -1</clus>
<clus scale="   79.828">  1  5  2 -1</clus>
<clus scale="   54.292">  1  3  2 -1</clus>
</clustering>
</event>
<event>
 6    0  0.4945982E+002  0.9226807E+02  0.7546771E-02  0.1297450E+00
          2   -1    0    0  504    0 -0.00000000000E+00  0.00000000000E+00  0.33381116578E+03  0.33381116578E+03  0.00000000000E+00 0. -1.
         21   -1    0    0  505  502  0.00000000000E+00 -0.00000000000E+00 -0.37941013363E+03  0.37941013363E+03  0.00000000000E+00 0.  1.
         21    1    1    2  503  501 -0.40046427902E+02 -0.13430805948E+03 -0.13368051405E+03  0.19368234577E+03  0.00000000000E+00 0.  1.
         21    1    1    2  504  502 -0.11037510030E+02  0.66440331440E+02  0.67086729663E+02  0.95061945943E+02  0.00000000000E+00 0.  1.
         21    1    1    2  505  503  0.23573845347E+02  0.41909978379E+02 -0.19722570847E+03  0.20300283878E+03  0.00000000000E+00 0.  1.
          2    1    1    2  501    0  0.27510092585E+02  0.25957749661E+02  0.21822052500E+03  0.22147416891E+03  0.00000000000E+00 0. -1.
<scales pt_clust_3="92.26807" pt_clust_4="14000.00000" pt_clust_5="49.00117" pt_clust_6="37.82340"></scales>
<clustering>
<clus scale="   37.823">  1  6  2 -1</clus>
<clus scale="   49.001">  2  5  1 -1</clus>
<clus scale="   92.268">  2  3  1 -1</clus>
<clus scale="   49.001">  2  3  1 -1</clus>
</clustering>
</event>
<event>
 6    0  0.4945982E+002  0.1968770E+03  0.7546771E-02  0.1152401E+00
          2   -1    0    0  505    0 -0.00000000000E+00  0.00000000000E+00  0.10680059671E+04  0.10680059671E+04  0.00000000000E+00 0. -1.
         21   -1    0    0  503  502  0.00000000000E+00 -0.00000000000E+00 -0.13504924475E+04  0.13504924475E+04  0.00000000000E+00 0.  1.
         21    1    1    2  503  501  0.24216294622E+02 -0.70711322716E+02 -0.20618379295E+02  0.77534751242E+02  0.00000000000E+00 0.  1.
         21    1    1    2  504  502  0.14441262869E+01 -0.32734743395E+02 -0.12536157586E+04  0.12540439063E+04  0.00000000000E+00 0.  1.
         21    1    1    2  505  504 -0.19154231429E+03  0.16611068060E+03  0.44527524366E+03  0.51239755951E+03  0.00000000000E+00 0.  1.
          2    1    1    2  501    0  0.16588189339E+03 -0.62664614494E+02  0.54647241380E+03  0.57452219758E+03  0.00000000000E+00 0. -1.
<scales pt_clust_3="90.82507" pt_clust_4="32.76658" pt_clust_5="196.87697" pt_clust_6="14000.00000"></scales>
<clustering>
<clus scale="   32.767">  2  4  1 -1</clus>
<clus scale="   90.825">  2  3  1 -1</clus>
<clus scale="  196.877">  2  5  1 -1</clus>
<clus scale="   32.767">  2  3  1 -1</clus>
</clustering>
</event>
<event>
 6    0  0.4945982E+002  0.1409431E+03  0.7546771E-02  0.1212066E+00
         -2   -1    0    0    0  501 -0.00000000000E+00  0.00000000000E+00  0.12013394607E+04  0.12013394607E+04  0.00000000000E+00 0. -1.
         21   -1    0    0  505  502  0.00000000000E+00 -0.00000000000E+00 -0.14852600906E+03  0.14852600906E+03  0.00000000000E+00 0.  1.
         21    1    1    2  503  504  0.46271573257E+02 -0.10788474510E+02 -0.38095897111E+02  0.60899483171E+02  0.00000000000E+00 0.  1.
         21    1    1    2  504  502  0.62534364285E+02  0.27255025436E+02 -0.73142934221E+02  0.10001635843E+03  0.00000000000E+00 0.  1.
         21    1    1    2  505  501  0.26792807035E+02 -0.34337033776E+02  0.49072366612E+02  0.65612373546E+02  0.00000000000E+00 0.  1.
         -2    1    1    2    0  503 -0.13559874458E+03  0.17870482851E+02  0.11149799164E+04  0.11233372546E+04  0.00000000000E+00 0. -1.
<scales pt_clust_3="31.33750" pt_clust_4="31.33750" pt_clust_5="43.55326" pt_clust_6="135.84923"></scales>
<clustering>
<clus scale="   31.338">  3  4 -1 -1</clus>
<clus scale="   43.553">  2  5  1 -1</clus>
<clus scale="  135.849">  1  6  2 -1</clus>
<clus scale="   43.553">  2  3  1 -1</clus>
</clustering>
</event>
<event>
 6    0  0.4945982E+002  0.1247219E+03  0.7546771E-02  0.1235505E+00
          2   -1    0    0  505    0 -0.00000000000E+00  0.00000000000E+00  0.12309060317E+04  0.12309060317E+04  0.00000000000E+00 0. -1.
         21   -1    0    0  501  502  0.00000000000E+00 -0.00000000000E+00 -0.50790530867E+03  0.50790530867E+03  0.00000000000E+00 0.  1.
         21    1    1    2  503  504 -0.91746921544E+02  0.77271883935E+02  0.20748339248E+03  0.23966184472E+03  0.00000000000E+00 0.  1.
         21    1    1    2  504  502  0.10772073679E+03 -0.33005535964E+02 -0.47707760451E+03  0.49020012573E+03  0.00000000000E+00 0.  1.
         21    1    1    2  505  503 -0.47678236483E+02  0.97831766361E+00  0.69992612251E+02  0.84694374721E+02  0.00000000000E+00 0.  1.
          2    1    1    2  501    0  0.31704421235E+02 -0.45244665634E+02  0.92260232281E+03  0.92425499520E+03  0.00000000000E+00 0. -1.
<scales pt_clust_3="32.46779" pt_clust_4="113.59577" pt_clust_5="32.46779" pt_clust_6="55.24717"></scales>
<clustering>
<clus scale="   32.468">  3  5 -1 -1</clus>
<clus scale="   55.247">  1  6  2 -1</clus>
<clus scale="  113.596">  2  4  1 -1</clus>
<clus scale="  113.596">  2  3  1 -1</clus>
</clustering>
</event>
<event>
 6    0  0.4945982E+002  0.1055005E+03  0.7546771E-02  0.1269137E+00
         21   -1    0    0  503  502  0.00000000000E+00  0.00000000000E+00  0.52391478276E+03  0.52391478276E+03  0.00000000000E+00 0.  1.
          2   -1    0    0  504    0 -0.00000000000E+00 -0.00000000000E+00 -0.15364300376E+04  0.15364300376E+04  0.00000000000E+00 0. -1.
         21    1    1    2  503  505  0.20590056723E+02 -0.59482880903E+02  0.84219126032E+02  0.10514287777E+03  0.00000000000E+00 0.  1.
         21    1    1    2  504  502 -0.62943029279E+02 -0.50909897590E+02  0.37387052286E+03  0.38253471800E+03  0.00000000000E+00 0.  1.
         21    1    1    2  505  501  0.11144488552E+02  0.97640103853E+02  0.33458167596E+01  0.98330992039E+02  0.00000000000E+00 0.  1.
          2    1    1    2  501    0  0.31208484005E+02  0.12752674641E+02 -0.14739507205E+04  0.14743362326E+04  0.00000000000E+00 0. -1.
<scales pt_clust_3="62.89092" pt_clust_4="14000.00000" pt_clust_5="105.50049" pt_clust_6="33.71350"></scales>
<clustering>
<clus scale="   33.714">  2  6  1 -1</clus>
<clus scale="   62.891">  1  3  2 -1</clus>
<clus scale="  105.500">  2  5  1 -1</clus>
<clus scale="   62.891">  1  3  2 -1</clus>
</clustering>
</event>
<event>
 6    0  0.4945982E+002  0.8858587E+02  0.7546771E-02  0.1306313E+00
          1   -1    0    0  504    0 -0.00000000000E+00  0.00000000000E+00  0.66287119789E+03  0.66287119789E+03  0.00000000000E+00 0.  1.
         21   -1    0    0  503  502  0.00000000000E+00 -0.00000000000E+00 -0.24410193953E+03  0.24410193953E+03  0.00000000000E+00 0. -1.
         21    1    1    2  503  501  0.11636007651E+02  0.73842842121E+02  0.41733867708E+02  0.85614705048E+02  0.00000000000E+00 0. -1.
         21    1    1    2  504  505 -0.45496835723E+02  0.30418145293E+02  0.55414718622E+02  0.77884636892E+02  0.00000000000E+00 0. -1.
         21    1    1    2  505  502  0.69283348341E+02 -0.64328501580E+01 -0.19990631790E+03  0.21166978966E+03  0.00000000000E+00 0. -1.
          1    1    1    2  501    0 -0.35422520269E+02 -0.97828137256E+02  0.52152698993E+03  0.53180400582E+03  0.00000000000E+00 0.  1.
<scales pt_clust_3="88.58587" pt_clust_4="54.72865" pt_clust_5="69.10718" pt_clust_6="14000.00000"></scales>
<clustering>
<clus scale="   54.729">  1  4  2 -1</clus>
<clus scale="   69.107">  2  5  1 -1</clus>
<clus scale="   88.586">  2  3  1 -1</clus>
<clus scale="   69.107">  2  3  1 -1</clus>
</clustering>
</event>
<event>
 6    0  0.4945982E+002  0.7031467E+02  0.7546771E-02  0.1359026E+00
          1   -1    0    0  505    0 -0.00000000000E+00  0.00000000000E+00  0.40165805833E+04  0.40165805833E+04  0.00000000000E+00 0.  1.
         21   -1    0    0  503  502  0.00000000000E+00 -0.00000000000E+00 -0.28994059983E+02  0.28994059983E+02  0.00000000000E+00 0. -1.
         21    1    1    2  503  504  0.35401751398E+02 -0.30975310499E+01 -0.23383860742E+01  0.35613856153E+02  0.00000000000E+00 0. -1.
         21    1    1    2  504  501 -0.48554414426E+02 -0.40686210112E+02  0.50213253896E+03  0.50611262140E+03  0.00000000000E+00 0. -1.
         21    1    1    2  505  502 -0.40103681380E+02  0.88342570589E+02  0.29996302612E+03  0.31526263984E+03  0.00000000000E+00 0. -1.
          1    1    1    2  501    0  0.53256344409E+02 -0.44558829426E+02  0.31878293443E+04  0.31885855259E+04  0.00000000000E+00 0.  1.
<scales pt_clust_3="35.53700" pt_clust_4="58.56524" pt_clust_5="70.31467" pt_clust_6="14000.00000"></scales>
<clustering>
<clus scale="   35.537">  2  3  1 -1</clus>
<clus scale="   58.565">  2  4  1 -1</clus>
<clus scale="   70.315">  2  5  1 -1</clus>
<clus scale="   35.537">  2  3  1 -1</clus>
</clustering>
</event>
<event>
 6    0  0.4945982E+002  0.3241322E+03  0.7546771E-02  0.1073763E+00
         21   -1    0    0  504  502  0.00000000000E+00  0.00000000000E+00  0.32806260576E+03  0.32806260576E+03  0.00000000000E+00 0.  1.
          1   -1    0    0  503    0 -0.00000000000E+00 -0.00000000000E+00 -0.74094771407E+03  0.74094771407E+03  0.00000000000E+00 0. -1.
         21    1    1    2  503  505  0.67046483014E+02 -0.13227571385E+03 -0.33622519554E+02  0.15206107056E+03  0.00000000000E+00 0. -1.
         21    1    1    2  504  501 -0.19074175134E+03  0.20196314786E+03  0.12216051498E+02  0.27806610853E+03  0.00000000000E+00 0. -1.
         21    1    1    2  505  502  0.16427949499E+03 -0.16975022767E+03 -0.35988027086E+01  0.23625376960E+03  0.00000000000E+00 0.  1.
          1    1    1    2  501    0 -0.40584226668E+02  0.10006279367E+03 -0.38787983755E+03  0.40262937114E+03  0.00000000000E+00 0. -1.
<scales pt_clust_3="54.15466" pt_clust_4="316.84389" pt_clust_5="54.15466" pt_clust_6="107.97982"></scales>
<clustering>
<clus scale="   54.155">  3  5 -1 -1</clus>
<clus scale="  107.980">  2  6  1 -1</clus>
<clus scale="  316.844">  1  4  2 -1</clus>
<clus scale="  316.844">  1  3  2 -1</clus>
</clustering>
</event>
<event>
 6    0  0.4945982E+002  0.1156462E+03  0.7546771E-02  0.1250457E+00
         21   -1    0    0  503  502  0.00000000000E+00  0.00000000000E+00  0.53573385971E+02  0.53573385971E+02  0.00000000000E+00 0. -1.
          1   -1    0    0  504    0 -0.00000000000E+00 -0.00000000000E+00 -0.11726519786E+04  0.11726519786E+04  0.00000000000E+00 0.  1.
         21    1    1    2  503  505  0.81740286745E+02 -0.33572763852E+01 -0.17407167909E+03  0.19233745148E+03  0.00000000000E+00 0. -1.
         21    1    1    2  504  502 -0.48618046537E+02 -0.28377687318E+02 -0.12464120581E+03  0.13676416845E+03  0.00000000000E+00 0. -1.
         21    1    1    2  505  501 -0.10536834884E+02  0.14215207203E+03 -0.11594194034E+03  0.18374104061E+03  0.00000000000E+00 0. -1.
          1    1    1    2  501    0 -0.22585405324E+02 -0.11041710833E+03 -0.70442376736E+03  0.71338270401E+03  0.00000000000E+00 0.  1.
<scales pt_clust_3="72.92912" pt_clust_4="56.29394" pt_clust_5="14000.00000" pt_clust_6="115.64621"></scales>
<clustering>
<clus scale="   56.294">  1  4  2 -1</clus>
<clus scale="   72.929">  1  3  2 -1</clus>
<clus scale="  115.646">  2  6  1 -1</clus>
<clus scale="   56.294">  1  3  2 -1</clus>
</clustering>
</event>
<event>
 6    0  0.4945982E+002  0.1425183E+03  0.7546771E-02  0.1209980E+00
         21   -1    0    0  505  502  0.00000000000E+00  0.00000000000E+00  0.25958113103E+03  0.25958113103E+03  0.00000000000E+00 0. -1.
          2   -1    0    0  504    0 -0.00000000000E+00 -0.00000000000E+00 -0.14698014676E+04  0.14698014676E+04  0.00000000000E+00 0. -1.
         21    1    1    2  503  501 -0.47090626103E+02  0.41717994681E+02  0.18389605432E+03  0.19435965873E+03  0.00000000000E+00 0. -1.
         21    1    1    2  504  502 -0.39789617934E+02  0.33053590759E+02 -0.45712415040E+02  0.69031720580E+02  0.00000000000E+00 0.  1.
         21    1    1    2  505  503  0.32910102443E+02  0.58976845992E+02  0.34325628860E+02  0.75760095054E+02  0.00000000000E+00 0. -1.
          2    1    1    2  501    0  0.53970141593E+02 -0.13374843143E+03 -0.13827296048E+04  0.13902311243E+04  0.00000000000E+00 0. -1.
<scales pt_clust_3="142.51833" pt_clust_4="51.72769" pt_clust_5="70.55055" pt_clust_6="14000.00000"></scales>
<clustering>
<clus scale="   51.728">  1  4  2 -1</clus>
<clus scale="   70.551">  1  5  2 -1</clus>
<clus scale="  142.518">  1  3  2 -1</clus>
<clus scale="   51.728">  1  3  2 -1</clus>
</clustering>
</event>
<event>
 6    0  0.4945982E+002  0.1443624E+03  0.7546771E-02  0.1207577E+00
         21   -1    0    0  505  502  0.00000000000E+00  0.00000000000E+00  0.12059090621E+03  0.12059090621E+03  0.00000000000E+00 0.  1.
          1   -1    0    0  504    0 -0.00000000000E+00 -0.00000000000E+00 -0.24303988309E+04  0.24303988309E+04  0.00000000000E+00 0. -1.
         21    1    1    2  503  501  0.53725309781E+02  0.21153085353E+02  0.42351965408E+02  0.71606919392E+02  0.00000000000E+00 0.  1.
         21    1    1    2  504  502 -0.25961082378E+02  0.47066424477E+02 -0.37512829634E+02  0.65547223423E+02  0.00000000000E+00 0.  1.
         21    1    1    2  505  503  0.21897535154E+02  0.58101425230E+02  0.27393495214E+02  0.67865169562E+02  0.00000000000E+00 0.  1.
          1    1    1    2  501    0 -0.49661762556E+02 -0.12632093506E+03 -0.23420405556E+04  0.23459704247E+04  0.00000000000E+00 0. -1.
<scales pt_clust_3="49.05692" pt_clust_4="53.75152" pt_clust_5="49.05692" pt_clust_6="135.10202"></scales>
<clustering>
<clus scale="   49.057">  3  5 -1 -1</clus>
<clus scale="   53.752">  1  4  2 -1</clus>
<clus scale="  135.102">  2  6  1 -1</clus>
<clus scale="   53.752">  1  3  2 -1</clus>
</clustering>
</event>
<event>
 6    0  0.4945982E+002  0.6444239E+02  0.7546771E-02  0.1380081E+00
         21   -1    0    0  503  502  0.00000000000E+00  0.00000000000E+00  0.43419888810E+03  0.43419888810E+03  0.00000000000E+00 0.  1.
          2   -1    0    0  505    0 -0.00000000000E+00 -0.00000000000E+00 -0.79237710514E+03  0.79237710514E+03  0.00000000000E+00 0. -1.
         21    1    1    2  503  501 -0.82826279268E+02  0.27680251728E+02  0.77515900821E+02  0.11676944700E+03  0.00000000000E+00 0.  1.
         21    1    1    2  504  502  0.34076438745E+02 -0.53208280500E+02  0.28247713826E+03  0.28945752440E+03  0.00000000000E+00 0.  1.
         21    1    1    2  505  504  0.42115453264E+02  0.68849836329E+02  0.18149631342E+02  0.82724968927E+02  0.00000000000E+00 0.  1.
          2    1    1    2  501    0  0.66343872594E+01 -0.43321807557E+02 -0.73632088747E+03  0.73762405291E+03  0.00000000000E+00 0. -1.
<scales pt_clust_3="14000.00000" pt_clust_4="64.44239" pt_clust_5="63.36868" pt_clust_6="43.82687"></scales>
<clustering>
<clus scale="   43.827">  2  6  1 -1</clus>
<clus scale="   63.369">  2  5  1 -1</clus>
<clus scale="   64.442">  1  4  2 -1</clus>
<clus scale="   64.442">  1  3  2 -1</clus>
</clustering>
</event>
<event>
 6    0  0.4945982E+002  0.1004119E+03  0.7546771E-02  0.1279432E+00
          1   -1    0    0  504    0 -0.00000000000E+00  0.00000000000E+00  0.97889426798E+03  0.97889426798E+03  0.00000000000E+00 0.  1.
         21   -1    0    0  503  502  0.00000000000E+00 -0.00000000000E+00 -0.20719015494E+03  0.20719015494E+03  0.00000000000E+00 0.  1.
         21    1    1    2  503  501 -0.25617656993E+02  0.42546571438E+02 -0.51245391212E+02  0.71362211368E+02  0.00000000000E+00 0. -1.
         21    1    1    2  504  505 -0.14925840733E+03  0.49013072951E+02  0.14788725550E+02  0.15779435947E+03  0.00000000000E+00 0.  1.
         21    1    1    2  505  502  0.90669863322E+02 -0.40839815132E+02 -0.36974800426E+02  0.10609453559E+03  0.00000000000E+00 0.  1.
          1    1    1    2  501    0  0.84206200996E+02 -0.50719829258E+02  0.84513557912E+03  0.85083331650E+03  0.00000000000E+00 0.  1.
<scales pt_clust_3="49.66362" pt_clust_4="100.41188" pt_clust_5="80.62264" pt_clust_6="14000.00000"></scales>
<clustering>
<clus scale="   49.664">  2  3  1 -1</clus>
<clus scale="   80.623">  2  5  1 -1</clus>
<clus scale="  100.412">  2  4  1 -1</clus>
<clus scale="   49.664">  2  3  1 -1</clus>
</clustering>
</event>
<event>
 6    0  0.4945982E+002  0.2615793E+03  0.7546771E-02  0.1106198E+00
         21   -1    0    0  505  502  0.00000000000E+00  0.00000000000E+00  0.24056315543E+03  0.24056315543E+03  0.00000000000E+00 0.  1.
          1   -1    0    0  504    0 -0.00000000000E+00 -0.00000000000E+00 -0.53851825849E+03  0.53851825849E+03  0.00000000000E+00 0. -1.
         21    1    1    2  503  501  0.12141842386E+03 -0.13274123727E+03  0.24361215077E+02  0.18153825637E+03  0.00000000000E+00 0.  1.
         21    1    1    2  504  502  0.63370486541E+02 -0.15957183518E+02 -0.46531664733E+02  0.80222478727E+02  0.00000000000E+00 0.  1.
         21    1    1    2  505  503  0.55656367748E+02 -0.32218903966E+02  0.44232927156E+02  0.78052808331E+02  0.00000000000E+00 0.  1.
          1    1    1    2  501    0 -0.24044527815E+03  0.18091732476E+03 -0.32001758057E+03  0.43926787050E+03  0.00000000000E+00 0. -1.
<scales pt_clust_3="38.35417" pt_clust_4="65.34868" pt_clust_5="38.35417" pt_clust_6="253.59162"></scales>
<clustering>
<clus scale="   38.354">  3  5 -1 -1</clus>
<clus scale="   65.349">  2  4  1 -1</clus>
<clus scale="  253.592">  2  6  1 -1</clus>
<clus scale="  261.579">  1  3  2 -1</clus>
</clustering>
</event>
<event>
 6    0  0.4945982E+002  0.1788629E+03  0.7546771E-02  0.1168908E+00
         21   -1    0    0  505  502  0.00000000000E+00  0.00000000000E+00  0.12742927862E+04  0.12742927862E+04  0.00000000000E+00 0. -1.
         -2   -1    0    0    0  501 -0.00000000000E+00 -0.00000000000E+00 -0.53438169971E+03  0.53438169971E+03  0.00000000000E+00 0. -1.
         21    1    1    2  503  502  0.32725477103E+02 -0.18706124835E+03  0.49885329691E+03  0.53377661931E+03  0.00000000000E+00 0. -1.
         21    1    1    2  504  503  0.90802149804E+02  0.23429523300E+03  0.19019768885E+03  0.31514194811E+03  0.00000000000E+00 0. -1.
         21    1    1    2  505  501  0.12808715590E+02  0.35566118328E+02  0.49056149740E+03  0.49201584802E+03  0.00000000000E+00 0.  1.
         -2    1    1    2    0  504 -0.13633634250E+03 -0.82800102978E+02 -0.43970139665E+03  0.46774007050E+03  0.00000000000E+00 0. -1.
<scales pt_clust_3="14000.00000" pt_clust_4="178.86287" pt_clust_5="37.80227" pt_clust_6="158.98405"></scales>
<clustering>
<clus scale="   37.802">  1  5  2 -1</clus>
<clus scale="  158.984">  2  6  1 -1</clus>
<clus scale="  178.863">  2  4  1 -1</clus>
<clus scale="   37.802">  1  3  2 -1</clus>
</clustering>
</event>
<event>
 6    0  0.4945982E+002  0.1382121E+03  0.7546771E-02  0.1215755E+00
         -2   -1    0    0    0  501 -0.00000000000E+00  0.00000000000E+00  0.13051328569E+03  0.13051328569E+03  0.00000000000E+00 0.  1.
         21   -1    0    0  501  502  0.00000000000E+00 -0.00000000000E+00 -0.76323683470E+03  0.76323683470E+03  0.00000000000E+00 0.  1.
         21    1    1    2  503  502 -0.28367735489E+02 -0.33947489838E+02 -0.20547188782E+03  0.21018053471E+03  0.00000000000E+00 0.  1.
         21    1    1    2  504  505  0.31127367374E+02 -0.40413390252E+02 -0.12752493629E+03  0.13734906075E+03  0.00000000000E+00 0.  1.
         21    1    1    2  505  503  0.65706483117E+02 -0.35474788910E+02 -0.38438088686E+03  0.39156668494E+03  0.00000000000E+00 0.  1.
         -2    1    1    2    0  504 -0.68466115002E+02  0.10983566900E+03  0.84654161969E+02  0.15465384000E+03  0.00000000000E+00 0.  1.
<scales pt_clust_3="44.23981" pt_clust_4="41.88851" pt_clust_5="41.88851" pt_clust_6="128.58503"></scales>
<clustering>
<clus scale="   41.889">  4  5 -1 -1</clus>
<clus scale="   44.240">  2  3  1 -1</clus>
<clus scale="  128.585">  1  6  2 -1</clus>
<clus scale="   44.240">  2  3  1 -1</clus>
</clustering>
</event>
<event>
 6    0  0.4945982E+002  0.1188980E+03  0.7546771E-02  0.1244926E+00
         21   -1    0    0  504  502  0.00000000000E+00  0.00000000000E+00  0.10302675739E+03  0.10302675739E+03  0.00000000000E+00 0. -1.
          2   -1    0    0  503    0 -0.00000000000E+00 -0.00000000000E+00 -0.76263987340E+03  0.76263987340E+03  0.00000000000E+00 0. -1.
         21    1    1    2  503  505  0.85148745561E+02  0.11072693979E+02 -0.38498158861E+02  0.94101124639E+02  0.00000000000E+00 0. -1.
         21    1    1    2  504  501 -0.90083764180E+02 -0.54599266522E+02 -0.91525753207E+01  0.10573520752E+03  0.00000000000E+00 0. -1.
         21    1    1    2  505  502  0.33302765101E+02  0.92980852137E+00  0.15174395160E+02  0.36608755452E+02  0.00000000000E+00 0.  1.
          2    1    1    2  501    0 -0.28367746482E+02  0.42596764022E+02 -0.62713677699E+03  0.62922154318E+03  0.00000000000E+00 0. -1.
<scales pt_clust_3="30.30021" pt_clust_4="108.49189" pt_clust_5="30.30021" pt_clust_6="51.17825"></scales>
<clustering>
<clus scale="   30.300">  3  5 -1 -1</clus>
<clus scale="   51.178">  2  6  1 -1</clus>
<clus scale="  108.492">  1  4  2 -1</clus>
<clus scale="  108.492">  1  3  2 -1</clus>
</clustering>
</event>
<event>
 6    0  0.4945982E+002  0.1714617E+03  0.7546771E-02  0.1176332E+00
          2   -1    0    0  503    0 -0.00000000000E+00  0.00000000000E+00  0.64760552823E+03  0.64760552823E+03  0.00000000000E+00 0.  1.
         21   -1    0    0  501  502  0.00000000000E+00 -0.00000000000E+00 -0.33309537275E+03  0.33309537275E+03  0.00000000000E+00 0.  1.
         21    1    1    2  503  504 -0.12491208995E+03 -0.31813340526E+02  0.11656044888E+03  0.17378566423E+03  0.00000000000E+00 0.  1.
         21    1    1    2  504  505  0.32665192020E+02  0.15891336187E+03 -0.23469503939E+03  0.28531076542E+03  0.00000000000E+00 0.  1.
         21    1    1    2  505  502  0.34703160409E+02  0.73542542618E+01 -0.23523810425E+02  0.42564821803E+02  0.00000000000E+00 0.  1.
          2    1    1    2  501    0  0.57543737517E+02 -0.13445427560E+03  0.45616855641E+03  0.47903964952E+03  0.00000000000E+00 0.  1.
<scales pt_clust_3="125.51975" pt_clust_4="14000.00000" pt_clust_5="35.47386" pt_clust_6="171.46174"></scales>
<clustering>
<clus scale="   35.474">  2  5  1 -1</clus>
<clus scale="  125.520">  1  3  2 -1</clus>
<clus scale="  171.462">  1  6  2 -1</clus>
<clus scale="   35.474">  2  3  1 -1</clus>
</clustering>
</event>
<event>
 6    0  0.4945982E+002  0.1580220E+03  0.7546771E-02  0.1190948E+00
          2   -1    0    0  503    0 -0.00000000000E+00  0.00000000000E+00  0.48152216379E+03  0.48152216379E+03  0.00000000000E+00 0.  1.
         21   -1    0    0  504  502  0.00000000000E+00 -0.00000000000E+00 -0.28590230125E+03  0.28590230125E+03  0.00000000000E+00 0. -1.
         21    1    1    2  503  505 -0.95710968803E+01  0.48713681405E+02 -0.90924239736E+02  0.10359462352E+03  0.00000000000E+00 0. -1.
         21    1    1    2  504  501 -0.46423081443E+02  0.35793140476E+02 -0.46337745491E+01  0.58802408644E+02  0.00000000000E+00 0.  1.
         21    1    1    2  505  502 -0.44569932504E+02  0.34940965224E+02 -0.13754892207E+03  0.14875165846E+03  0.00000000000E+00 0. -1.
          2    1    1    2  501    0  0.10056411083E+03 -0.11944778710E+03  0.42872679889E+03  0.45627577442E+03  0.00000000000E+00 0.  1.
<scales pt_clust_3="36.85279" pt_clust_4="58.61955" pt_clust_5="36.85279" pt_clust_6="153.04133"></scales>
<clustering>
<clus scale="   36.853">  3  5 -1 -1</clus>
<clus scale="   58.620">  2  4  1 -1</clus>
<clus scale="  153.041">  1  6  2 -1</clus>
<clus scale="   58.620">  2  3  1 -1</clus>
</clustering>
</event>
<event>
 6    0  0.4945982E+002  0.1803170E+03  0.7546771E-02  0.1167497E+00
         -3   -1    0    0    0  501 -0.00000000000E+00  0.00000000000E+00  0.14696479210E+03  0.14696479210E+03  0.00000000000E+00 0. -1.
         21   -1    0    0  503  502  0.00000000000E+00 -0.00000000000E+00 -0.87804173833E+03  0.87804173833E+03  0.00000000000E+00 0. -1.
         21    1    1    2  503  501  0.20021330115E+02 -0.44811412469E+02 -0.44353749969E+02  0.66152637765E+02  0.00000000000E+00 0. -1.
         21    1    1    2  504  502  0.18836308487E+01  0.43749226545E+02 -0.15120343981E+03  0.15741671798E+03  0.00000000000E+00 0.  1.
         21    1    1    2  505  504 -0.18931582962E+03 -0.60159998817E+02 -0.58387458257E+03  0.61674081831E+03  0.00000000000E+00 0. -1.
         -3    1    1    2    0  505  0.16741086866E+03  0.61222184741E+02  0.48354826110E+02  0.18469635637E+03  0.00000000000E+00 0. -1.
<scales pt_clust_3="46.11408" pt_clust_4="43.78976" pt_clust_5="14000.00000" pt_clust_6="180.31704"></scales>
<clustering>
<clus scale="   43.790">  2  4  1 -1</clus>
<clus scale="   46.114">  2  3  1 -1</clus>
<clus scale="  180.317">  1  6  2 -1</clus>
<clus scale="   43.790">  2  3  1 -1</clus>
</clustering>
</event>
<event>
 6    0  0.4945982E+002  0.5534144E+02  0.7546771E-02  0.1418491E+00
         21   -1    0    0  504  502  0.00000000000E+00  0.00000000000E+00  0.68309380519E+02  0.68309380519E+02  0.00000000000E+00 0.  1.
         -1   -1    0    0    0  501 -0.00000000000E+00 -0.00000000000E+00 -0.55120261711E+03  0.55120261711E+03  0.00000000000E+00 0. -1.
         21    1    1    2  503  501  0.20641722060E+02  0.71987281297E+02 -0.21432980687E+03  0.22703637477E+03  0.00000000000E+00 0. -1.
         21    1    1    2  504  503  0.21007124138E+02  0.44535210262E+02  0.16955162480E+02  0.52078419258E+02  0.00000000000E+00 0.  1.
         21    1    1    2  505  502 -0.13770865621E+02 -0.77304209473E+02 -0.36175277143E+02  0.86453618886E+02  0.00000000000E+00 0. -1.
         -1    1    1    2    0  505 -0.27877980577E+02 -0.39218282086E+02 -0.24934331506E+03  0.25394358471E+03  0.00000000000E+00 0. -1.
<scales pt_clust_3="43.09558" pt_clust_4="55.34144" pt_clust_5="14000.00000" pt_clust_6="48.11710"></scales>
<clustering>
<clus scale="   48.117">  2  6  1 -1</clus>
<clus scale="   43.096">  2  3  1 -1</clus>
<clus scale="   55.341">  1  4  2 -1</clus>
<clus scale="   55.341">  1  3  2 -1</clus>
</clustering>
</event>
<event>
 6    0  0.4945982E+002  0.6975706E+02  0.7546771E-02  0.1360921E+00
          2   -1    0    0  505    0 -0.00000000000E+00  0.00000000000E+00  0.23570596658E+04  0.23570596658E+04  0.00000000000E+00 0.  1.
         21   -1    0    0  504  502  0.00000000000E+00 -0.00000000000E+00 -0.18542468527E+02  0.18542468527E+02  0.00000000000E+00 0.  1.
         21    1    1    2  503  502 -0.54523420961E+02  0.40658675913E+02  0.26090708647E+03  0.26962648077E+03  0.00000000000E+00 0.  1.
         21    1    1    2  504  501  0.21997157740E+02 -0.72590314554E+02  0.14065786376E+03  0.15980570501E+03  0.00000000000E+00 0.  1.
         21    1    1    2  505  503  0.51641737156E+02  0.58360672809E+02  0.33729641688E+03  0.34618161416E+03  0.00000000000E+00 0.  1.
          2    1    1    2  501    0 -0.19115473935E+02 -0.26429034169E+02  0.15996558301E+04  0.15999883343E+04  0.00000000000E+00 0.  1.
<scales pt_clust_3="69.75706" pt_clust_4="14000.00000" pt_clust_5="63.29568" pt_clust_6="32.61741"></scales>
<clustering>
<clus scale="   32.617">  1  6  2 -1</clus>
<clus scale="   63.296">  1  5  2 -1</clus>
<clus scale="   69.757">  1  3  2 -1</clus>
<clus scale="   69.757">  2  3  1 -1</clus>
</clustering>
</event>
<event>
 6    0  0.4945982E+002  0.7693726E+02  0.7546771E-02  0.1337975E+00
         21   -1    0    0  501  502  0.00000000000E+00  0.00000000000E+00  0.19991442495E+04  0.19991442495E+04  0.00000000000E+00 0.  1.
          3   -1    0    0  503    0 -0.00000000000E+00 -0.00000000000E+00 -0.25175634690E+03  0.25175634690E+03  0.00000000000E+00 0.  1.
         21    1    1    2  503  504  0.47871162915E+02  0.11121240090E+03  0.98371834289E+02  0.15600276964E+03  0.00000000000E+00 0. -1.
         21    1    1    2  504  505  0.25317260286E+02 -0.83736962803E+02  0.10632364124E+04  0.10668291856E+04  0.00000000000E+00 0.  1.
         21    1    1    2  505  502 -0.63359291972E+02  0.21330337759E+02  0.80271484578E+03  0.80549395207E+03  0.00000000000E+00 0.  1.
          3    1    1    2  501    0 -0.98291312292E+01 -0.48805775859E+02 -0.21693518992E+03  0.22257468904E+03  0.00000000000E+00 0.  1.
<scales pt_clust_3="76.93726" pt_clust_4="14000.00000" pt_clust_5="66.61630" pt_clust_6="49.78570"></scales>
<clustering>
<clus scale="   49.786">  2  6  1 -1</clus>
<clus scale="   66.616">  1  5  2 -1</clus>
<clus scale="   76.937">  2  3  1 -1</clus>
<clus scale="   66.616">  1  3  2 -1</clus>
</clustering>
</event>
<event>
 6    0  0.4945982E+002  0.1904003E+03  0.7546771E-02  0.1158101E+00
          1   -1    0    0  503    0 -0.00000000000E+00  0.00000000000E+00  0.20299751307E+04  0.20299751307E+04  0.00000000000E+00 0.  1.
         21   -1    0    0  505  502  0.00000000000E+00 -0.00000000000E+00 -0.53620799488E+03  0.53620799488E+03  0.00000000000E+00 0. -1.
         21    1    1    2  503  502  0.18372004619E+03  0.15735592418E+03 -0.34980730090E+03  0.42529882437E+03  0.00000000000E+00 0. -1.
         21    1    1    2  504  501 -0.14991015214E+03 -0.14373473441E+03  0.15226722984E+03  0.25752288612E+03  0.00000000000E+00 0.  1.
         21    1    1    2  505  504 -0.16256732920E+02 -0.88160479960E+02 -0.74092013961E+02  0.11630209854E+03  0.00000000000E+00 0.  1.
          1    1    1    2  501    0 -0.17553161130E+02  0.74539290190E+02  0.17653992208E+04  0.17670593165E+04  0.00000000000E+00 0.  1.
<scales pt_clust_3="14000.00000" pt_clust_4="190.40027" pt_clust_5="84.07185" pt_clust_6="76.57819"></scales>
<clustering>
<clus scale="   76.578">  1  6  2 -1</clus>
<clus scale="   84.072">  2  5  1 -1</clus>
<clus scale="  190.400">  1  4  2 -1</clus>
<clus scale="   84.072">  2  3  1 -1</clus>
</clustering>
</event>
<event>
 6    0  0.4945982E+002  0.1041419E+03  0.7546771E-02  0.1271820E+00
         21   -1    0    0  504  502  0.00000000000E+00  0.00000000000E+00  0.65216228053E+03  0.65216228053E+03  0.00000000000E+00 0. -1.
         -1   -1    0    0    0  501 -0.00000000000E+00 -0.00000000000E+00 -0.47120841174E+03  0.47120841174E+03  0.00000000000E+00 0.  1.
         21    1    1    2  503  505 -0.11014555676E+03  0.38647344497E+02 -0.60957978461E+02  0.13168726608E+03  0.00000000000E+00 0.  1.
         21    1    1    2  504  501  0.44670652091E+02 -0.46902007838E+02  0.59919685298E+02  0.88236240761E+02  0.00000000000E+00 0. -1.
         21    1    1    2  505  502  0.61577432627E+02  0.54412233520E+02  0.53810053155E+03  0.54433873040E+03  0.00000000000E+00 0. -1.
         -1    1    1    2    0  503  0.38974720394E+01 -0.46157570179E+02 -0.35610836959E+03  0.35910845502E+03  0.00000000000E+00 0.  1.
<scales pt_clust_3="104.14193" pt_clust_4="69.36587" pt_clust_5="14000.00000" pt_clust_6="46.32183"></scales>
<clustering>
<clus scale="   46.322">  2  6  1 -1</clus>
<clus scale="   69.366">  1  4  2 -1</clus>
<clus scale="  104.142">  2  3  1 -1</clus>
<clus scale="   69.366">  1  3  2 -1</clus>
</clustering>
</event>
<event>
 6    0  0.4945982E+002  0.1695258E+03  0.7546771E-02  0.1178343E+00
         -2   -1    0    0    0  501 -0.00000000000E+00  0.00000000000E+00  0.15005550591E+03  0.15005550591E+03  0.00000000000E+00 0.  1.
         21   -1    0    0  503  502  0.00000000000E+00 -0.00000000000E+00 -0.57128295724E+03  0.57128295724E+03  0.00000000000E+00 0.  1.
         21    1    1    2  503  501 -0.54680375205E+02 -0.37259012273E+02 -0.59981597215E+02  0.89308283113E+02  0.00000000000E+00 0.  1.
         21    1    1    2  504  502 -0.12485954288E+02  0.57002925526E+02 -0.19755166651E+03  0.20599003256E+03  0.00000000000E+00 0.  1.
         21    1    1    2  505  504 -0.60339403138E+02  0.85488047624E+02 -0.22625257575E+03  0.24927751180E+03  0.00000000000E+00 0.  1.
         -2    1    1    2    0  505  0.12750573263E+03 -0.10523196088E+03  0.62558388150E+02  0.17676263568E+03  0.00000000000E+00 0.  1.
<scales pt_clust_3="66.16780" pt_clust_4="33.82254" pt_clust_5="33.82254" pt_clust_6="163.36374"></scales>
<clustering>
<clus scale="   33.823">  4  5 -1 -1</clus>
<clus scale="   66.168">  2  3  1 -1</clus>
<clus scale="  163.364">  1  6  2 -1</clus>
<clus scale="   66.168">  2  3  1 -1</clus>
</clustering>
</event>
<event>
 6    0  0.4945982E+002  0.1823367E+03  0.7546771E-02  0.1165561E+00
         21   -1    0    0  505  502  0.00000000000E+00  0.00000000000E+00  0.33661472719E+04  0.33661472719E+04  0.00000000000E+00 0. -1.
          1   -1    0    0  503    0 -0.00000000000E+00 -0.00000000000E+00 -0.24417393306E+04  0.24417393306E+04  0.00000000000E+00 0.  1.
         21    1    1    2  503  502 -0.33171476885E+02 -0.73023991205E+02  0.30331230674E+04  0.30341833155E+04  0.00000000000E+00 0. -1.
         21    1    1    2  504  501 -0.10455159022E+03  0.10538214877E+03  0.23965010349E+02  0.15036872686E+03  0.00000000000E+00 0.  1.
         21    1    1    2  505  504  0.22845594691E+03 -0.27898493088E+02  0.19026398351E+03  0.29861485063E+03  0.00000000000E+00 0. -1.
          1    1    1    2  501    0 -0.90732879801E+02 -0.44596644766E+01 -0.23229441198E+04  0.23247197095E+04  0.00000000000E+00 0.  1.
<scales pt_clust_3="80.20505" pt_clust_4="182.33672" pt_clust_5="14000.00000" pt_clust_6="90.94065"></scales>
<clustering>
<clus scale="   80.205">  1  3  2 -1</clus>
<clus scale="   90.941">  2  6  1 -1</clus>
<clus scale="  182.337">  2  4  1 -1</clus>
<clus scale="   80.205">  1  3  2 -1</clus>
</clustering>
</event>
<event>
 6    0  0.4945982E+002  0.1425611E+03  0.7546771E-02  0.1209924E+00
          2   -1    0    0  503    0 -0.00000000000E+00  0.00000000000E+00  0.13926838743E+04  0.13926838743E+04  0.00000000000E+00 0. -1.
         21   -1    0    0  505  502  0.00000000000E+00 -0.00000000000E+00 -0.52806118309E+03  0.52806118309E+03  0.00000000000E+00 0. -1.
         21    1    1    2  503  502 -0.15024268366E+03  0.26405929074E+02 -0.13072275458E+03  0.20089443907E+03  0.00000000000E+00 0. -1.
         21    1    1    2  504  501  0.11686185290E+03 -0.86290482964E+02 -0.18569091611E+03  0.23576228799E+03  0.00000000000E+00 0.  1.
         21    1    1    2  505  504 -0.31818584872E+02 -0.37408568928E+02 -0.14489654787E+03  0.15299291800E+03  0.00000000000E+00 0. -1.
          2    1    1    2  501    0  0.65199415634E+02  0.97293122818E+02  0.13259329097E+04  0.13310954123E+04  0.00000000000E+00 0. -1.
<scales pt_clust_3="142.56112" pt_clust_4="14000.00000" pt_clust_5="49.11032" pt_clust_6="116.78706"></scales>
<clustering>
<clus scale="   49.110">  2  5  1 -1</clus>
<clus scale="  116.787">  1  6  2 -1</clus>
<clus scale="  142.561">  1  3  2 -1</clus>
<clus scale="   49.110">  2  3  1 -1</clus>
</clustering>
</event>
<event>
 6    0  0.4945982E+002  0.1176701E+03  0.7546771E-02  0.1246991E+00
          3   -1    0    0  503    0 -0.00000000000E+00  0.00000000000E+00  0.29434769656E+04  0.29434769656E+04  0.00000000000E+00 0. -1.
         21   -1    0    0  505  502  0.00000000000E+00 -0.00000000000E+00 -0.14445813023E+03  0.14445813023E+03  0.00000000000E+00 0.  1.
         21    1    1    2  503  504 -0.49731089482E+02 -0.21185076478E+02  0.35177268437E+02  0.64493634889E+02  0.00000000000E+00 0.  1.
         21    1    1    2  504  502  0.41463456395E+02 -0.16637401164E+02 -0.43763496403E+02  0.62540106741E+02  0.00000000000E+00 0.  1.
         21    1    1    2  505  501  0.73017300890E+02  0.13538603800E+03  0.29972614544E+01  0.15385021641E+03  0.00000000000E+00 0.  1.
          3    1    1    2  501    0 -0.64749667803E+02 -0.97563560357E+02  0.28046078019E+04  0.28070511378E+04  0.00000000000E+00 0. -1.
<scales pt_clust_3="49.23953" pt_clust_4="44.67685" pt_clust_5="117.67006" pt_clust_6="14000.00000"></scales>
<clustering>
<clus scale="   44.677">  2  4  1 -1</clus>
<clus scale="   49.240">  2  3  1 -1</clus>
<clus scale="  117.670">  2  5  1 -1</clus>
<clus scale="   44.677">  2  3  1 -1</clus>
</clustering>
</event>
<event>
 6    0  0.4945982E+002  0.8615829E+02  0.7546771E-02  0.1312431E+00
          1   -1    0    0  505    0 -0.00000000000E+00  0.00000000000E+00  0.63274386578E+03  0.63274386578E+03  0.00000000000E+00 0.  1.
         21   -1    0    0  503  502  0.00000000000E+00 -0.00000000000E+00 -0.11113179468E+04  0.11113179468E+04  0.00000000000E+00 0.  1.
         21    1    1    2  503  504 -0.24287181882E+02  0.23408535440E+02 -0.57074113709E+03  0.57173706571E+03  0.00000000000E+00 0. -1.
         21    1    1    2  504  501  0.51342001725E+02  0.54624392863E+02 -0.23797220958E+03  0.24950069733E+03  0.00000000000E+00 0.  1.
         21    1    1    2  505  502  0.59055975987E+02 -0.69580093447E+02 -0.28622174067E+03  0.30041951091E+03  0.00000000000E+00 0.  1.
          1    1    1    2  501    0 -0.86110795830E+02 -0.84528348565E+01  0.61636100633E+03  0.62240453862E+03  0.00000000000E+00 0.  1.
<scales pt_clust_3="33.73169" pt_clust_4="86.15829" pt_clust_5="73.05796" pt_clust_6="14000.00000"></scales>
<clustering>
<clus scale="   33.732">  2  3  1 -1</clus>
<clus scale="   73.058">  2  5  1 -1</clus>
<clus scale="   86.158">  2  4  1 -1</clus>
<clus scale="   33.732">  2  3  1 -1</clus>
</clustering>
</event>
<event>
 6    0  0.4945982E+002  0.1462677E+03  0.7546771E-02  0.1205136E+00
         21   -1    0    0  505  502  0.00000000000E+00  0.00000000000E+00  0.70540203793E+03  0.70540203793E+03  0.00000000000E+00 0. -1.
          2   -1    0    0  503    0 -0.00000000000E+00 -0.00000000000E+00 -0.16482544467E+04  0.16482544467E+04  0.00000000000E+00 0. -1.
         21    1    1    2  503  502  0.17553236534E+03  0.51237214219E+02  0.41240474399E+03  0.45112585413E+03  0.00000000000E+00 0. -1.
         21    1    1    2  504  501 -0.52921404966E+02  0.14682692371E+02  0.25007465772E+02  0.60345918695E+02  0.00000000000E+00 0. -1.
         21    1    1    2  505  504 -0.19649789900E+02  0.37819485834E+02  0.22564640814E+03  0.22963608005E+03  0.00000000000E+00 0.  1.
          2    1    1    2  501    0 -0.10296117047E+03 -0.10373939242E+03 -0.16059110267E+04  0.16125486317E+04  0.00000000000E+00 0. -1.
<scales pt_clust_3="146.26767" pt_clust_4="57.58242" pt_clust_5="42.61957" pt_clust_6="14000.00000"></scales>
<clustering>
<clus scale="   42.620">  1  5  2 -1</clus>
<clus scale="   57.582">  1  4  2 -1</clus>
<clus scale="  146.268">  1  3  2 -1</clus>
<clus scale="   42.620">  1  3  2 -1</clus>
</clustering>
</event>
<event>
 6    0  0.4945982E+002  0.1096668E+03  0.7546771E-02  0.1261188E+00
         21   -1    0    0  504  502  0.00000000000E+00  0.00000000000E+00  0.32893276482E+03  0.32893276482E+03  0.00000000000E+00 0. -1.
          1   -1    0    0  505    0 -0.00000000000E+00 -0.00000000000E+00 -0.19307297552E+04  0.19307297552E+04  0.00000000000E+00 0. -1.
         21    1    1    2  503  501 -0.70149040830E+02  0.68044190564E+02  0.38822559847E+02  0.10515745790E+03  0.00000000000E+00 0. -1.
         21    1    1    2  504  503 -0.23812009711E+02 -0.22254567048E+02  0.14910110944E+03  0.15262181494E+03  0.00000000000E+00 0. -1.
         21    1    1    2  505  502  0.14616858046E+03  0.46468095718E+01  0.54623738231E+02  0.15611085654E+03  0.00000000000E+00 0. -1.
          1    1    1    2  501    0 -0.52207529917E+02 -0.50436433088E+02 -0.18443443979E+04  0.18457723906E+04  0.00000000000E+00 0. -1.
<scales pt_clust_3="14000.00000" pt_clust_4="32.59260" pt_clust_5="109.66683" pt_clust_6="72.72171"></scales>
<clustering>
<clus scale="   32.593">  1  4  2 -1</clus>
<clus scale="   72.722">  2  6  1 -1</clus>
<clus scale="  109.667">  2  5  1 -1</clus>
<clus scale="   32.593">  1  3  2 -1</clus>
</clustering>
</event>
<event>
 6    0  0.4945982E+002  0.1061972E+03  0.7546771E-02  0.1267779E+00
         -2   -1    0    0    0  501 -0.00000000000E+00  0.00000000000E+00  0.36236474061E+03  0.36236474061E+03  0.00000000000E+00 0. -1.
         21   -1    0    0  503  502  0.00000000000E+00 -0.00000000000E+00 -0.67772176062E+03  0.67772176062E+03  0.00000000000E+00 0.  1.
         21    1    1    2  503  504 -0.80406673316E+02  0.13330834407E+03 -0.19634970714E+03  0.25057844122E+03  0.00000000000E+00 0.  1.
         21    1    1    2  504  501  0.11434719904E+02 -0.75962027139E+02 -0.33374524269E+02  0.83754649164E+02  0.00000000000E+00 0.  1.
         21    1    1    2  505  502  0.66588890021E+02 -0.20092500868E+02 -0.39149296871E+03  0.39762360772E+03  0.00000000000E+00 0.  1.
         -2    1    1    2    0  505  0.23830633904E+01 -0.37253816062E+02  0.30586018010E+03  0.30812980313E+03  0.00000000000E+00 0. -1.
<scales pt_clust_3="106.19724" pt_clust_4="14000.00000" pt_clust_5="70.30297" pt_clust_6="37.32996"></scales>
<clustering>
<clus scale="   37.330">  1  6  2 -1</clus>
<clus scale="   70.303">  2  5  1 -1</clus>
<clus scale="  106.197">  2  3  1 -1</clus>
<clus scale="   70.303">  2  3  1 -1</clus>
</clustering>
</event>
<event>
 6    0  0.4945982E+002  0.1111562E+03  0.7546771E-02  0.1258444E+00
         -2   -1    0    0    0  501 -0.00000000000E+00  0.00000000000E+00  0.14062292113E+04  0.14062292113E+04  0.00000000000E+00 0.  1.
         21   -1    0    0  504  502  0.00000000000E+00 -0.00000000000E+00 -0.11495191838E+03  0.11495191838E+03  0.00000000000E+00 0.  1.
         21    1    1    2  503  501  0.95586323312E+01  0.40961020087E+02  0.16516195775E+02  0.45188022102E+02  0.00000000000E+00 0.  1.
         21    1    1    2  504  505  0.54565028636E+02  0.80249419144E+01 -0.59373353866E+02  0.81036641046E+02  0.00000000000E+00 0.  1.
         21    1    1    2  505  503 -0.39250000506E+02  0.49498677079E+02  0.65710268472E+01  0.63512675633E+02  0.00000000000E+00 0. -1.
         -2    1    1    2    0  502 -0.24873660461E+02 -0.98484639080E+02  0.13275634241E+04  0.13314437908E+04  0.00000000000E+00 0.  1.
<scales pt_clust_3="38.43171" pt_clust_4="55.15199" pt_clust_5="38.43171" pt_clust_6="100.68470"></scales>
<clustering>
<clus scale="   38.432">  3  5 -1 -1</clus>
<clus scale="   55.152">  2  4  1 -1</clus>
<clus scale="  100.685">  1  6  2 -1</clus>
<clus scale="   55.152">  2  3  1 -1</clus>
</clustering>
</event>
<event>
 6    0  0.4945982E+002  0.2404759E+03  0.7546771E-02  0.1119476E+00
          2   -1    0    0  503    0 -0.00000000000E+00  0.00000000000E+00  0.17976849343E+04  0.17976849343E+04  0.00000000000E+00 0. -1.
         21   -1    0    0  505  502  0.00000000000E+00 -0.00000000000E+00 -0.22859677031E+03  0.22859677031E+03  0.00000000000E+00 0.  1.
         21    1    1    2  503  504 -0.49219327703E+02  0.59869858228E+02  0.11602687189E+03  0.13953199326E+03  0.00000000000E+00 0.  1.
         21    1    1    2  504  502 -0.23496975403E+03 -0.66918769763E+02 -0.11821148693E+03  0.27140903208E+03  0.00000000000E+00 0.  1.
         21    1    1    2  505  501  0.21424725895E+03  0.22382038088E+02  0.53703434546E+03  0.57862659099E+03  0.00000000000E+00 0.  1.
          2    1    1    2  501    0  0.69941822774E+02 -0.15333126553E+02  0.10342384336E+04  0.10367140883E+04  0.00000000000E+00 0. -1.
<scales pt_clust_3="68.47641" pt_clust_4="14000.00000" pt_clust_5="240.47586" pt_clust_6="71.60282"></scales>
<clustering>
<clus scale="   71.603">  1  6  2 -1</clus>
<clus scale="   68.476">  1  3  2 -1</clus>
<clus scale="  240.476">  1  5  2 -1</clus>
<clus scale="  240.476">  2  3  1 -1</clus>
</clustering>
</event>
<event>
 6    0  0.4945982E+002  0.1751080E+03  0.7546771E-02  0.1172623E+00
          1   -1    0    0  504    0 -0.00000000000E+00  0.00000000000E+00  0.27014728071E+04  0.27014728071E+04  0.00000000000E+00 0.  1.
         21   -1    0    0  505  502  0.00000000000E+00 -0.00000000000E+00 -0.31572171393E+03  0.31572171393E+03  0.00000000000E+00 0. -1.
         21    1    1    2  503  501 -0.12946016959E+03  0.13755866806E+03 -0.83950849664E+02  0.20671252460E+03  0.00000000000E+00 0. -1.
         21    1    1    2  504  502  0.24324790891E+01 -0.47068648607E+02  0.28602300608E+02  0.55131354384E+02  0.00000000000E+00 0.  1.
         21    1    1    2  505  503 -0.40845152377E+02 -0.39895634835E+02 -0.14887493482E+03  0.15944821845E+03  0.00000000000E+00 0.  1.
          1    1    1    2  501    0  0.16787284288E+03 -0.50594384616E+02  0.25899745771E+04  0.25959024236E+04  0.00000000000E+00 0.  1.
<scales pt_clust_3="14000.00000" pt_clust_4="47.13146" pt_clust_5="75.16683" pt_clust_6="175.10799"></scales>
<clustering>
<clus scale="   47.131">  2  4  1 -1</clus>
<clus scale="   75.167">  2  5  1 -1</clus>
<clus scale="  175.108">  1  6  2 -1</clus>
<clus scale="   47.131">  2  3  1 -1</clus>
</clustering>
</event>
<event>
 6    0  0.4945982E+002  0.1174177E+03  0.7546771E-02  0.1247419E+00
          2   -1    0    0  504    0 -0.00000000000E+00  0.00000000000E+00  0.10063865173E+04  0.10063865173E+04  0.00000000000E+00 0.  1.
         21   -1    0    0  503  502  0.00000000000E+00 -0.00000000000E+00 -0.10069214074E+04  0.10069214074E+04  0.00000000000E+00 0.  1.
         21    1    1    2  503  505  0.10655731153E+03 -0.50157611141E+02 -0.95916840396E+03  0.96637170579E+03  0.00000000000E+00 0.  1.
         21    1    1    2  504  502 -0.47981183276E+02  0.36585488965E+00 -0.52808229875E+01  0.48272299404E+02  0.00000000000E+00 0.  1.
         21    1    1    2  505  501 -0.95207442788E+02  0.37661192723E+02  0.13792373018E+03  0.17177245980E+03  0.00000000000E+00 0. -1.
          2    1    1    2  501    0  0.36631314537E+02  0.12130563528E+02  0.82599060672E+03  0.82689145972E+03  0.00000000000E+00 0.  1.
<scales pt_clust_3="117.41771" pt_clust_4="43.64307" pt_clust_5="14000.00000" pt_clust_6="38.58761"></scales>
<clustering>
<clus scale="   38.588">  1  6  2 -1</clus>
<clus scale="   43.643">  1  4  2 -1</clus>
<clus scale="  117.418">  2  3  1 -1</clus>
<clus scale="  117.418">  2  3  1 -1</clus>
</clustering>
</event>
<event>
 6    0  0.4945982E+002  0.9671215E+02  0.7546771E-02  0.1287366E+00
         21   -1    0    0  503  502  0.00000000000E+00  0.00000000000E+00  0.68132529305E+02  0.68132529305E+02  0.00000000000E+00 0. -1.
          2   -1    0    0  502    0 -0.00000000000E+00 -0.00000000000E+00 -0.30942703460E+04  0.30942703460E+04  0.00000000000E+00 0. -1.
         21    1    1    2  503  505 -0.57761698291E+02 -0.39170125787E+01  0.40633642751E+02  0.70730825672E+02  0.00000000000E+00 0. -1.
         21    1    1    2  504  501  0.58025448747E+02  0.52864533716E+02 -0.91709592343E+03  0.92044909929E+03  0.00000000000E+00 0. -1.
         21    1    1    2  505  504 -0.59822414260E+01 -0.88751623176E+02 -0.17660024576E+03  0.19773791905E+03  0.00000000000E+00 0. -1.
          2    1    1    2  501    0  0.57184909700E+01  0.39804102038E+02 -0.19730752903E+04  0.19734850313E+04  0.00000000000E+00 0. -1.
<scales pt_clust_3="57.78403" pt_clust_4="14000.00000" pt_clust_5="96.71215" pt_clust_6="40.21278"></scales>
<clustering>
<clus scale="   40.213">  2  6  1 -1</clus>
<clus scale="   57.784">  1  3  2 -1</clus>
<clus scale="   96.712">  1  5  2 -1</clus>
<clus scale="   57.784">  1  3  2 -1</clus>
</clustering>
</event>
<event>
 6    0  0.4945982E+002  0.1463444E+03  0.7546771E-02  0.1205038E+00
          2   -1    0    0  505    0 -0.00000000000E+00  0.00000000000E+00  0.26584851988E+04  0.26584851988E+04  0.00000000000E+00 0. -1.
         21   -1    0    0  504  502  0.00000000000E+00 -0.00000000000E+00 -0.23443993721E+03  0.23443993721E+03  0.00000000000E+00 0.  1.
         21    1    1    2  503  501 -0.47673040913E+02  0.11987198769E+03  0.50666666580E+03  0.52283183003E+03  0.00000000000E+00 0. -1.
         21    1    1    2  504  503  0.95769688670E+02 -0.85393047226E+02 -0.11360615631E+03  0.17137725793E+03  0.00000000000E+00 0.  1.
         21    1    1    2  505  502 -0.58904590302E+01 -0.34283036025E+02 -0.80038578178E+02  0.87270831687E+02  0.00000000000E+00 0.  1.
          2    1    1    2  501    0 -0.42206188727E+02 -0.19590443862E+00  0.21110233303E+04  0.21114452164E+04  0.00000000000E+00 0. -1.
<scales pt_clust_3="146.34436" pt_clust_4="14000.00000" pt_clust_5="34.78540" pt_clust_6="42.21513"></scales>
<clustering>
<clus scale="   34.785">  2  5  1 -1</clus>
<clus scale="   42.215">  1  6  2 -1</clus>
<clus scale="  146.344">  1  3  2 -1</clus>
<clus scale="   34.785">  2  3  1 -1</clus>
</clustering>
</event>
<event>
 6    0  0.4945982E+002  0.1762595E+03  0.7546771E-02  0.1171473E+00
         21   -1    0    0  505  502  0.00000000000E+00  0.00000000000E+00  0.50971352431E+03  0.50971352431E+03  0.00000000000E+00 0.  1.
          2   -1    0    0  504    0 -0.00000000000E+00 -0.00000000000E+00 -0.66886388664E+03  0.66886388664E+03  0.00000000000E+00 0.  1.
         21    1    1    2  503  502 -0.21440516893E+02 -0.14186125403E+03  0.16073536142E+03  0.21545340000E+03  0.00000000000E+00 0.  1.
         21    1    1    2  504  503 -0.62383079755E+01 -0.34281455876E+02 -0.21084566240E+02  0.40727062709E+02  0.00000000000E+00 0.  1.
         21    1    1    2  505  501 -0.30163214070E+02 -0.29091601828E+02  0.29163874255E+03  0.29463417476E+03  0.00000000000E+00 0.  1.
          2    1    1    2  501    0  0.57842038938E+02  0.20523431173E+03 -0.59043990007E+03  0.62776277348E+03  0.00000000000E+00 0.  1.
<scales pt_clust_3="14000.00000" pt_clust_4="34.84444" pt_clust_5="41.97277" pt_clust_6="176.25947"></scales>
<clustering>
<clus scale="   34.844">  2  4  1 -1</clus>
<clus scale="   41.973">  1  5  2 -1</clus>
<clus scale="  176.259">  2  6  1 -1</clus>
<clus scale="   41.973">  1  3  2 -1</clus>
</clustering>
</event>
<event>
 6    0  0.4945982E+002  0.9003286E+02  0.7546771E-02  0.1302772E+00
         21   -1    0    0  504  502  0.00000000000E+00  0.00000000000E+00  0.20833553183E+03  0.20833553183E+03  0.00000000000E+00 0. -1.
          2   -1    0    0  505    0 -0.00000000000E+00 -0.00000000000E+00 -0.67371140891E+03  0.67371140891E+03  0.00000000000E+00 0. -1.
         21    1    1    2  503  501  0.77910729018E+02  0.12350764893E+03  0.43370044491E+02  0.15233247125E+03  0.00000000000E+00 0. -1.
         21    1    1    2  504  503 -0.47823437447E+02 -0.31171572650E+02  0.63811367783E+02  0.85619149547E+02  0.00000000000E+00 0. -1.
         21    1    1    2  505  502  0.88907283023E+01 -0.48699587922E+02  0.16467555145E+02  0.52171594628E+02  0.00000000000E+00 0. -1.
          2    1    1    2  501    0 -0.38978019873E+02 -0.43636488353E+02 -0.58902484450E+03  0.59192372531E+03  0.00000000000E+00 0. -1.
<scales pt_clust_3="90.03286" pt_clust_4="14000.00000" pt_clust_5="49.50449" pt_clust_6="58.76417"></scales>
<clustering>
<clus scale="   49.504">  1  5  2 -1</clus>
<clus scale="   58.764">  2  6  1 -1</clus>
<clus scale="   90.033">  2  3  1 -1</clus>
<clus scale="   49.504">  1  3  2 -1</clus>
</clustering>
</event>
<event>
 6    0  0.4945982E+002  0.1206182E+03  0.7546771E-02  0.1242081E+00
          1   -1    0    0  504    0 -0.00000000000E+00  0.00000000000E+00  0.11488679483E+04  0.11488679483E+04  0.00000000000E+00 0.  1.
         21   -1    0    0  505  502  0.00000000000E+00 -0.00000000000E+00 -0.27876039590E+03  0.27876039590E+03  0.00000000000E+00 0. -1.
         21    1    1    2  503  501  0.10774460443E+03 -0.55915793467E+02  0.85590258754E+02  0.14853002436E+03  0.00000000000E+00 0. -1.
         21    1    1    2  504  502  0.41933726974E+02  0.13302123690E+02 -0.80348814882E+02  0.91604126574E+02  0.00000000000E+00 0. -1.
         21    1    1    2  505  503 -0.12333976968E+03  0.70653832098E+02 -0.12955712976E+03  0.19232709806E+03  0.00000000000E+00 0. -1.
          1    1    1    2  501    0 -0.26338561722E+02 -0.28040162320E+02  0.99442323831E+03  0.99516709523E+03  0.00000000000E+00 0.  1.
<scales pt_clust_3="120.61820" pt_clust_4="42.77180" pt_clust_5="14000.00000" pt_clust_6="38.47039"></scales>
<clustering>
<clus scale="   38.470">  1  6  2 -1</clus>
<clus scale="   42.772">  2  4  1 -1</clus>
<clus scale="  120.618">  1  3  2 -1</clus>
<clus scale="   42.772">  2  3  1 -1</clus>
</clustering>
</event>
<event>
 6    0  0.4945982E+002  0.1234030E+03  0.7546771E-02  0.1237586E+00
         21   -1    0    0  505  502  0.00000000000E+00  0.00000000000E+00  0.32762151373E+03  0.32762151373E+03  0.00000000000E+00 0. -1.
         -3   -1    0    0    0  501 -0.00000000000E+00 -0.00000000000E+00 -0.20078506185E+04  0.20078506185E+04  0.00000000000E+00 0.  1.
         21    1    1    2  503  504  0.29974548655E+02  0.13146145732E+02  0.45941675785E+02  0.56408618921E+02  0.00000000000E+00 0.  1.
         21    1    1    2  504  502  0.39724499086E+02 -0.13596524260E+02  0.25648251304E+02  0.49200956236E+02  0.00000000000E+00 0. -1.
         21    1    1    2  505  501  0.45120586063E+02 -0.33073139346E+02  0.23392385157E+03  0.24052041112E+03  0.00000000000E+00 0. -1.
         -3    1    1    2    0  503 -0.11481963380E+03  0.33523517874E+02 -0.19857428834E+04  0.19893421459E+04  0.00000000000E+00 0.  1.
<scales pt_clust_3="30.20178" pt_clust_4="30.20178" pt_clust_5="55.94372" pt_clust_6="118.56728"></scales>
<clustering>
<clus scale="   30.202">  3  4 -1 -1</clus>
<clus scale="   55.944">  1  5  2 -1</clus>
<clus scale="  118.567">  2  6  1 -1</clus>
<clus scale="   55.944">  1  3  2 -1</clus>
</clustering>
</event>
<event>
 6    0  0.4945982E+002  0.1751934E+03  0.7546771E-02  0.1172538E+00
         21   -1    0    0  501  502  0.00000000000E+00  0.00000000000E+00  0.43053223386E+02  0.43053223386E+02  0.00000000000E+00 0.  1.
          2   -1    0    0  505    0 -0.00000000000E+00 -0.00000000000E+00 -0.22241724439E+04  0.22241724439E+04  0.00000000000E+00 0. -1.
         21    1    1    2  503  502 -0.54514344463E+02 -0.19461100185E+02 -0.32339347984E+02  0.66305215486E+02  0.00000000000E+00 0.  1.
         21    1    1    2  504  503  0.20950484673E+02 -0.17914469657E+03 -0.43347682385E+03  0.46950388915E+03  0.00000000000E+00 0.  1.
         21    1    1    2  505  504  0.38619269500E+02  0.15407476689E+03 -0.83502451247E+03  0.84999789305E+03  0.00000000000E+00 0. -1.
          2    1    1    2  501    0 -0.50554097102E+01  0.44531029870E+02 -0.88027853621E+03  0.88141866959E+03  0.00000000000E+00 0. -1.
<scales pt_clust_3="57.53134" pt_clust_4="175.19339" pt_clust_5="14000.00000" pt_clust_6="44.81707"></scales>
<clustering>
<clus scale="   44.817">  2  6  1 -1</clus>
<clus scale="   57.531">  1  3  2 -1</clus>
<clus scale="  175.193">  1  4  2 -1</clus>
<clus scale="   57.531">  1  3  2 -1</clus>
</clustering>
</event>
<event>
 6    0  0.4945982E+002  0.2954132E+03  0.7546771E-02  0.1087556E+00
         21   -1    0    0  501  502  0.00000000000E+00  0.00000000000E+00  0.38685676821E+03  0.38685676821E+03  0.00000000000E+00 0. -1.
         -1   -1    0    0    0  501 -0.00000000000E+00 -0.00000000000E+00 -0.41242963862E+03  0.41242963862E+03  0.00000000000E+00 0. -1.
         21    1    1    2  503  505 -0.18307827741E+03  0.10579187185E+03  0.19797115781E+02  0.21237114117E+03  0.00000000000E+00 0. -1.
         21    1    1    2  504  503 -0.49786947374E+02  0.69473482912E+02 -0.28393695113E+02  0.90063904418E+02  0.00000000000E+00 0. -1.
         21    1    1    2  505  502  0.29133066592E+02  0.18512044235E+02  0.16062213274E+03  0.16428907717E+03  0.00000000000E+00 0.  1.
         -1    1    1    2    0  504  0.20373215819E+03 -0.19377739900E+03 -0.17759842382E+03  0.33256228407E+03  0.00000000000E+00 0. -1.
<scales pt_clust_3="51.96462" pt_clust_4="51.96462" pt_clust_5="34.51712" pt_clust_6="284.28868"></scales>
<clustering>
<clus scale="   34.517">  1  5  2 -1</clus>
<clus scale="   51.965">  3  4 -1 -1</clus>
<clus scale="  284.289">  2  6  1 -1</clus>
<clus scale="   34.517">  1  3  2 -1</clus>
</clustering>
</event>
<event>
 6    0  0.4945982E+002  0.1124714E+03  0.7546771E-02  0.1256061E+00
          1   -1    0    0  503    0 -0.00000000000E+00  0.00000000000E+00  0.11901853167E+04  0.11901853167E+04  0.00000000000E+00 0. -1.
         21   -1    0    0  505  502  0.00000000000E+00 -0.00000000000E+00 -0.57647393814E+03  0.57647393814E+03  0.00000000000E+00 0.  1.
         21    1    1    2  503  504 -0.53514566005E+02  0.69829639090E+02  0.19814947036E+02  0.90181036788E+02  0.00000000000E+00 0.  1.
         21    1    1    2  504  502  0.42133147480E+02 -0.16742786473E+02 -0.15083825994E+03  0.15750461478E+03  0.00000000000E+00 0. -1.
         21    1    1    2  505  501  0.17704656154E+02  0.62998806369E+02 -0.38133971123E+03  0.38691378861E+03  0.00000000000E+00 0.  1.
          1    1    1    2  501    0 -0.63232376287E+01 -0.11608565899E+03  0.11260744027E+04  0.11320598146E+04  0.00000000000E+00 0. -1.
<scales pt_clust_3="112.47136" pt_clust_4="45.33788" pt_clust_5="73.62866" pt_clust_6="14000.00000"></scales>
<clustering>
<clus scale="   45.338">  2  4  1 -1</clus>
<clus scale="   73.629">  2  5  1 -1</clus>
<clus scale="  112.471">  2  3  1 -1</clus>
<clus scale="   45.338">  2  3  1 -1</clus>
</clustering>
</event>
<event>
 6    0  0.4945982E+002  0.1472961E+03  0.7546771E-02  0.1203835E+00
         21   -1    0    0  503  502  0.00000000000E+00  0.00000000000E+00  0.19539025528E+03  0.19539025528E+03  0.00000000000E+00 0.  1.
          2   -1    0    0  502    0 -0.00000000000E+00 -0.00000000000E+00 -0.85485457683E+03  0.85485457683E+03  0.00000000000E+00 0.  1.
         21    1    1    2  503  505 -0.98594681938E+02  0.88950947706E+02  0.10595061998E+03  0.16987853390E+03  0.00000000000E+00 0.  1.
         21    1    1    2  504  501  0.11279666504E+02 -0.67580728972E+02 -0.14972915762E+02  0.70132546020E+02  0.00000000000E+00 0.  1.
         21    1    1    2  505  504  0.40063109030E+02 -0.10735682374E+03 -0.98961330173E+02  0.15140635778E+03  0.00000000000E+00 0.  1.
          2    1    1    2  501    0  0.47251906404E+02  0.85986605003E+02 -0.65148069559E+03  0.65882739441E+03  0.00000000000E+00 0.  1.
<scales pt_clust_3="137.24757" pt_clust_4="41.34755" pt_clust_5="41.34755" pt_clust_6="98.11442"></scales>
<clustering>
<clus scale="   41.348">  4  5 -1 -1</clus>
<clus scale="   98.114">  2  6  1 -1</clus>
<clus scale="  137.248">  1  3  2 -1</clus>
<clus scale="  137.248">  1  3  2 -1</clus>
</clustering>
</event>
<event>
 6    0  0.4945982E+002  0.1122424E+03  0.7546771E-02  0.1256473E+00
          2   -1    0    0  505    0 -0.00000000000E+00  0.00000000000E+00  0.60858158262E+03  0.60858158262E+03  0.00000000000E+00 0. -1.
         21   -1    0    0  504  502  0.00000000000E+00 -0.00000000000E+00 -0.49788017181E+03  0.49788017181E+03  0.00000000000E+00 0.  1.
         21    1    1    2  503  502  0.53118073213E+01  0.47828299377E+02 -0.28764785720E+03  0.29164542045E+03  0.00000000000E+00 0.  1.
         21    1    1    2  504  501 -0.24561961748E+01  0.33123823934E+02 -0.73059178386E+02  0.80254994599E+02  0.00000000000E+00 0.  1.
         21    1    1    2  505  503 -0.93065422094E+02 -0.10901903222E+02 -0.10858740746E+03  0.14342680831E+03  0.00000000000E+00 0.  1.
          2    1    1    2  501    0  0.90209810948E+02 -0.70050220088E+02  0.57999585386E+03  0.59113453107E+03  0.00000000000E+00 0. -1.
<scales pt_clust_3="70.69820" pt_clust_4="33.21476" pt_clust_5="14000.00000" pt_clust_6="112.24237"></scales>
<clustering>
<clus scale="   33.215">  2  4  1 -1</clus>
<clus scale="   70.698">  2  3  1 -1</clus>
<clus scale="  112.242">  1  6  2 -1</clus>
<clus scale="   33.215">  2  3  1 -1</clus>
</clustering>
</event>
<event>
 6    0  0.4945982E+002  0.8140704E+02  0.7546771E-02  0.1325105E+00
         21   -1    0    0  504  502  0.00000000000E+00  0.00000000000E+00  0.11168702617E+03  0.11168702617E+03  0.00000000000E+00 0. -1.
          2   -1    0    0  503    0 -0.00000000000E+00 -0.00000000000E+00 -0.17754853537E+04  0.17754853537E+04  0.00000000000E+00 0. -1.
         21    1    1    2  503  502  0.56175386290E+02 -0.56320729170E+01  0.86465478315E+01  0.57115296196E+02  0.00000000000E+00 0. -1.
         21    1    1    2  504  505  0.44602619369E+02  0.22595986610E+02 -0.83632191451E+02  0.97438779304E+02  0.00000000000E+00 0. -1.
         21    1    1    2  505  501 -0.11739041477E+03 -0.69620240958E+02  0.62257602352E+01  0.13662447629E+03  0.00000000000E+00 0. -1.
          2    1    1    2  501    0  0.16612409111E+02  0.52656327265E+02 -0.15950384441E+04  0.15959938281E+04  0.00000000000E+00 0. -1.
<scales pt_clust_3="81.40704" pt_clust_4="49.99972" pt_clust_5="14000.00000" pt_clust_6="55.37434"></scales>
<clustering>
<clus scale="   50.000">  1  4  2 -1</clus>
<clus scale="   55.374">  2  6  1 -1</clus>
<clus scale="   81.407">  2  3  1 -1</clus>
<clus scale="   50.000">  1  3  2 -1</clus>
</clustering>
</event>
<event>
 6    0  0.4945982E+002  0.1040381E+03  0.7546771E-02  0.1272026E+00
         21   -1    0    0  503  502  0.00000000000E+00  0.00000000000E+00  0.26335232001E+03  0.26335232001E+03  0.00000000000E+00 0. -1.
          2   -1    0    0  504    0 -0.00000000000E+00 -0.00000000000E+00 -0.20341394549E+04  0.20341394549E+04  0.00000000000E+00 0.  1.
         21    1    1    2  503  501  0.34913821933E+02  0.47688954857E+02 -0.36590550099E+02  0.69513162307E+02  0.00000000000E+00 0.  1.
         21    1    1    2  504  505 -0.56310696630E+02 -0.63296116198E+02  0.95462331841E+02  0.12763365419E+03  0.00000000000E+00 0. -1.
         21    1    1    2  505  502 -0.60600296685E+02 -0.15718484618E+02  0.12706621823E+03  0.14165200504E+03  0.00000000000E+00 0. -1.
          2    1    1    2  501    0  0.81997171381E+02  0.31325645959E+02 -0.19567251349E+04  0.19586929534E+04  0.00000000000E+00 0.  1.
<scales pt_clust_3="59.10340" pt_clust_4="47.74155" pt_clust_5="47.74155" pt_clust_6="87.97507"></scales>
<clustering>
<clus scale="   47.742">  4  5 -1 -1</clus>
<clus scale="   59.103">  1  3  2 -1</clus>
<clus scale="   87.975">  2  6  1 -1</clus>
<clus scale="   59.103">  1  3  2 -1</clus>
</clustering>
</event>
<event>
 6    0  0.4945982E+002  0.1746892E+03  0.7546771E-02  0.1173044E+00
         21   -1    0    0  505  502  0.00000000000E+00  0.00000000000E+00  0.19374201780E+02  0.19374201780E+02  0.00000000000E+00 0.  1.
          2   -1    0    0  503    0 -0.00000000000E+00 -0.00000000000E+00 -0.43032168776E+04  0.43032168776E+04  0.00000000000E+00 0.  1.
         21    1    1    2  503  502  0.38376046017E+02  0.28536545227E+01 -0.44018895484E+02  0.58468174349E+02  0.00000000000E+00 0.  1.
         21    1    1    2  504  501 -0.46329732299E+02 -0.78419231527E+02 -0.58885184238E+03  0.59585443881E+03  0.00000000000E+00 0.  1.
         21    1    1    2  505  504 -0.48989363055E+02 -0.74650476707E+02 -0.28942870243E+03  0.30288879998E+03  0.00000000000E+00 0.  1.
          2    1    1    2  501    0  0.56943049336E+02  0.15021605371E+03 -0.33615432356E+04  0.33653796663E+04  0.00000000000E+00 0.  1.
<scales pt_clust_3="38.48200" pt_clust_4="59.38899" pt_clust_5="59.38899" pt_clust_6="163.30853"></scales>
<clustering>
<clus scale="   38.482">  1  3  2 -1</clus>
<clus scale="   59.389">  4  5 -1 -1</clus>
<clus scale="  163.309">  2  6  1 -1</clus>
<clus scale="   38.482">  1  3  2 -1</clus>
</clustering>
</event>
<event>
 6    0  0.4945982E+002  0.1342308E+03  0.7546771E-02  0.1221310E+00
         21   -1    0    0  505  502  0.00000000000E+00  0.00000000000E+00  0.14444267699E+03  0.14444267699E+03  0.00000000000E+00 0.  1.
          2   -1    0    0  503    0 -0.00000000000E+00 -0.00000000000E+00 -0.16510279415E+04  0.16510279415E+04  0.00000000000E+00 0.  1.
         21    1    1    2  503  504 -0.63932360554E+01  0.65852006656E+02  0.25015590895E+02  0.70732878039E+02  0.00000000000E+00 0. -1.
         21    1    1    2  504  502  0.54372057423E+02  0.53712250453E+02  0.50752343157E+02  0.91744900746E+02  0.00000000000E+00 0.  1.
         21    1    1    2  505  501 -0.18140273409E+02 -0.94827114311E+02 -0.67873406921E+02  0.11801716187E+03  0.00000000000E+00 0.  1.
          2    1    1    2  501    0 -0.29838547958E+02 -0.24737142797E+02 -0.15144797916E+04  0.15149756778E+04  0.00000000000E+00 0.  1.
<scales pt_clust_3="60.06475" pt_clust_4="60.06475" pt_clust_5="118.14078" pt_clust_6="38.75907"></scales>
<clustering>
<clus scale="   38.759">  2  6  1 -1</clus>
<clus scale="   60.065">  3  4 -1 -1</clus>
<clus scale="  118.141">  2  5  1 -1</clus>
<clus scale="  134.231">  1  3  2 -1</clus>
</clustering>
</event>
<event>
 6    0  0.4945982E+002  0.1007826E+03  0.7546771E-02  0.1278659E+00
          2   -1    0    0  503    0 -0.00000000000E+00  0.00000000000E+00  0.10888223478E+03  0.10888223478E+03  0.00000000000E+00 0.  1.
         21   -1    0    0  504  502  0.00000000000E+00 -0.00000000000E+00 -0.12371543970E+04  0.12371543970E+04  0.00000000000E+00 0.  1.
         21    1    1    2  503  505  0.53448867518E+02  0.33831173802E+02 -0.41098756819E+03  0.41582702049E+03  0.00000000000E+00 0.  1.
         21    1    1    2  504  501 -0.88044016317E+02 -0.83236437111E+01 -0.39079135933E+03  0.40067308168E+03  0.00000000000E+00 0.  1.
         21    1    1    2  505  502  0.18399541445E+02  0.49226880342E+02 -0.41170399920E+03  0.41504459017E+03  0.00000000000E+00 0.  1.
          2    1    1    2  501    0  0.16195607353E+02 -0.74734410434E+02  0.85210764521E+02  0.11449193941E+03  0.00000000000E+00 0.  1.
<scales pt_clust_3="34.89184" pt_clust_4="93.22957" pt_clust_5="34.89184" pt_clust_6="76.46914"></scales>
<clustering>
<clus scale="   34.892">  3  5 -1 -1</clus>
<clus scale="   76.469">  1  6  2 -1</clus>
<clus scale="   93.230">  1  4  2 -1</clus>
<clus scale="  100.783">  2  3  1 -1</clus>
</clustering>
</event>
<event>
 6    0  0.4945982E+002  0.9217130E+02  0.7546771E-02  0.1297677E+00
          3   -1    0    0  505    0 -0.00000000000E+00  0.00000000000E+00  0.63920854858E+03  0.63920854858E+03  0.00000000000E+00 0. -1.
         21   -1    0    0  504  502  0.00000000000E+00 -0.00000000000E+00 -0.80998757520E+03  0.80998757520E+03  0.00000000000E+00 0. -1.
         21    1    1    2  503  501  0.57481065705E+02 -0.57890170819E+02 -0.95003018565E+02  0.12522347355E+03  0.00000000000E+00 0.  1.
         21    1    1    2  504  503 -0.68079917277E+02  0.58185793559E+02 -0.65466284501E+03  0.66076009439E+03  0.00000000000E+00 0. -1.
         21    1    1    2  505  502 -0.36659806072E+02 -0.22896806842E+02 -0.29656514865E+02  0.52418641901E+02  0.00000000000E+00 0. -1.
          3    1    1    2  501    0  0.47258657644E+02  0.22601184103E+02  0.60854335182E+03  0.61079391393E+03  0.00000000000E+00 0. -1.
<scales pt_clust_3="14000.00000" pt_clust_4="92.17130" pt_clust_5="43.22274" pt_clust_6="52.32220"></scales>
<clustering>
<clus scale="   43.223">  2  5  1 -1</clus>
<clus scale="   52.322">  1  6  2 -1</clus>
<clus scale="   92.171">  2  4  1 -1</clus>
<clus scale="   43.223">  2  3  1 -1</clus>
</clustering>
</event>
<event>
 6    0  0.4945982E+002  0.8872530E+02  0.7546771E-02  0.1305968E+00
          2   -1    0    0  505    0 -0.00000000000E+00  0.00000000000E+00  0.21719223826E+04  0.21719223826E+04  0.00000000000E+00 0.  1.
         21   -1    0    0  503  502  0.00000000000E+00 -0.00000000000E+00 -0.10054102376E+02  0.10054102376E+02  0.00000000000E+00 0. -1.
         21    1    1    2  503  504 -0.59209763712E+01  0.30641480032E+02  0.12347274969E+03  0.12735571512E+03  0.00000000000E+00 0.  1.
         21    1    1    2  504  501  0.35903479897E+02  0.61927167226E+01  0.18503329969E+03  0.18858613842E+03  0.00000000000E+00 0. -1.
         21    1    1    2  505  502  0.46539541170E+02 -0.83353081065E+02  0.46022139993E+03  0.47001851237E+03  0.00000000000E+00 0. -1.
          2    1    1    2  501    0 -0.76522044696E+02  0.46518884310E+02  0.13931408309E+04  0.13960161191E+04  0.00000000000E+00 0.  1.
<scales pt_clust_3="31.20830" pt_clust_4="36.93387" pt_clust_5="14000.00000" pt_clust_6="88.72530"></scales>
<clustering>
<clus scale="   31.208">  2  3  1 -1</clus>
<clus scale="   36.934">  2  4  1 -1</clus>
<clus scale="   88.725">  1  6  2 -1</clus>
<clus scale="   31.208">  2  3  1 -1</clus>
</clustering>
</event>
<event>
 6    0  0.4945982E+002  0.9811179E+02  0.7546771E-02  0.1284317E+00
         -2   -1    0    0    0  501 -0.00000000000E+00  0.00000000000E+00  0.25390145570E+03  0.25390145570E+03  0.00000000000E+00 0.  1.
         21   -1    0    0  505  502  0.00000000000E+00 -0.00000000000E+00 -0.21809790248E+03  0.21809790248E+03  0.00000000000E+00 0. -1.
         21    1    1    2  503  501  0.15395864704E+02 -0.34265352328E+02  0.32317521173E+01  0.37703995039E+02  0.00000000000E+00 0.  1.
         21    1    1    2  504  502 -0.46430281488E+02  0.10847556727E+03  0.52803427640E+02  0.12927073027E+03  0.00000000000E+00 0. -1.
         21    1    1    2  505  503  0.81960606552E+02 -0.53023109304E+02 -0.14144046619E+03  0.17185574364E+03  0.00000000000E+00 0. -1.
         -2    1    1    2    0  504 -0.50926189769E+02 -0.21187105635E+02  0.12120883965E+03  0.13316888923E+03  0.00000000000E+00 0.  1.
<scales pt_clust_3="37.56524" pt_clust_4="98.11179" pt_clust_5="14000.00000" pt_clust_6="58.29257"></scales>
<clustering>
<clus scale="   37.565">  1  3  2 -1</clus>
<clus scale="   58.293">  1  6  2 -1</clus>
<clus scale="   98.112">  1  4  2 -1</clus>
<clus scale="   98.112">  2  3  1 -1</clus>
</clustering>
</event>
<event>
 6    0  0.4945982E+002  0.1646903E+03  0.7546771E-02  0.1183501E+00
         21   -1    0    0  504  502  0.00000000000E+00  0.00000000000E+00  0.73308801712E+02  0.73308801712E+02  0.00000000000E+00 0. -1.
          2   -1    0    0  503    0 -0.00000000000E+00 -0.00000000000E+00 -0.12963421056E+04  0.12963421056E+04  0.00000000000E+00 0. -1.
         21    1    1    2  503  505  0.44587174309E+02 -0.47902329705E+01 -0.22103491042E+03  0.22553801025E+03  0.00000000000E+00 0. -1.
         21    1    1    2  504  501 -0.25331759609E+02  0.67228291834E+02  0.26034629491E+02  0.76414286626E+02  0.00000000000E+00 0. -1.
         21    1    1    2  505  502  0.10457694357E+03 -0.10882572149E+03 -0.44644919415E+03  0.47127089635E+03  0.00000000000E+00 0. -1.
          2    1    1    2  501    0 -0.12383235827E+03  0.46387662627E+02 -0.58158382877E+03  0.59642771404E+03  0.00000000000E+00 0. -1.
<scales pt_clust_3="37.95738" pt_clust_4="71.84248" pt_clust_5="37.95738" pt_clust_6="149.24406"></scales>
<clustering>
<clus scale="   37.957">  3  5 -1 -1</clus>
<clus scale="   71.842">  1  4  2 -1</clus>
<clus scale="  149.244">  2  6  1 -1</clus>
<clus scale="   71.842">  1  3  2 -1</clus>
</clustering>
</event>
<event>
 6    0  0.4945982E+002  0.1805667E+03  0.7546771E-02  0.1167256E+00
          1   -1    0    0  505    0 -0.00000000000E+00  0.00000000000E+00  0.23094861969E+04  0.23094861969E+04  0.00000000000E+00 0. -1.
         21   -1    0    0  503  502  0.00000000000E+00 -0.00000000000E+00 -0.89068154134E+02  0.89068154134E+02  0.00000000000E+00 0.  1.
         21    1    1    2  503  504 -0.50847756951E+01  0.33749303126E+02 -0.46467768267E+02  0.57655215663E+02  0.00000000000E+00 0.  1.
         21    1    1    2  504  501  0.85446093247E+02 -0.38129464301E+02  0.22454441921E+03  0.24325930013E+03  0.00000000000E+00 0. -1.
         21    1    1    2  505  502 -0.17728456011E+03 -0.13861880629E+03  0.53462998441E+03  0.58006396970E+03  0.00000000000E+00 0.  1.
          1    1    1    2  501    0  0.96923242562E+02  0.14299896747E+03  0.15077114074E+04  0.15175758656E+04  0.00000000000E+00 0. -1.
<scales pt_clust_3="34.13020" pt_clust_4="89.21251" pt_clust_5="14000.00000" pt_clust_6="180.56665"></scales>
<clustering>
<clus scale="   34.130">  2  3  1 -1</clus>
<clus scale="   89.213">  2  4  1 -1</clus>
<clus scale="  180.567">  1  6  2 -1</clus>
<clus scale="   34.130">  2  3  1 -1</clus>
</clustering>
</event>
<event>
 6    0  0.4945982E+002  0.1277912E+03  0.7546771E-02  0.1230771E+00
         21   -1    0    0  501  502  0.00000000000E+00  0.00000000000E+00  0.22931073343E+03  0.22931073343E+03  0.00000000000E+00 0.  1.
         -3   -1    0    0    0  501 -0.00000000000E+00 -0.00000000000E+00 -0.12480446356E+04  0.12480446356E+04  0.00000000000E+00 0.  1.
         21    1    1    2  503  502 -0.28294925445E+02 -0.12103238454E+02  0.21087516118E+03  0.21310895051E+03  0.00000000000E+00 0.  1.
         21    1    1    2  504  505  0.54032065252E+02 -0.72943175031E+01 -0.11605608286E+03  0.12822513604E+03  0.00000000000E+00 0. -1.
         21    1    1    2  505  503  0.39586530768E+02 -0.70698151759E+02 -0.20114422137E+03  0.21685091623E+03  0.00000000000E+00 0. -1.
         -3    1    1    2    0  504 -0.65323670576E+02  0.90095707717E+02 -0.91240875910E+03  0.91917036624E+03  0.00000000000E+00 0.  1.
<scales pt_clust_3="30.77485" pt_clust_4="45.16655" pt_clust_5="45.16655" pt_clust_6="112.76703"></scales>
<clustering>
<clus scale="   30.775">  1  3  2 -1</clus>
<clus scale="   45.167">  4  5 -1 -1</clus>
<clus scale="  112.767">  2  6  1 -1</clus>
<clus scale="   30.775">  1  3  2 -1</clus>
</clustering>
</event>
<event>
 6    0  0.4945982E+002  0.9816267E+02  0.7546771E-02  0.1284208E+00
          1   -1    0    0  503    0 -0.00000000000E+00  0.00000000000E+00  0.12202026701E+04  0.12202026701E+04  0.00000000000E+00 0.  1.
         21   -1    0    0  505  502  0.00000000000E+00 -0.00000000000E+00 -0.29885053401E+03  0.29885053401E+03  0.00000000000E+00 0.  1.
         21    1    1    2  503  502 -0.18807951896E+02  0.40057575558E+02 -0.34304454603E+02  0.55992356797E+02  0.00000000000E+00 0. -1.
         21    1    1    2  504  501 -0.40532143883E+02  0.58110202233E+02  0.11378873210E+03  0.13404299998E+03  0.00000000000E+00 0. -1.
         21    1    1    2  505  504  0.81018112811E+02 -0.11940364308E+03 -0.22196924479E+03  0.26474801268E+03  0.00000000000E+00 0.  1.
          1    1    1    2  501    0 -0.21678017032E+02  0.21235865291E+02  0.10638371034E+04  0.10642698346E+04  0.00000000000E+00 0.  1.
<scales pt_clust_3="46.23384" pt_clust_4="14000.00000" pt_clust_5="98.16267" pt_clust_6="30.34631"></scales>
<clustering>
<clus scale="   30.346">  1  6  2 -1</clus>
<clus scale="   46.234">  2  3  1 -1</clus>
<clus scale="   98.163">  2  5  1 -1</clus>
<clus scale="   46.234">  2  3  1 -1</clus>
</clustering>
</event>
<event>
 6    0  0.4945982E+002  0.7077370E+02  0.7546771E-02  0.1357482E+00
          2   -1    0    0  505    0 -0.00000000000E+00  0.00000000000E+00  0.27544568679E+03  0.27544568679E+03  0.00000000000E+00 0. -1.
         21   -1    0    0  503  502  0.00000000000E+00 -0.00000000000E+00 -0.25334461776E+03  0.25334461776E+03  0.00000000000E+00 0. -1.
         21    1    1    2  503  504  0.55281496650E+02 -0.40338495580E+02 -0.14055671952E+03  0.15633115333E+03  0.00000000000E+00 0. -1.
         21    1    1    2  504  501  0.55750031097E+02 -0.12625097710E+02 -0.30223322118E+01  0.57241536942E+02  0.00000000000E+00 0. -1.
         21    1    1    2  505  502 -0.62685438691E+02  0.44475031297E+02 -0.51526559158E+02  0.92533663774E+02  0.00000000000E+00 0.  1.
          2    1    1    2  501    0 -0.48346089056E+02  0.84885619935E+01  0.21720667992E+03  0.22268395051E+03  0.00000000000E+00 0. -1.
<scales pt_clust_3="70.77370" pt_clust_4="33.23474" pt_clust_5="14000.00000" pt_clust_6="49.08564"></scales>
<clustering>
<clus scale="   49.086">  1  6  2 -1</clus>
<clus scale="   33.235">  1  4  2 -1</clus>
<clus scale="   70.774">  2  3  1 -1</clus>
<clus scale="   70.774">  2  3  1 -1</clus>
</clustering>
</event>
<event>
 6    0  0.4945982E+002  0.7913270E+02  0.7546771E-02  0.1331531E+00
         21   -1    0    0  504  502  0.00000000000E+00  0.00000000000E+00  0.60526783145E+03  0.60526783145E+03  0.00000000000E+00 0. -1.
          1   -1    0    0  505    0 -0.00000000000E+00 -0.00000000000E+00 -0.92217261882E+03  0.92217261882E+03  0.00000000000E+00 0. -1.
         21    1    1    2  503  501  0.21130257036E+02 -0.74858276040E+02  0.64945104922E+02  0.10133171225E+03  0.00000000000E+00 0. -1.
         21    1    1    2  504  503  0.47610435910E+01  0.56413592636E+02  0.36339466165E+03  0.36777824988E+03  0.00000000000E+00 0. -1.
         21    1    1    2  505  502  0.27150552523E+02 -0.40540267215E+02  0.15094603219E+03  0.15863596819E+03  0.00000000000E+00 0. -1.
          1    1    1    2  501    0 -0.53041853150E+02  0.58984950618E+02 -0.89619058612E+03  0.89969451996E+03  0.00000000000E+00 0. -1.
<scales pt_clust_3="14000.00000" pt_clust_4="35.64887" pt_clust_5="48.79207" pt_clust_6="79.13270"></scales>
<clustering>
<clus scale="   48.792">  1  5  2 -1</clus>
<clus scale="   35.649">  1  4  2 -1</clus>
<clus scale="   79.133">  2  6  1 -1</clus>
<clus scale="   48.792">  1  3  2 -1</clus>
</clustering>
</event>
<event>
 6    0  0.4945982E+002  0.8963766E+02  0.7546771E-02  0.1303732E+00
          1   -1    0    0  504    0 -0.00000000000E+00  0.00000000000E+00  0.34860961502E+03  0.34860961502E+03  0.00000000000E+00 0. -1.
         21   -1    0    0  503  502  0.00000000000E+00 -0.00000000000E+00 -0.54813312997E+03  0.54813312997E+03  0.00000000000E+00 0. -1.
         21    1    1    2  503  501 -0.48153646480E+02 -0.11179279730E+03 -0.22755828866E+03  0.25806816529E+03  0.00000000000E+00 0.  1.
         21    1    1    2  504  505  0.60263135954E+02  0.46041390690E+02 -0.17212405715E+01  0.75857879490E+02  0.00000000000E+00 0.  1.
         21    1    1    2  505  502 -0.60331305504E+02 -0.88066830432E+01 -0.25621923351E+03  0.26337372631E+03  0.00000000000E+00 0. -1.
          1    1    1    2  501    0  0.48221816030E+02  0.74558089654E+02  0.28597524779E+03  0.29944297391E+03  0.00000000000E+00 0. -1.
<scales pt_clust_3="89.63766" pt_clust_4="68.78525" pt_clust_5="60.97068" pt_clust_6="14000.00000"></scales>
<clustering>
<clus scale="   60.971">  2  5  1 -1</clus>
<clus scale="   68.785">  2  4  1 -1</clus>
<clus scale="   89.638">  2  3  1 -1</clus>
<clus scale="   60.971">  2  3  1 -1</clus>
</clustering>
</event>
<event>
 6    0  0.4945982E+002  0.1505500E+03  0.7546771E-02  0.1199799E+00
          1   -1    0    0  504    0 -0.00000000000E+00  0.00000000000E+00  0.60568465308E+03  0.60568465308E+03  0.00000000000E+00 0.  1.
         21   -1    0    0  503  502  0.00000000000E+00 -0.00000000000E+00 -0.30336797167E+03  0.30336797167E+03  0.00000000000E+00 0.  1.
         21    1    1    2  503  501  0.21588404654E+02 -0.38109568874E+02 -0.11893600972E+02  0.45385638690E+02  0.00000000000E+00 0.  1.
         21    1    1    2  504  505  0.69290452004E+02  0.12142765948E+03 -0.34721873221E+02  0.14405364177E+03  0.00000000000E+00 0.  1.
         21    1    1    2  505  502 -0.10533530961E+03 -0.11837066362E+03 -0.15062414557E+03  0.21862016075E+03  0.00000000000E+00 0.  1.
          1    1    1    2  501    0  0.14456452948E+02  0.35052573006E+02  0.49955630118E+03  0.50099318354E+03  0.00000000000E+00 0.  1.
<scales pt_clust_3="40.36591" pt_clust_4="150.55000" pt_clust_5="14000.00000" pt_clust_6="37.91664"></scales>
<clustering>
<clus scale="   37.917">  1  6  2 -1</clus>
<clus scale="   40.366">  1  3  2 -1</clus>
<clus scale="  150.550">  1  4  2 -1</clus>
<clus scale="  150.550">  2  3  1 -1</clus>
</clustering>
</event>
<event>
 6    0  0.4945982E+002  0.1069141E+03  0.7546771E-02  0.1266393E+00
          1   -1    0    0  502    0 -0.00000000000E+00  0.00000000000E+00  0.53412630077E+03  0.53412630077E+03  0.00000000000E+00 0.  1.
         21   -1    0    0  503  502  0.00000000000E+00 -0.00000000000E+00 -0.11948490060E+03  0.11948490060E+03  0.00000000000E+00 0. -1.
         21    1    1    2  503  505 -0.81883780842E+02 -0.23313762406E+02 -0.21353177677E+02  0.87774958156E+02  0.00000000000E+00 0. -1.
         21    1    1    2  504  501  0.47114034395E+02  0.41195815524E+02  0.11389762782E+02  0.63612531390E+02  0.00000000000E+00 0. -1.
         21    1    1    2  505  504  0.81538183398E+02  0.18317456658E+02  0.10859574400E+02  0.84272978626E+02  0.00000000000E+00 0. -1.
          1    1    1    2  501    0 -0.46768436951E+02 -0.36199509776E+02  0.41374524067E+03  0.41795073320E+03  0.00000000000E+00 0.  1.
<scales pt_clust_3="100.74108" pt_clust_4="30.98341" pt_clust_5="30.98341" pt_clust_6="59.14128"></scales>
<clustering>
<clus scale="   30.983">  4  5 -1 -1</clus>
<clus scale="   59.141">  1  6  2 -1</clus>
<clus scale="  100.741">  2  3  1 -1</clus>
<clus scale="  100.741">  2  3  1 -1</clus>
</clustering>
</event>
<event>
 6    0  0.4945982E+002  0.1200511E+03  0.7546771E-02  0.1243013E+00
         21   -1    0    0  501  502  0.00000000000E+00  0.00000000000E+00  0.32599943818E+02  0.32599943818E+02  0.00000000000E+00 0. -1.
          1   -1    0    0  505    0 -0.00000000000E+00 -0.00000000000E+00 -0.10964883584E+04  0.10964883584E+04  0.00000000000E+00 0. -1.
         21    1    1    2  503  504  0.37370638516E+02  0.89175810479E+02 -0.20877619536E+03  0.23007909411E+03  0.00000000000E+00 0. -1.
         21    1    1    2  504  502  0.52420081817E+01 -0.70915239422E+02 -0.65960129155E+02  0.96990661768E+02  0.00000000000E+00 0. -1.
         21    1    1    2  505  503  0.38335485268E+02  0.29421146411E+02 -0.22905680892E+03  0.23409877189E+03  0.00000000000E+00 0. -1.
          1    1    1    2  501    0 -0.80948131965E+02 -0.47681717468E+02 -0.56009528110E+03  0.56791977440E+03  0.00000000000E+00 0. -1.
<scales pt_clust_3="44.52522" pt_clust_4="71.10872" pt_clust_5="44.52522" pt_clust_6="102.20353"></scales>
<clustering>
<clus scale="   44.525">  3  5 -1 -1</clus>
<clus scale="   71.109">  1  4  2 -1</clus>
<clus scale="  102.204">  2  6  1 -1</clus>
<clus scale="   71.109">  1  3  2 -1</clus>
</clustering>
</event>
<event>
 6    0  0.4945982E+002  0.7986658E+02  0.7546771E-02  0.1329431E+00
         21   -1    0    0  504  502  0.00000000000E+00  0.00000000000E+00  0.17783516542E+03  0.17783516542E+03  0.00000000000E+00 0.  1.
         -1   -1    0    0    0  501 -0.00000000000E+00 -0.00000000000E+00 -0.36563780204E+03  0.36563780204E+03  0.00000000000E+00 0.  1.
         21    1    1    2  503  502  0.38025345452E+01  0.43662958330E+02  0.34560864291E+01  0.43964277914E+02  0.00000000000E+00 0.  1.
         21    1    1    2  504  505  0.54359128717E+02 -0.53405585316E+02  0.51388266931E+02  0.91912052506E+02  0.00000000000E+00 0.  1.
         21    1    1    2  505  501 -0.66677902596E+02  0.60449072305E+02  0.55043842486E+02  0.10549814042E+03  0.00000000000E+00 0.  1.
         -1    1    1    2    0  503  0.85162393339E+01 -0.50706445319E+02 -0.29769083246E+03  0.30209849662E+03  0.00000000000E+00 0.  1.
<scales pt_clust_3="43.82822" pt_clust_4="14000.00000" pt_clust_5="79.86658" pt_clust_6="50.81017"></scales>
<clustering>
<clus scale="   43.828">  1  3  2 -1</clus>
<clus scale="   50.810">  2  6  1 -1</clus>
<clus scale="   79.867">  2  5  1 -1</clus>
<clus scale="   43.828">  1  3  2 -1</clus>
</clustering>
</event>
<event>
 6    0  0.4945982E+002  0.9859481E+02  0.7546771E-02  0.1283279E+00
         21   -1    0    0  504  502  0.00000000000E+00  0.00000000000E+00  0.14717893352E+03  0.14717893352E+03  0.00000000000E+00 0. -1.
          2   -1    0    0  503    0 -0.00000000000E+00 -0.00000000000E+00 -0.81372414531E+03  0.81372414531E+03  0.00000000000E+00 0. -1.
         21    1    1    2  503  502  0.25226611142E+02  0.55869756105E+02  0.25920403155E+02  0.66555832627E+02  0.00000000000E+00 0. -1.
         21    1    1    2  504  505  0.54514135360E+02 -0.34941004089E+02  0.36145642991E+02  0.74156403824E+02  0.00000000000E+00 0. -1.
         21    1    1    2  505  501  0.82055388112E+01 -0.39430708142E+02  0.33752270557E+02  0.52548333746E+02  0.00000000000E+00 0. -1.
          2    1    1    2  501    0 -0.87946285313E+02  0.18501956126E+02 -0.76236352849E+03  0.76764250863E+03  0.00000000000E+00 0. -1.
<scales pt_clust_3="61.30099" pt_clust_4="32.55098" pt_clust_5="32.55098" pt_clust_6="89.54035"></scales>
<clustering>
<clus scale="   32.551">  4  5 -1 -1</clus>
<clus scale="   61.301">  1  3  2 -1</clus>
<clus scale="   89.540">  2  6  1 -1</clus>
<clus scale="   61.301">  1  3  2 -1</clus>
</clustering>
</event>
<event>
 6    0  0.4945982E+002  0.1323491E+03  0.7546771E-02  0.1224011E+00
         21   -1    0    0  505  502  0.00000000000E+00  0.00000000000E+00  0.95559387191E+03  0.95559387191E+03  0.00000000000E+00 0.  1.
          1   -1    0    0  503    0 -0.00000000000E+00 -0.00000000000E+00 -0.69351218486E+03  0.69351218486E+03  0.00000000000E+00 0. -1.
         21    1    1    2  503  502  0.16374271641E+02 -0.26751467848E+02  0.54369848940E+02  0.62768131066E+02  0.00000000000E+00 0.  1.
         21    1    1    2  504  501  0.86188941088E+02  0.10528077808E+02  0.11272520608E+03  0.14228965554E+03  0.00000000000E+00 0.  1.
         21    1    1    2  505  504  0.25380004224E+02 -0.27528372202E+02  0.76227687157E+03  0.76319590200E+03  0.00000000000E+00 0.  1.
          1    1    1    2  501    0 -0.12794321695E+03  0.43751762242E+02 -0.66729023953E+03  0.68085236817E+03  0.00000000000E+00 0. -1.
<scales pt_clust_3="31.36491" pt_clust_4="14000.00000" pt_clust_5="63.81460" pt_clust_6="132.34909"></scales>
<clustering>
<clus scale="   31.365">  1  3  2 -1</clus>
<clus scale="   63.815">  1  5  2 -1</clus>
<clus scale="  132.349">  2  6  1 -1</clus>
<clus scale="   31.365">  1  3  2 -1</clus>
</clustering>
</event>
<event>
 6    0  0.4945982E+002  0.9400422E+02  0.7546771E-02  0.1293435E+00
          1   -1    0    0  504    0 -0.00000000000E+00  0.00000000000E+00  0.10678990662E+04  0.10678990662E+04  0.00000000000E+00 0. -1.
         21   -1    0    0  505  502  0.00000000000E+00 -0.00000000000E+00 -0.10715195277E+03  0.10715195277E+03  0.00000000000E+00 0. -1.
         21    1    1    2  503  502 -0.53884902899E+02 -0.39385933780E+02 -0.48366470478E+02  0.82426634086E+02  0.00000000000E+00 0. -1.
         21    1    1    2  504  503 -0.69410401221E+02 -0.15163986947E+01  0.23740846197E+02  0.73373912536E+02  0.00000000000E+00 0. -1.
         21    1    1    2  505  501  0.10716666605E+03  0.16650604297E+01  0.15877318469E+03  0.19156302074E+03  0.00000000000E+00 0. -1.
          1    1    1    2  501    0  0.16128638066E+02  0.39237272045E+02  0.82659955299E+03  0.82768745157E+03  0.00000000000E+00 0. -1.
<scales pt_clust_3="64.20481" pt_clust_4="94.00422" pt_clust_5="14000.00000" pt_clust_6="42.42283"></scales>
<clustering>
<clus scale="   42.423">  1  6  2 -1</clus>
<clus scale="   64.205">  2  3  1 -1</clus>
<clus scale="   94.004">  2  4  1 -1</clus>
<clus scale="   64.205">  2  3  1 -1</clus>
</clustering>
</event>
<event>
 6    0  0.4945982E+002  0.7197541E+02  0.7546771E-02  0.1353502E+00
          1   -1    0    0  503    0 -0.00000000000E+00  0.00000000000E+00  0.25775193928E+04  0.25775193928E+04  0.00000000000E+00 0.  1.
         21   -1    0    0  504  502  0.00000000000E+00 -0.00000000000E+00 -0.15695398277E+04  0.15695398277E+04  0.00000000000E+00 0.  1.
         21    1    1    2  503  502 -0.88117251379E+02 -0.93158136724E+02 -0.45517722453E+02  0.13606965674E+03  0.00000000000E+00 0.  1.
         21    1    1    2  504  505 -0.24715835606E+02  0.52308861709E+02 -0.14409307385E+04  0.14420917040E+04  0.00000000000E+00 0.  1.
         21    1    1    2  505  501  0.63290754359E+02 -0.10923176073E+02 -0.86394353565E+01  0.64804901096E+02  0.00000000000E+00 0.  1.
          1    1    1    2  501    0  0.49542332627E+02  0.51772451088E+02  0.25030674614E+04  0.25040929587E+04  0.00000000000E+00 0.  1.
<scales pt_clust_3="71.97541" pt_clust_4="57.85404" pt_clust_5="56.34950" pt_clust_6="14000.00000"></scales>
<clustering>
<clus scale="   57.854">  2  4  1 -1</clus>
<clus scale="   56.349">  2  5  1 -1</clus>
<clus scale="   71.975">  2  3  1 -1</clus>
<clus scale="   57.854">  2  3  1 -1</clus>
</clustering>
</event>
<event>
 6    0  0.4945982E+002  0.9036311E+02  0.7546771E-02  0.1301975E+00
          2   -1    0    0  505    0 -0.00000000000E+00  0.00000000000E+00  0.43086772651E+03  0.43086772651E+03  0.00000000000E+00 0.  1.
         21   -1    0    0  503  502  0.00000000000E+00 -0.00000000000E+00 -0.31965915849E+03  0.31965915849E+03  0.00000000000E+00 0. -1.
         21    1    1    2  503  504 -0.30207583468E+02 -0.58438091868E+02 -0.87741502041E+02  0.10966348463E+03  0.00000000000E+00 0.  1.
         21    1    1    2  504  501 -0.48713675353E+01 -0.88917883598E+02 -0.16915573627E+03  0.19116428369E+03  0.00000000000E+00 0. -1.
         21    1    1    2  505  502  0.33172645517E+01  0.73672130483E+02  0.82033451087E+00  0.73751338989E+02  0.00000000000E+00 0.  1.
          2    1    1    2  501    0  0.31761686452E+02  0.73683844984E+02  0.36728547182E+03  0.37594777769E+03  0.00000000000E+00 0.  1.
<scales pt_clust_3="33.91262" pt_clust_4="33.91262" pt_clust_5="73.74678" pt_clust_6="81.29363"></scales>
<clustering>
<clus scale="   33.913">  3  4 -1 -1</clus>
<clus scale="   73.747">  2  5  1 -1</clus>
<clus scale="   81.294">  1  6  2 -1</clus>
<clus scale="   73.747">  2  3  1 -1</clus>
</clustering>
</event>
<event>
 6    0  0.4945982E+002  0.9302915E+02  0.7546771E-02  0.1295678E+00
         21   -1    0    0  503  502  0.00000000000E+00  0.00000000000E+00  0.22514603876E+02  0.22514603876E+02  0.00000000000E+00 0. -1.
          2   -1    0    0  504    0 -0.00000000000E+00 -0.00000000000E+00 -0.34903890065E+04  0.34903890065E+04  0.00000000000E+00 0. -1.
         21    1    1    2  503  501  0.12548501789E+03 -0.28378131780E+02 -0.45623490645E+03  0.47402752867E+03  0.00000000000E+00 0. -1.
         21    1    1    2  504  505 -0.70520643764E+02  0.15303393871E+02 -0.30158758031E+03  0.31010066697E+03  0.00000000000E+00 0. -1.
         21    1    1    2  505  502 -0.38068352083E+02  0.56120867575E+02 -0.11641587525E+03  0.13472715843E+03  0.00000000000E+00 0. -1.
          2    1    1    2  501    0 -0.16896022041E+02 -0.43046129665E+02 -0.25936360406E+04  0.25940482563E+04  0.00000000000E+00 0. -1.
<scales pt_clust_3="93.02915" pt_clust_4="14000.00000" pt_clust_5="64.37516" pt_clust_6="46.24332"></scales>
<clustering>
<clus scale="   46.243">  2  6  1 -1</clus>
<clus scale="   64.375">  1  5  2 -1</clus>
<clus scale="   93.029">  1  3  2 -1</clus>
<clus scale="   64.375">  1  3  2 -1</clus>
</clustering>
</event>
<event>
 6    0  0.4945982E+002  0.1479127E+03  0.7546771E-02  0.1203062E+00
         21   -1    0    0  503  502  0.00000000000E+00  0.00000000000E+00  0.30513029541E+03  0.30513029541E+03  0.00000000000E+00 0.  1.
          2   -1    0    0  505    0 -0.00000000000E+00 -0.00000000000E+00 -0.27313304278E+04  0.27313304278E+04  0.00000000000E+00 0.  1.
         21    1    1    2  503  504 -0.19651574604E+02  0.23270835211E+02  0.25831943423E+02  0.39937519413E+02  0.00000000000E+00 0.  1.
         21    1    1    2  504  501 -0.26946206760E+02  0.24821159267E+02  0.14546539467E+03  0.15000789663E+03  0.00000000000E+00 0.  1.
         21    1    1    2  505  502  0.86696091518E+02  0.94855248340E+02  0.88746384945E+02  0.15617186451E+03  0.00000000000E+00 0.  1.
          2    1    1    2  501    0 -0.40098310154E+02 -0.14294724282E+03 -0.26862438554E+04  0.26903434427E+04  0.00000000000E+00 0.  1.
<scales pt_clust_3="30.45843" pt_clust_4="53.07529" pt_clust_5="147.91272" pt_clust_6="14000.00000"></scales>
<clustering>
<clus scale="   30.458">  1  3  2 -1</clus>
<clus scale="   53.075">  1  4  2 -1</clus>
<clus scale="  147.913">  1  5  2 -1</clus>
<clus scale="   30.458">  1  3  2 -1</clus>
</clustering>
</event>
<event>
 6    0  0.4945982E+002  0.7966240E+02  0.7546771E-02  0.1330012E+00
          1   -1    0    0  503    0 -0.00000000000E+00  0.00000000000E+00  0.16783039682E+04  0.16783039682E+04  0.00000000000E+00 0.  1.
         21   -1    0    0  504  502  0.00000000000E+00 -0.00000000000E+00 -0.21913528043E+03  0.21913528043E+03  0.00000000000E+00 0.  1.
         21    1    1    2  503  502 -0.76327673291E+01  0.56437919287E+02 -0.81543114053E+02  0.99462441756E+02  0.00000000000E+00 0.  1.
         21    1    1    2  504  505  0.13732846286E+02 -0.65778414141E+02 -0.15656438163E+02  0.68996484620E+02  0.00000000000E+00 0.  1.
         21    1    1    2  505  501 -0.64746071417E+02 -0.44604277987E+02 -0.67217875908E+02  0.10344002233E+03  0.00000000000E+00 0.  1.
          1    1    1    2  501    0  0.58645992460E+02  0.53944772841E+02  0.16235861159E+04  0.16255402999E+04  0.00000000000E+00 0.  1.
<scales pt_clust_3="56.95172" pt_clust_4="48.52288" pt_clust_5="14000.00000" pt_clust_6="79.66240"></scales>
<clustering>
<clus scale="   56.952">  2  3  1 -1</clus>
<clus scale="   48.523">  2  4  1 -1</clus>
<clus scale="   79.662">  1  6  2 -1</clus>
<clus scale="   56.952">  2  3  1 -1</clus>
</clustering>
</event>
<event>
 6    0  0.4945982E+002  0.8028333E+02  0.7546771E-02  0.1328249E+00
         21   -1    0    0  503  502  0.00000000000E+00  0.00000000000E+00  0.28075354566E+03  0.28075354566E+03  0.00000000000E+00 0. -1.
          2   -1    0    0  505    0 -0.00000000000E+00 -0.00000000000E+00 -0.37277040661E+03  0.37277040661E+03  0.00000000000E+00 0. -1.
         21    1    1    2  503  504 -0.56221742821E+02 -0.51585182995E+02  0.12149358237E+03  0.14346639337E+03  0.00000000000E+00 0. -1.
         21    1    1    2  504  501  0.60350837337E+02  0.61719393778E+02  0.96696749085E+02  0.12962163561E+03  0.00000000000E+00 0. -1.
         21    1    1    2  505  502  0.38129319474E+02 -0.36993438784E+02  0.11914710403E+02  0.54445567686E+02  0.00000000000E+00 0. -1.
          2    1    1    2  501    0 -0.42258413990E+02  0.26859228001E+02 -0.32212190280E+03  0.32599035560E+03  0.00000000000E+00 0. -1.
<scales pt_clust_3="14000.00000" pt_clust_4="80.28333" pt_clust_5="32.02937" pt_clust_6="50.07187"></scales>
<clustering>
<clus scale="   50.072">  2  6  1 -1</clus>
<clus scale="   32.029">  2  5  1 -1</clus>
<clus scale="   80.283">  2  4  1 -1</clus>
<clus scale="   80.283">  1  3  2 -1</clus>
</clustering>
</event>
<event>
 6    0  0.4945982E+002  0.5812655E+02  0.7546771E-02  0.1405866E+00
          3   -1    0    0  503    0 -0.00000000000E+00  0.00000000000E+00  0.28722877432E+03  0.28722877432E+03  0.00000000000E+00 0. -1.
         21   -1    0    0  504  502  0.00000000000E+00 -0.00000000000E+00 -0.15044516532E+04  0.15044516532E+04  0.00000000000E+00 0. -1.
         21    1    1    2  503  502 -0.59864023071E+02  0.48092147503E+02 -0.11789788365E+04  0.11814768947E+04  0.00000000000E+00 0. -1.
         21    1    1    2  504  505  0.85542224785E+01 -0.37485710798E+02 -0.15398174457E+03  0.15870958036E+03  0.00000000000E+00 0. -1.
         21    1    1    2  505  501  0.87727393121E+02  0.34119429230E+02 -0.15135900049E+03  0.17824078653E+03  0.00000000000E+00 0. -1.
          3    1    1    2  501    0 -0.36417592529E+02 -0.44725865935E+02  0.26709670264E+03  0.27325316593E+03  0.00000000000E+00 0. -1.
<scales pt_clust_3="54.55690" pt_clust_4="38.44936" pt_clust_5="14000.00000" pt_clust_6="58.12655"></scales>
<clustering>
<clus scale="   38.449">  2  4  1 -1</clus>
<clus scale="   54.557">  2  3  1 -1</clus>
<clus scale="   58.127">  1  6  2 -1</clus>
<clus scale="   38.449">  2  3  1 -1</clus>
</clustering>
</event>
<event>
 6    0  0.4945982E+002  0.1194473E+03  0.7546771E-02  0.1244012E+00
          2   -1    0    0  504    0 -0.00000000000E+00  0.00000000000E+00  0.19264541895E+04  0.19264541895E+04  0.00000000000E+00 0.  1.
         21   -1    0    0  503  502  0.00000000000E+00 -0.00000000000E+00 -0.12333944385E+03  0.12333944385E+03  0.00000000000E+00 0. -1.
         21    1    1    2  503  501  0.30606253476E+02 -0.63651789363E+01  0.26410248485E+02  0.40923825332E+02  0.00000000000E+00 0. -1.
         21    1    1    2  504  505 -0.17742498330E+03  0.87978819575E+02  0.16303706000E+03  0.25651701762E+03  0.00000000000E+00 0. -1.
         21    1    1    2  505  502  0.84110402849E+02  0.17344855843E+02 -0.39860501368E+02  0.94679794365E+02  0.00000000000E+00 0. -1.
          2    1    1    2  501    0  0.62708326972E+02 -0.98958496482E+02  0.16535279385E+04  0.16576729960E+04  0.00000000000E+00 0.  1.
<scales pt_clust_3="31.26113" pt_clust_4="14000.00000" pt_clust_5="102.75827" pt_clust_6="119.44734"></scales>
<clustering>
<clus scale="   31.261">  2  3  1 -1</clus>
<clus scale="  102.758">  2  5  1 -1</clus>
<clus scale="  119.447">  1  6  2 -1</clus>
<clus scale="   31.261">  2  3  1 -1</clus>
</clustering>
</event>
<event>
 6    0  0.4945982E+002  0.1069269E+03  0.7546771E-02  0.1266369E+00
         21   -1    0    0  504  502  0.00000000000E+00  0.00000000000E+00  0.17796680408E+03  0.17796680408E+03  0.00000000000E+00 0.  1.
          2   -1    0    0  502    0 -0.00000000000E+00 -0.00000000000E+00 -0.92318411445E+03  0.92318411445E+03  0.00000000000E+00 0. -1.
         21    1    1    2  503  505 -0.28426063487E+02 -0.56825022631E+02  0.50096374641E+02  0.80912119207E+02  0.00000000000E+00 0.  1.
         21    1    1    2  504  503 -0.27486967714E+02  0.46629595306E+02  0.78259556252E+02  0.95154667238E+02  0.00000000000E+00 0.  1.
         21    1    1    2  505  501 -0.11286337084E+02 -0.52499007350E+02 -0.75834786528E+01  0.54231322370E+02  0.00000000000E+00 0.  1.
          2    1    1    2  501    0  0.67199368284E+02  0.62694434675E+02 -0.86598976261E+03  0.87085280971E+03  0.00000000000E+00 0. -1.
<scales pt_clust_3="49.74137" pt_clust_4="54.12811" pt_clust_5="49.74137" pt_clust_6="92.22679"></scales>
<clustering>
<clus scale="   49.741">  3  5 -1 -1</clus>
<clus scale="   54.128">  1  4  2 -1</clus>
<clus scale="   92.227">  2  6  1 -1</clus>
<clus scale="   54.128">  1  3  2 -1</clus>
</clustering>
</event>
<event>
 6    0  0.4945982E+002  0.8068940E+02  0.7546771E-02  0.1327106E+00
         -2   -1    0    0    0  501 -0.00000000000E+00  0.00000000000E+00  0.66142774311E+02  0.66142774311E+02  0.00000000000E+00 0.  1.
         21   -1    0    0  504  502  0.00000000000E+00 -0.00000000000E+00 -0.10105817699E+04  0.10105817699E+04  0.00000000000E+00 0.  1.
         21    1    1    2  503  505 -0.71034023777E+02  0.63122671136E+02 -0.61258103535E+03  0.61990791979E+03  0.00000000000E+00 0.  1.
         21    1    1    2  504  503  0.58338661117E+00 -0.30024672643E+02 -0.27118211421E+03  0.27283980716E+03  0.00000000000E+00 0.  1.
         21    1    1    2  505  501 -0.34094502457E+02 -0.47657135921E+02 -0.51521964362E+02  0.78026601321E+02  0.00000000000E+00 0. -1.
         -2    1    1    2    0  502  0.10454513962E+03  0.14559137428E+02 -0.91538816384E+01  0.10595021591E+03  0.00000000000E+00 0.  1.
<scales pt_clust_3="14000.00000" pt_clust_4="30.03034" pt_clust_5="60.72948" pt_clust_6="80.68940"></scales>
<clustering>
<clus scale="   30.030">  2  4  1 -1</clus>
<clus scale="   60.729">  1  5  2 -1</clus>
<clus scale="   80.689">  1  6  2 -1</clus>
<clus scale="   30.030">  2  3  1 -1</clus>
</clustering>
</event>
<event>
 6    0  0.4945982E+002  0.8200097E+02  0.7546771E-02  0.1323467E+00
         21   -1    0    0  505  502  0.00000000000E+00  0.00000000000E+00  0.23572939971E+03  0.23572939971E+03  0.00000000000E+00 0. -1.
          3   -1    0    0  503    0 -0.00000000000E+00 -0.00000000000E+00 -0.31282328733E+03  0.31282328733E+03  0.00000000000E+00 0. -1.
         21    1    1    2  503  504 -0.11682124517E+03  0.11469270456E+02 -0.81967051130E+02  0.14316893853E+03  0.00000000000E+00 0. -1.
         21    1    1    2  504  502  0.52956856345E+02 -0.27126501579E+02  0.17924951633E+03  0.18886679122E+03  0.00000000000E+00 0. -1.
         21    1    1    2  505  501  0.55452237356E+02  0.58034800538E+02 -0.13969807949E+03  0.16111654824E+03  0.00000000000E+00 0. -1.
          3    1    1    2  501    0  0.84121514700E+01 -0.42377569415E+02 -0.34678273327E+02  0.55400409049E+02  0.00000000000E+00 0. -1.
<scales pt_clust_3="82.00097" pt_clust_4="59.98468" pt_clust_5="14000.00000" pt_clust_6="43.20443"></scales>
<clustering>
<clus scale="   43.204">  2  6  1 -1</clus>
<clus scale="   59.985">  1  4  2 -1</clus>
<clus scale="   82.001">  1  3  2 -1</clus>
<clus scale="   59.985">  1  3  2 -1</clus>
</clustering>
</event>
<event>
 6    0  0.4945982E+002  0.1079697E+03  0.7546771E-02  0.1264377E+00
          2   -1    0    0  505    0 -0.00000000000E+00  0.00000000000E+00  0.10940934408E+04  0.10940934408E+04  0.00000000000E+00 0. -1.
         21   -1    0    0  504  502  0.00000000000E+00 -0.00000000000E+00 -0.20002390504E+03  0.20002390504E+03  0.00000000000E+00 0. -1.
         21    1    1    2  503  501 -0.15982574838E+03 -0.40523039681E+02 -0.22470876718E+02  0.16640711190E+03  0.00000000000E+00 0. -1.
         21    1    1    2  504  503  0.14402310164E+02  0.65915976488E+02 -0.78856213491E+02  0.10378171756E+03  0.00000000000E+00 0. -1.
         21    1    1    2  505  502  0.42996467504E+02  0.51674894366E+01  0.30116857196E+02  0.52748689579E+02  0.00000000000E+00 0. -1.
          2    1    1    2  501    0  0.10242697071E+03 -0.30560426243E+02  0.96527976875E+03  0.97117982678E+03  0.00000000000E+00 0. -1.
<scales pt_clust_3="14000.00000" pt_clust_4="76.94484" pt_clust_5="43.30588" pt_clust_6="107.96968"></scales>
<clustering>
<clus scale="   43.306">  2  5  1 -1</clus>
<clus scale="   76.945">  2  4  1 -1</clus>
<clus scale="  107.970">  1  6  2 -1</clus>
<clus scale="   43.306">  2  3  1 -1</clus>
</clustering>
</event>
<event>
 6    0  0.4945982E+002  0.2311933E+03  0.7546771E-02  0.1125803E+00
          1   -1    0    0  504    0 -0.00000000000E+00  0.00000000000E+00  0.49223401697E+03  0.49223401697E+03  0.00000000000E+00 0. -1.
         21   -1    0    0  503  502  0.00000000000E+00 -0.00000000000E+00 -0.33035464235E+03  0.33035464235E+03  0.00000000000E+00 0. -1.
         21    1    1    2  503  501  0.36451258888E+02  0.26006438242E+02 -0.16513580702E+02  0.47725542974E+02  0.00000000000E+00 0.  1.
         21    1    1    2  504  505 -0.22788363697E+03 -0.14116720541E+02 -0.18557461021E+03  0.29422469263E+03  0.00000000000E+00 0. -1.
         21    1    1    2  505  502 -0.18215238485E+02  0.25709304987E+02 -0.22942938508E+02  0.38976168403E+02  0.00000000000E+00 0. -1.
          1    1    1    2  501    0  0.20964761657E+03 -0.37599022688E+02  0.38691050404E+03  0.44166225532E+03  0.00000000000E+00 0. -1.
<scales pt_clust_3="44.77755" pt_clust_4="30.73268" pt_clust_5="30.73268" pt_clust_6="215.88455"></scales>
<clustering>
<clus scale="   30.733">  4  5 -1 -1</clus>
<clus scale="   44.778">  2  3  1 -1</clus>
<clus scale="  215.885">  1  6  2 -1</clus>
<clus scale="   44.778">  2  3  1 -1</clus>
</clustering>
</event>
<event>
 6    0  0.4945982E+002  0.1126780E+03  0.7546771E-02  0.1255689E+00
         21   -1    0    0  505  502  0.00000000000E+00  0.00000000000E+00  0.49160277841E+02  0.49160277841E+02  0.00000000000E+00 0. -1.
          2   -1    0    0  504    0 -0.00000000000E+00 -0.00000000000E+00 -0.23484446109E+04  0.23484446109E+04  0.00000000000E+00 0. -1.
         21    1    1    2  503  501 -0.82428984854E+02 -0.77570525898E+02 -0.93426114753E+02  0.14676567361E+03  0.00000000000E+00 0. -1.
         21    1    1    2  504  502  0.25561031640E+02  0.11187626767E+03 -0.30870564870E+03  0.32934608415E+03  0.00000000000E+00 0. -1.
         21    1    1    2  505  503  0.22039994429E+02 -0.24085794179E+02 -0.10218093265E+02  0.34209593181E+02  0.00000000000E+00 0. -1.
          2    1    1    2  501    0  0.34827958785E+02 -0.10219947592E+02 -0.18869344764E+04  0.18872835378E+04  0.00000000000E+00 0. -1.
<scales pt_clust_3="14000.00000" pt_clust_4="112.67804" pt_clust_5="32.64792" pt_clust_6="36.42773"></scales>
<clustering>
<clus scale="   32.648">  1  5  2 -1</clus>
<clus scale="   36.428">  2  6  1 -1</clus>
<clus scale="  112.678">  2  4  1 -1</clus>
<clus scale="   32.648">  1  3  2 -1</clus>
</clustering>
</event>
<event>
 6    0  0.4945982E+002  0.1255609E+03  0.7546771E-02  0.1234195E+00
         21   -1    0    0  505  502  0.00000000000E+00  0.00000000000E+00  0.14313363260E+03  0.14313363260E+03  0.00000000000E+00 0. -1.
         -3   -1    0    0    0  501 -0.00000000000E+00 -0.00000000000E+00 -0.12411218577E+04  0.12411218577E+04  0.00000000000E+00 0.  1.
         21    1    1    2  503  501  0.41109678047E+02 -0.11478593435E+02  0.25642596130E+02  0.49792634723E+02  0.00000000000E+00 0. -1.
         21    1    1    2  504  502 -0.54721461176E+02 -0.61250667724E+02  0.13507092062E+02  0.83237756733E+02  0.00000000000E+00 0.  1.
         21    1    1    2  505  503  0.22395057998E+02 -0.47759542442E+02  0.41062091513E+02  0.66847646753E+02  0.00000000000E+00 0. -1.
         -3    1    1    2    0  504 -0.87832748684E+01  0.12048880360E+03 -0.11782000048E+04  0.11843774521E+04  0.00000000000E+00 0.  1.
<scales pt_clust_3="36.13175" pt_clust_4="82.13454" pt_clust_5="36.13175" pt_clust_6="118.96258"></scales>
<clustering>
<clus scale="   36.132">  3  5 -1 -1</clus>
<clus scale="   82.135">  1  4  2 -1</clus>
<clus scale="  118.963">  2  6  1 -1</clus>
<clus scale="   82.135">  1  3  2 -1</clus>
</clustering>
</event>
<event>
 6    0  0.4945982E+002  0.1687096E+03  0.7546771E-02  0.1179200E+00
         21   -1    0    0  504  502  0.00000000000E+00  0.00000000000E+00  0.16364029612E+04  0.16364029612E+04  0.00000000000E+00 0.  1.
          3   -1    0    0  503    0 -0.00000000000E+00 -0.00000000000E+00 -0.32026396641E+03  0.32026396641E+03  0.00000000000E+00 0. -1.
         21    1    1    2  503  505 -0.15737725412E+02 -0.13865339883E+03  0.42495342498E+03  0.44727827402E+03  0.00000000000E+00 0.  1.
         21    1    1    2  504  501 -0.42410299184E+02  0.58520779206E+02  0.76445088421E+03  0.76785966781E+03  0.00000000000E+00 0.  1.
         21    1    1    2  505  502  0.43553323174E+01 -0.58565581889E+02  0.41393848249E+03  0.41808368012E+03  0.00000000000E+00 0.  1.
          3    1    1    2  501    0  0.53792692278E+02  0.13869820151E+03 -0.28720379686E+03  0.32344530569E+03  0.00000000000E+00 0. -1.
<scales pt_clust_3="50.61267" pt_clust_4="72.27251" pt_clust_5="50.61267" pt_clust_6="149.58651"></scales>
<clustering>
<clus scale="   50.613">  3  5 -1 -1</clus>
<clus scale="   72.273">  1  4  2 -1</clus>
<clus scale="  149.587">  2  6  1 -1</clus>
<clus scale="   72.273">  1  3  2 -1</clus>
</clustering>
</event>
<event>
 6    0  0.4945982E+002  0.1335920E+03  0.7546771E-02  0.1222221E+00
          1   -1    0    0  502    0 -0.00000000000E+00  0.00000000000E+00  0.21930834287E+03  0.21930834287E+03  0.00000000000E+00 0.  1.
         21   -1    0    0  503  502  0.00000000000E+00 -0.00000000000E+00 -0.36032725756E+03  0.36032725756E+03  0.00000000000E+00 0.  1.
         21    1    1    2  503  504  0.36691697654E+02 -0.13102693825E+03 -0.29607726649E+03  0.32584672310E+03  0.00000000000E+00 0.  1.
         21    1    1    2  504  505 -0.20625362304E+02  0.47091831191E+02  0.16070141565E+02  0.53863675933E+02  0.00000000000E+00 0.  1.
         21    1    1    2  505  501  0.52449952463E+01  0.55528290426E+02 -0.71401862253E+00  0.55780021830E+02  0.00000000000E+00 0.  1.
          1    1    1    2  501    0 -0.21311330596E+02  0.28406816633E+02  0.13970222886E+03  0.14414517957E+03  0.00000000000E+00 0.  1.
<scales pt_clust_3="129.72405" pt_clust_4="30.63952" pt_clust_5="30.63952" pt_clust_6="35.51225"></scales>
<clustering>
<clus scale="   30.640">  4  5 -1 -1</clus>
<clus scale="   35.512">  1  6  2 -1</clus>
<clus scale="  129.724">  2  3  1 -1</clus>
<clus scale="  129.724">  2  3  1 -1</clus>
</clustering>
</event>
<event>
 6    0  0.4945982E+002  0.1597371E+03  0.7546771E-02  0.1188994E+00
          2   -1    0    0  504    0 -0.00000000000E+00  0.00000000000E+00  0.11807940851E+04  0.11807940851E+04  0.00000000000E+00 0.  1.
         21   -1    0    0  503  502  0.00000000000E+00 -0.00000000000E+00 -0.10483204796E+03  0.10483204796E+03  0.00000000000E+00 0.  1.
         21    1    1    2  503  501 -0.27462941794E+02  0.36454394364E+02 -0.17083187098E+02  0.48733677491E+02  0.00000000000E+00 0.  1.
         21    1    1    2  504  505  0.87133924327E+01 -0.80369490140E+02  0.63144918114E+02  0.10257903702E+03  0.00000000000E+00 0.  1.
         21    1    1    2  505  502  0.47347305204E+02 -0.96582233643E+02  0.14145852938E+02  0.10848963232E+03  0.00000000000E+00 0. -1.
          2    1    1    2  501    0 -0.28597755843E+02  0.14049732942E+03  0.10157544532E+04  0.10258237863E+04  0.00000000000E+00 0.  1.
<scales pt_clust_3="45.64139" pt_clust_4="60.83992" pt_clust_5="60.83992" pt_clust_6="146.26872"></scales>
<clustering>
<clus scale="   45.641">  2  3  1 -1</clus>
<clus scale="   60.840">  4  5 -1 -1</clus>
<clus scale="  146.269">  1  6  2 -1</clus>
<clus scale="   45.641">  2  3  1 -1</clus>
</clustering>
</event>
<event>
 6    0  0.4945982E+002  0.9868150E+02  0.7546771E-02  0.1283093E+00
          1   -1    0    0  503    0 -0.00000000000E+00  0.00000000000E+00  0.33989570519E+04  0.33989570519E+04  0.00000000000E+00 0.  1.
         21   -1    0    0  501  502  0.00000000000E+00 -0.00000000000E+00 -0.10866267158E+03  0.10866267158E+03  0.00000000000E+00 0. -1.
         21    1    1    2  503  504  0.20168485660E+02  0.29485055421E+02  0.12981166920E+03  0.13463731194E+03  0.00000000000E+00 0.  1.
         21    1    1    2  504  505  0.29767385576E+02 -0.12734190290E+03  0.28540849046E+04  0.28570794004E+04  0.00000000000E+00 0.  1.
         21    1    1    2  505  502  0.50909144437E+01  0.39517407424E+02 -0.96866960352E+02  0.10474135242E+03  0.00000000000E+00 0. -1.
          1    1    1    2  501    0 -0.55026785680E+02  0.58339440054E+02  0.40326476690E+03  0.41116165875E+03  0.00000000000E+00 0.  1.
<scales pt_clust_3="35.72305" pt_clust_4="98.68150" pt_clust_5="39.88234" pt_clust_6="14000.00000"></scales>
<clustering>
<clus scale="   35.723">  1  3  2 -1</clus>
<clus scale="   39.882">  2  5  1 -1</clus>
<clus scale="   98.681">  1  4  2 -1</clus>
<clus scale="   39.882">  2  3  1 -1</clus>
</clustering>
</event>
<event>
 6    0  0.4945982E+002  0.7917656E+02  0.7546771E-02  0.1331405E+00
         21   -1    0    0  504  502  0.00000000000E+00  0.00000000000E+00  0.31435769905E+03  0.31435769905E+03  0.00000000000E+00 0.  1.
          1   -1    0    0  505    0 -0.00000000000E+00 -0.00000000000E+00 -0.83285168938E+03  0.83285168938E+03  0.00000000000E+00 0.  1.
         21    1    1    2  503  502 -0.76628798186E+02 -0.34802708557E+02 -0.20814180479E+03  0.22451327831E+03  0.00000000000E+00 0. -1.
         21    1    1    2  504  501  0.31493600200E+02 -0.22314176086E+02  0.29466382418E+03  0.29718098625E+03  0.00000000000E+00 0.  1.
         21    1    1    2  505  503  0.29551877659E+02 -0.44889734928E+02 -0.16374253204E+03  0.17233693328E+03  0.00000000000E+00 0.  1.
          1    1    1    2  501    0  0.15583320327E+02  0.10200661957E+03 -0.44127347769E+03  0.45317819058E+03  0.00000000000E+00 0.  1.
<scales pt_clust_3="14000.00000" pt_clust_4="38.59753" pt_clust_5="62.21097" pt_clust_6="79.17656"></scales>
<clustering>
<clus scale="   38.598">  1  4  2 -1</clus>
<clus scale="   62.211">  2  5  1 -1</clus>
<clus scale="   79.177">  2  6  1 -1</clus>
<clus scale="   38.598">  1  3  2 -1</clus>
</clustering>
</event>
<event>
 6    0  0.4945982E+002  0.2400400E+03  0.7546771E-02  0.1119766E+00
          1   -1    0    0  503    0 -0.00000000000E+00  0.00000000000E+00  0.15569266888E+04  0.15569266888E+04  0.00000000000E+00 0. -1.
         21   -1    0    0  504  502  0.00000000000E+00 -0.00000000000E+00 -0.31543062603E+03  0.31543062603E+03  0.00000000000E+00 0. -1.
         21    1    1    2  503  502  0.14572981988E+03  0.55179881229E+02  0.23030162610E+03  0.27806624872E+03  0.00000000000E+00 0.  1.
         21    1    1    2  504  505 -0.14627271163E+03 -0.76661199779E+02 -0.17657918751E+03  0.24177025289E+03  0.00000000000E+00 0. -1.
         21    1    1    2  505  501 -0.87833685339E+02 -0.10286444286E+02 -0.56347672736E+02  0.10486003738E+03  0.00000000000E+00 0. -1.
          1    1    1    2  501    0  0.88376577086E+02  0.31767762835E+02  0.12441212970E+04  0.12476607759E+04  0.00000000000E+00 0. -1.
<scales pt_clust_3="232.56671" pt_clust_4="43.48949" pt_clust_5="43.48949" pt_clust_6="93.91278"></scales>
<clustering>
<clus scale="   43.489">  4  5 -1 -1</clus>
<clus scale="   93.913">  1  6  2 -1</clus>
<clus scale="  232.567">  1  3  2 -1</clus>
<clus scale="  240.040">  2  3  1 -1</clus>
</clustering>
</event>
<event>
 6    0  0.4945982E+002  0.1524758E+03  0.7546771E-02  0.1197463E+00
         21   -1    0    0  504  502  0.00000000000E+00  0.00000000000E+00  0.37723025004E+04  0.37723025004E+04  0.00000000000E+00 0. -1.
          2   -1    0    0  505    0 -0.00000000000E+00 -0.00000000000E+00 -0.12623137810E+04  0.12623137810E+04  0.00000000000E+00 0.  1.
         21    1    1    2  503  502 -0.98021470926E+02 -0.76256581373E+02  0.29949935237E+04  0.29975672606E+04  0.00000000000E+00 0. -1.
         21    1    1    2  504  501  0.32187515735E+02  0.81927649870E+01  0.16632896069E+03  0.16961273753E+03  0.00000000000E+00 0.  1.
         21    1    1    2  505  503 -0.32531918748E+02 -0.35547741174E+02  0.60303526069E+03  0.60495743096E+03  0.00000000000E+00 0.  1.
          2    1    1    2  501    0  0.98365873938E+02  0.10361155756E+03 -0.12543690257E+04  0.12624788524E+04  0.00000000000E+00 0.  1.
<scales pt_clust_3="33.12895" pt_clust_4="33.21382" pt_clust_5="33.12895" pt_clust_6="142.89939"></scales>
<clustering>
<clus scale="   33.129">  3  5 -1 -1</clus>
<clus scale="   33.214">  1  4  2 -1</clus>
<clus scale="  142.899">  2  6  1 -1</clus>
<clus scale="   33.214">  1  3  2 -1</clus>
</clustering>
</event>
<event>
 6    0  0.4945982E+002  0.1418510E+03  0.7546771E-02  0.1210860E+00
         21   -1    0    0  505  502  0.00000000000E+00  0.00000000000E+00  0.25104102620E+03  0.25104102620E+03  0.00000000000E+00 0.  1.
         -2   -1    0    0    0  501 -0.00000000000E+00 -0.00000000000E+00 -0.20252689621E+03  0.20252689621E+03  0.00000000000E+00 0. -1.
         21    1    1    2  503  501 -0.47843744077E+02  0.31331124762E+01  0.79952728441E+00  0.47952888182E+02  0.00000000000E+00 0.  1.
         21    1    1    2  504  503 -0.78161770243E+02  0.54355866522E+02  0.89569610692E+02  0.13071548383E+03  0.00000000000E+00 0.  1.
         21    1    1    2  505  504 -0.83274525181E+01  0.37842694546E+02  0.67042994610E+02  0.77434999336E+02  0.00000000000E+00 0.  1.
         -2    1    1    2    0  502  0.13433296684E+03 -0.95331673544E+02 -0.10889800259E+03  0.19746455107E+03  0.00000000000E+00 0. -1.
<scales pt_clust_3="47.94622" pt_clust_4="33.86724" pt_clust_5="33.86724" pt_clust_6="131.54301"></scales>
<clustering>
<clus scale="   33.867">  4  5 -1 -1</clus>
<clus scale="   47.946">  2  3  1 -1</clus>
<clus scale="  131.543">  2  6  1 -1</clus>
<clus scale="  141.851">  1  3  2 -1</clus>
</clustering>
</event>
<event>
 6    0  0.4945982E+002  0.1502762E+03  0.7546771E-02  0.1200134E+00
          1   -1    0    0  505    0 -0.00000000000E+00  0.00000000000E+00  0.90782297137E+03  0.90782297137E+03  0.00000000000E+00 0.  1.
         21   -1    0    0  503  502  0.00000000000E+00 -0.00000000000E+00 -0.11068455987E+04  0.11068455987E+04  0.00000000000E+00 0.  1.
         21    1    1    2  503  504 -0.46254562309E+02  0.22020348815E+02 -0.10077781383E+03  0.11305108605E+03  0.00000000000E+00 0. -1.
         21    1    1    2  504  501 -0.36571724569E+02  0.61379123713E+02 -0.12666131211E+03  0.14542343639E+03  0.00000000000E+00 0. -1.
         21    1    1    2  505  502  0.99473878498E+02 -0.12510140463E+03 -0.85592172704E+03  0.87071661105E+03  0.00000000000E+00 0.  1.
          1    1    1    2  501    0 -0.16647591620E+02  0.41701932098E+02  0.88433822562E+03  0.88547743661E+03  0.00000000000E+00 0.  1.
<scales pt_clust_3="30.11486" pt_clust_4="30.11486" pt_clust_5="146.00711" pt_clust_6="44.90204"></scales>
<clustering>
<clus scale="   30.115">  3  4 -1 -1</clus>
<clus scale="   44.902">  1  6  2 -1</clus>
<clus scale="  146.007">  2  5  1 -1</clus>
<clus scale="  146.007">  2  3  1 -1</clus>
</clustering>
</event>
<event>
 6    0  0.4945982E+002  0.1375025E+03  0.7546771E-02  0.1216730E+00
          2   -1    0    0  505    0 -0.00000000000E+00  0.00000000000E+00  0.97013058865E+03  0.97013058865E+03  0.00000000000E+00 0. -1.
         21   -1    0    0  501  502  0.00000000000E+00 -0.00000000000E+00 -0.15588677493E+03  0.15588677493E+03  0.00000000000E+00 0. -1.
         21    1    1    2  503  504  0.25596497138E+02 -0.70263766484E+02 -0.52210241936E+01  0.74962901757E+02  0.00000000000E+00 0. -1.
         21    1    1    2  504  502 -0.60418662793E+02  0.93086301088E+02 -0.33412528884E+02  0.11589595053E+03  0.00000000000E+00 0. -1.
         21    1    1    2  505  503  0.56640493022E+02 -0.97198238779E+02  0.41224030176E+02  0.11981261927E+03  0.00000000000E+00 0.  1.
          2    1    1    2  501    0 -0.21818327367E+02  0.74375704175E+02  0.81165333662E+03  0.81534589202E+03  0.00000000000E+00 0. -1.
<scales pt_clust_3="34.92396" pt_clust_4="130.66023" pt_clust_5="34.92396" pt_clust_6="77.50990"></scales>
<clustering>
<clus scale="   34.924">  3  5 -1 -1</clus>
<clus scale="   77.510">  1  6  2 -1</clus>
<clus scale="  130.660">  2  4  1 -1</clus>
<clus scale="  130.660">  2  3  1 -1</clus>
</clustering>
</event>
<event>
 6    0  0.4945982E+002  0.1375983E+03  0.7546771E-02  0.1216598E+00
          2   -1    0    0  504    0 -0.00000000000E+00  0.00000000000E+00  0.34062818967E+04  0.34062818967E+04  0.00000000000E+00 0. -1.
         21   -1    0    0  503  502  0.00000000000E+00 -0.00000000000E+00 -0.11689856496E+03  0.11689856496E+03  0.00000000000E+00 0. -1.
         21    1    1    2  503  505 -0.42478835858E+02  0.21581327957E+02 -0.69980925953E+02  0.84661296999E+02  0.00000000000E+00 0. -1.
         21    1    1    2  504  502 -0.22986596019E+02  0.70845180353E+02  0.52159397330E+02  0.90928685824E+02  0.00000000000E+00 0. -1.
         21    1    1    2  505  501 -0.52724848125E+02 -0.10317214261E+02  0.20138397298E+02  0.57375165059E+02  0.00000000000E+00 0. -1.
          2    1    1    2  501    0  0.11819028000E+03 -0.82109294049E+02  0.32870664631E+04  0.32902153138E+04  0.00000000000E+00 0. -1.
<scales pt_clust_3="47.64667" pt_clust_4="14000.00000" pt_clust_5="72.70831" pt_clust_6="137.59827"></scales>
<clustering>
<clus scale="   47.647">  2  3  1 -1</clus>
<clus scale="   72.708">  2  5  1 -1</clus>
<clus scale="  137.598">  1  6  2 -1</clus>
<clus scale="   47.647">  2  3  1 -1</clus>
</clustering>
</event>
<event>
 6    0  0.4945982E+002  0.2754863E+03  0.7546771E-02  0.1098180E+00
          2   -1    0    0  503    0 -0.00000000000E+00  0.00000000000E+00  0.37839990352E+04  0.37839990352E+04  0.00000000000E+00 0.  1.
         21   -1    0    0  505  502  0.00000000000E+00 -0.00000000000E+00 -0.52124758627E+02  0.52124758627E+02  0.00000000000E+00 0.  1.
         21    1    1    2  503  504  0.16373564642E+03  0.14280743608E+03  0.97466509022E+03  0.99858668317E+03  0.00000000000E+00 0.  1.
         21    1    1    2  504  502  0.19260847203E+03 -0.90959454672E+01  0.37911998107E+03  0.42533835915E+03  0.00000000000E+00 0.  1.
         21    1    1    2  505  501 -0.34312050255E+02 -0.59651584423E+01  0.69273849551E+02  0.77535579830E+02  0.00000000000E+00 0.  1.
          2    1    1    2  501    0 -0.32203206819E+03 -0.12774633217E+03  0.23088153557E+04  0.23346631717E+04  0.00000000000E+00 0.  1.
<scales pt_clust_3="14000.00000" pt_clust_4="176.49338" pt_clust_5="34.82671" pt_clust_6="275.48628"></scales>
<clustering>
<clus scale="   34.827">  2  5  1 -1</clus>
<clus scale="  176.493">  2  4  1 -1</clus>
<clus scale="  275.486">  2  6  1 -1</clus>
<clus scale="   34.827">  2  3  1 -1</clus>
</clustering>
</event>
<event>
 6    0  0.4945982E+002  0.8098859E+02  0.7546771E-02  0.1326269E+00
         21   -1    0    0  505  502  0.00000000000E+00  0.00000000000E+00  0.13254466047E+04  0.13254466047E+04  0.00000000000E+00 0.  1.
         -2   -1    0    0    0  501 -0.00000000000E+00 -0.00000000000E+00 -0.14101315123E+04  0.14101315123E+04  0.00000000000E+00 0.  1.
         21    1    1    2  503  504 -0.97150194368E+02  0.15857544116E+02  0.41551764675E+02  0.10684648389E+03  0.00000000000E+00 0.  1.
         21    1    1    2  504  502 -0.30596068684E+02 -0.26964377763E+02  0.18714934633E+03  0.19154131386E+03  0.00000000000E+00 0. -1.
         21    1    1    2  505  501  0.10637012389E+03  0.40960252702E+02  0.10585970830E+04  0.10647159855E+04  0.00000000000E+00 0.  1.
         -2    1    1    2    0  503  0.21376139165E+02 -0.29853419054E+02 -0.13719831016E+04  0.13724743338E+04  0.00000000000E+00 0.  1.
<scales pt_clust_3="80.98859" pt_clust_4="41.05136" pt_clust_5="14000.00000" pt_clust_6="36.71738"></scales>
<clustering>
<clus scale="   36.717">  2  6  1 -1</clus>
<clus scale="   41.051">  1  4  2 -1</clus>
<clus scale="   80.989">  2  3  1 -1</clus>
<clus scale="   41.051">  1  3  2 -1</clus>
</clustering>
</event>
<event>
 6    0  0.4945982E+002  0.2314455E+03  0.7546771E-02  0.1125626E+00
         -4   -1    0    0    0  501 -0.00000000000E+00  0.00000000000E+00  0.10883303124E+03  0.10883303124E+03  0.00000000000E+00 0.  1.
         21   -1    0    0  503  502  0.00000000000E+00 -0.00000000000E+00 -0.14041308037E+04  0.14041308037E+04  0.00000000000E+00 0.  1.
         21    1    1    2  503  505  0.99222852858E+02  0.24718602064E+02 -0.42067726871E+03  0.43292672385E+03  0.00000000000E+00 0.  1.
         21    1    1    2  504  502 -0.18774437470E+03  0.20766097262E+02 -0.65103303082E+03  0.67788139688E+03  0.00000000000E+00 0.  1.
         21    1    1    2  505  501  0.14905196149E+03  0.13598296547E+02 -0.26774396579E+03  0.30673805129E+03  0.00000000000E+00 0.  1.
         -4    1    1    2    0  504 -0.60530439649E+02 -0.59082995873E+02  0.44156492884E+02  0.95417662879E+02  0.00000000000E+00 0.  1.
<scales pt_clust_3="82.95147" pt_clust_4="208.55552" pt_clust_5="82.95147" pt_clust_6="84.58566"></scales>
<clustering>
<clus scale="   82.951">  3  5 -1 -1</clus>
<clus scale="   84.586">  1  6  2 -1</clus>
<clus scale="  208.556">  2  4  1 -1</clus>
<clus scale="  208.556">  2  3  1 -1</clus>
</clustering>
</event>
<event>
 6    0  0.4945982E+002  0.1016088E+03  0.7546771E-02  0.1276949E+00
         21   -1    0    0  504  502  0.00000000000E+00  0.00000000000E+00  0.93802744112E+02  0.93802744112E+02  0.00000000000E+00 0. -1.
          2   -1    0    0  503    0 -0.00000000000E+00 -0.00000000000E+00 -0.29062618840E+04  0.29062618840E+04  0.00000000000E+00 0.  1.
         21    1    1    2  503  502  0.40745624854E+02  0.80758769195E+02  0.50585645583E+02  0.10363924105E+03  0.00000000000E+00 0. -1.
         21    1    1    2  504  505 -0.45486178057E+02 -0.49466820720E+02 -0.10454501467E+03  0.12428040408E+03  0.00000000000E+00 0.  1.
         21    1    1    2  505  501 -0.51299418594E+02 -0.55173945319E+02 -0.21325550066E+03  0.22617184429E+03  0.00000000000E+00 0.  1.
          2    1    1    2  501    0  0.56039971797E+02  0.23881996844E+02 -0.25452442701E+04  0.25459731387E+04  0.00000000000E+00 0.  1.
<scales pt_clust_3="93.92482" pt_clust_4="36.60864" pt_clust_5="36.60864" pt_clust_6="60.91657"></scales>
<clustering>
<clus scale="   36.609">  4  5 -1 -1</clus>
<clus scale="   60.917">  2  6  1 -1</clus>
<clus scale="   93.925">  1  3  2 -1</clus>
<clus scale="   93.925">  1  3  2 -1</clus>
</clustering>
</event>
<event>
 6    0  0.4945982E+002  0.8215659E+02  0.7546771E-02  0.1323040E+00
         21   -1    0    0  504  502  0.00000000000E+00  0.00000000000E+00  0.61012849309E+03  0.61012849309E+03  0.00000000000E+00 0.  1.
         -3   -1    0    0    0  501 -0.00000000000E+00 -0.00000000000E+00 -0.62079335554E+02  0.62079335554E+02  0.00000000000E+00 0. -1.
         21    1    1    2  503  502 -0.25831283269E+02  0.33871038109E+02  0.82087737085E+02  0.92481884700E+02  0.00000000000E+00 0. -1.
         21    1    1    2  504  501 -0.91983039302E+02 -0.47627935710E+02  0.40085817340E+03  0.41402484824E+03  0.00000000000E+00 0.  1.
         21    1    1    2  505  503  0.43051005212E+02 -0.15440841284E+02  0.71832533503E+02  0.85157040218E+02  0.00000000000E+00 0. -1.
         -3    1    1    2    0  505  0.74763317358E+02  0.29197738885E+02 -0.67292864488E+01  0.80544055488E+02  0.00000000000E+00 0. -1.
<scales pt_clust_3="42.59698" pt_clust_4="14000.00000" pt_clust_5="40.51865" pt_clust_6="82.15659"></scales>
<clustering>
<clus scale="   42.597">  1  3  2 -1</clus>
<clus scale="   40.519">  1  5  2 -1</clus>
<clus scale="   82.157">  2  6  1 -1</clus>
<clus scale="   42.597">  1  3  2 -1</clus>
</clustering>
</event>
<event>
 6    0  0.4945982E+002  0.8532123E+02  0.7546771E-02  0.1314595E+00
         21   -1    0    0  503  502  0.00000000000E+00  0.00000000000E+00  0.47937320788E+02  0.47937320788E+02  0.00000000000E+00 0.  1.
          2   -1    0    0  504    0 -0.00000000000E+00 -0.00000000000E+00 -0.13964738945E+04  0.13964738945E+04  0.00000000000E+00 0.  1.
         21    1    1    2  503  501 -0.53308754430E+02 -0.15058035169E+02 -0.19361530917E+02  0.58680802666E+02  0.00000000000E+00 0. -1.
         21    1    1    2  504  505  0.27883821017E+02  0.91660896240E+02 -0.25298074845E+03  0.27051522408E+03  0.00000000000E+00 0. -1.
         21    1    1    2  505  502  0.59517595511E+02 -0.73086578953E+02 -0.96401053199E+02  0.13482268079E+03  0.00000000000E+00 0.  1.
          2    1    1    2  501    0 -0.34092662097E+02 -0.35162821175E+01 -0.97979324116E+03  0.98039250776E+03  0.00000000000E+00 0.  1.
<scales pt_clust_3="58.56151" pt_clust_4="14000.00000" pt_clust_5="85.32123" pt_clust_6="34.27352"></scales>
<clustering>
<clus scale="   34.274">  2  6  1 -1</clus>
<clus scale="   58.562">  1  3  2 -1</clus>
<clus scale="   85.321">  1  5  2 -1</clus>
<clus scale="   58.562">  1  3  2 -1</clus>
</clustering>
</event>
<event>
 6    0  0.4945982E+002  0.7727395E+02  0.7546771E-02  0.1336971E+00
          2   -1    0    0  504    0 -0.00000000000E+00  0.00000000000E+00  0.36526825505E+03  0.36526825505E+03  0.00000000000E+00 0.  1.
         21   -1    0    0  501  502  0.00000000000E+00 -0.00000000000E+00 -0.12316999600E+03  0.12316999600E+03  0.00000000000E+00 0.  1.
         21    1    1    2  503  505  0.48664996131E+01  0.93480488658E+02 -0.12410681561E+02  0.94426212436E+02  0.00000000000E+00 0.  1.
         21    1    1    2  504  503 -0.55854277335E+02  0.16635087324E+02  0.14888759186E+02  0.60150657328E+02  0.00000000000E+00 0.  1.
         21    1    1    2  505  502  0.57999030226E+02 -0.52903213645E+02 -0.86595056597E+01  0.78978633562E+02  0.00000000000E+00 0.  1.
          2    1    1    2  501    0 -0.70112525034E+01 -0.57212362337E+02  0.24827968709E+03  0.25488274772E+03  0.00000000000E+00 0.  1.
<scales pt_clust_3="14000.00000" pt_clust_4="58.21154" pt_clust_5="77.27395" pt_clust_6="57.64037"></scales>
<clustering>
<clus scale="   57.640">  1  6  2 -1</clus>
<clus scale="   58.212">  1  4  2 -1</clus>
<clus scale="   77.274">  2  5  1 -1</clus>
<clus scale="   77.274">  2  3  1 -1</clus>
</clustering>
</event>
<event>
 6    0  0.4945982E+002  0.2334503E+03  0.7546771E-02  0.1124235E+00
          1   -1    0    0  504    0 -0.00000000000E+00  0.00000000000E+00  0.15690410566E+04  0.15690410566E+04  0.00000000000E+00 0. -1.
         21   -1    0    0  503  502  0.00000000000E+00 -0.00000000000E+00 -0.30678073614E+03  0.30678073614E+03  0.00000000000E+00 0. -1.
         21    1    1    2  503  501  0.96390849959E+02 -0.19624823143E+02 -0.25967537921E+03  0.27768261056E+03  0.00000000000E+00 0. -1.
         21    1    1    2  504  505 -0.12511610783E+02 -0.79231662455E+02  0.23104688191E+03  0.24457485230E+03  0.00000000000E+00 0. -1.
         21    1    1    2  505  502 -0.50223430896E+02 -0.13723767341E+03  0.72320383776E+03  0.73782136250E+03  0.00000000000E+00 0. -1.
          1    1    1    2  501    0 -0.33655808280E+02  0.23609415901E+03  0.56768497998E+03  0.61574296735E+03  0.00000000000E+00 0. -1.
<scales pt_clust_3="98.36834" pt_clust_4="45.14571" pt_clust_5="45.14571" pt_clust_6="225.35712"></scales>
<clustering>
<clus scale="   45.146">  4  5 -1 -1</clus>
<clus scale="   98.368">  2  3  1 -1</clus>
<clus scale="  225.357">  2  6  1 -1</clus>
<clus scale="   98.368">  2  3  1 -1</clus>
</clustering>
</event>
<event>
 6    0  0.4945982E+002  0.9933344E+02  0.7546771E-02  0.1281704E+00
          1   -1    0    0  503    0 -0.00000000000E+00  0.00000000000E+00  0.11392353039E+04  0.11392353039E+04  0.00000000000E+00 0. -1.
         21   -1    0    0  505  502  0.00000000000E+00 -0.00000000000E+00 -0.35043081540E+02  0.35043081540E+02  0.00000000000E+00 0. -1.
         21    1    1    2  503  502  0.89770663145E+02  0.20182750306E+02  0.10299039772E+03  0.13810552992E+03  0.00000000000E+00 0. -1.
         21    1    1    2  504  501 -0.75083474762E+01  0.48768730602E+02  0.10601599615E+03  0.11693654607E+03  0.00000000000E+00 0.  1.
         21    1    1    2  505  504 -0.11278376332E+03 -0.37513522671E+02  0.30371200061E+03  0.32614171915E+03  0.00000000000E+00 0.  1.
          1    1    1    2  501    0  0.30521447656E+02 -0.31437958237E+02  0.59147382783E+03  0.59309459026E+03  0.00000000000E+00 0. -1.
<scales pt_clust_3="14000.00000" pt_clust_4="42.38080" pt_clust_5="99.33344" pt_clust_6="43.81671"></scales>
<clustering>
<clus scale="   43.817">  1  6  2 -1</clus>
<clus scale="   42.381">  1  4  2 -1</clus>
<clus scale="   99.333">  1  5  2 -1</clus>
<clus scale="   99.333">  2  3  1 -1</clus>
</clustering>
</event>
<event>
 6    0  0.4945982E+002  0.3807036E+03  0.7546771E-02  0.1050674E+00
          1   -1    0    0  503    0 -0.00000000000E+00  0.00000000000E+00  0.13213552227E+04  0.13213552227E+04  0.00000000000E+00 0.  1.
         21   -1    0    0  505  502  0.00000000000E+00 -0.00000000000E+00 -0.21967563598E+03  0.21967563598E+03  0.00000000000E+00 0. -1.
         21    1    1    2  503  502 -0.42011218844E+02 -0.65236595964E+02  0.17047829161E+03  0.18730617681E+03  0.00000000000E+00 0. -1.
         21    1    1    2  504  501  0.25109299944E+03  0.27420477547E+03  0.68757720484E+03  0.78166384455E+03  0.00000000000E+00 0.  1.
         21    1    1    2  505  504 -0.26286758273E+03 -0.21991240639E+03  0.21658187453E+02  0.34340924510E+03  0.00000000000E+00 0. -1.
          1    1    1    2  501    0  0.53785802131E+02  0.10944226886E+02  0.22196590283E+03  0.22865159224E+03  0.00000000000E+00 0.  1.
<scales pt_clust_3="77.59353" pt_clust_4="53.25000" pt_clust_5="354.58097" pt_clust_6="53.25000"></scales>
<clustering>
<clus scale="   53.250">  4  6 -1 -1</clus>
<clus scale="   77.594">  1  3  2 -1</clus>
<clus scale="  354.581">  2  5  1 -1</clus>
<clus scale="  354.581">  2  3  1 -1</clus>
</clustering>
</event>
<event>
 6    0  0.4945982E+002  0.8772605E+02  0.7546771E-02  0.1308454E+00
          4   -1    0    0  505    0 -0.00000000000E+00  0.00000000000E+00  0.63725298333E+02  0.63725298333E+02  0.00000000000E+00 0.  1.
         21   -1    0    0  504  502  0.00000000000E+00 -0.00000000000E+00 -0.10968870174E+04  0.10968870174E+04  0.00000000000E+00 0. -1.
         21    1    1    2  503  502 -0.59923052963E+02 -0.52733770112E+02 -0.85777528484E+02  0.11717255301E+03  0.00000000000E+00 0. -1.
         21    1    1    2  504  501  0.73906972477E+02  0.24979513904E+02 -0.88515745978E+03  0.88858873800E+03  0.00000000000E+00 0. -1.
         21    1    1    2  505  503 -0.59403801706E+02 -0.30751708559E+02 -0.37950095213E+02  0.76907015045E+02  0.00000000000E+00 0. -1.
          4    1    1    2  501    0  0.45419882192E+02  0.58505964767E+02 -0.24276635617E+02  0.77944009702E+02  0.00000000000E+00 0.  1.
<scales pt_clust_3="31.03861" pt_clust_4="80.90877" pt_clust_5="31.03861" pt_clust_6="74.06695"></scales>
<clustering>
<clus scale="   31.039">  3  5 -1 -1</clus>
<clus scale="   74.067">  1  6  2 -1</clus>
<clus scale="   80.909">  2  4  1 -1</clus>
<clus scale="   80.909">  2  3  1 -1</clus>
</clustering>
</event>
<event>
 6    0  0.4945982E+002  0.2261853E+03  0.7546771E-02  0.1129354E+00
         21   -1    0    0  501  502  0.00000000000E+00  0.00000000000E+00  0.72665829978E+03  0.72665829978E+03  0.00000000000E+00 0.  1.
          2   -1    0    0  504    0 -0.00000000000E+00 -0.00000000000E+00 -0.40023594692E+03  0.40023594692E+03  0.00000000000E+00 0.  1.
         21    1    1    2  503  505  0.19699623253E+02  0.36166650615E+02  0.47131196956E+02  0.62589547846E+02  0.00000000000E+00 0. -1.
         21    1    1    2  504  503 -0.33843204243E+00  0.16029113813E+03  0.58775328455E+03  0.60921858721E+03  0.00000000000E+00 0.  1.
         21    1    1    2  505  502 -0.22088666382E+02  0.33640275836E+02  0.26871499002E+02  0.48390647851E+02  0.00000000000E+00 0. -1.
          2    1    1    2  501    0  0.27274751716E+01 -0.23009806458E+03 -0.33533362765E+03  0.40669546380E+03  0.00000000000E+00 0.  1.
<scales pt_clust_3="42.78806" pt_clust_4="226.18529" pt_clust_5="40.24397" pt_clust_6="14000.00000"></scales>
<clustering>
<clus scale="   40.244">  1  5  2 -1</clus>
<clus scale="   42.788">  1  3  2 -1</clus>
<clus scale="  226.185">  1  4  2 -1</clus>
<clus scale="   40.244">  1  3  2 -1</clus>
</clustering>
</event>
<event>
 6    0  0.4945982E+002  0.1492367E+03  0.7546771E-02  0.1201414E+00
          2   -1    0    0  504    0 -0.00000000000E+00  0.00000000000E+00  0.23890457672E+04  0.23890457672E+04  0.00000000000E+00 0.  1.
         21   -1    0    0  505  502  0.00000000000E+00 -0.00000000000E+00 -0.72286204583E+03  0.72286204583E+03  0.00000000000E+00 0. -1.
         21    1    1    2  503  501 -0.13372337075E+03  0.30242416903E+01 -0.10901886947E+03  0.17255781588E+03  0.00000000000E+00 0. -1.
         21    1    1    2  504  502  0.18468096994E+03 -0.18957178875E+02 -0.43433653566E+03  0.47235014714E+03  0.00000000000E+00 0. -1.
         21    1    1    2  505  503 -0.43310142599E+02  0.51416258388E+02 -0.11980243826E+03  0.13737548651E+03  0.00000000000E+00 0. -1.
          2    1    1    2  501    0 -0.76474565962E+01 -0.35483321203E+02  0.23293415648E+04  0.23296243635E+04  0.00000000000E+00 0.  1.
<scales pt_clust_3="14000.00000" pt_clust_4="149.23673" pt_clust_5="64.08997" pt_clust_6="36.29807"></scales>
<clustering>
<clus scale="   36.298">  1  6  2 -1</clus>
<clus scale="   64.090">  2  5  1 -1</clus>
<clus scale="  149.237">  2  4  1 -1</clus>
<clus scale="   64.090">  2  3  1 -1</clus>
</clustering>
</event>
<event>
 6    0  0.4945982E+002  0.1191146E+03  0.7546771E-02  0.1244565E+00
          2   -1    0    0  503    0 -0.00000000000E+00  0.00000000000E+00  0.19282661523E+04  0.19282661523E+04  0.00000000000E+00 0.  1.
         21   -1    0    0  504  502  0.00000000000E+00 -0.00000000000E+00 -0.97131065975E+02  0.97131065975E+02  0.00000000000E+00 0.  1.
         21    1    1    2  503  502  0.94740729153E+02  0.59397861368E+02 -0.31140962782E+01  0.11186424492E+03  0.00000000000E+00 0.  1.
         21    1    1    2  504  505 -0.32594613809E+02 -0.14684251121E+02 -0.65590475278E+01  0.36346350364E+02  0.00000000000E+00 0. -1.
         21    1    1    2  505  501  0.14257407688E+02  0.47233698538E+02  0.21274644654E+02  0.53729940040E+02  0.00000000000E+00 0. -1.
          2    1    1    2  501    0 -0.76403523032E+02 -0.91947308785E+02  0.18195335854E+04  0.18234566829E+04  0.00000000000E+00 0.  1.
<scales pt_clust_3="119.11458" pt_clust_4="35.74963" pt_clust_5="44.68009" pt_clust_6="14000.00000"></scales>
<clustering>
<clus scale="   35.750">  2  4  1 -1</clus>
<clus scale="   44.680">  2  5  1 -1</clus>
<clus scale="  119.115">  2  3  1 -1</clus>
<clus scale="   35.750">  2  3  1 -1</clus>
</clustering>
</event>
<event>
 6    0  0.4945982E+002  0.2009862E+03  0.7546771E-02  0.1148910E+00
         21   -1    0    0  504  502  0.00000000000E+00  0.00000000000E+00  0.48665564758E+03  0.48665564758E+03  0.00000000000E+00 0.  1.
          2   -1    0    0  505    0 -0.00000000000E+00 -0.00000000000E+00 -0.19665659612E+04  0.19665659612E+04  0.00000000000E+00 0.  1.
         21    1    1    2  503  501  0.77105956333E+02  0.13239989579E+03  0.17707399170E+03  0.23415862026E+03  0.00000000000E+00 0.  1.
         21    1    1    2  504  503  0.29325220839E+02 -0.26284581125E+02  0.25907291919E+03  0.26204889857E+03  0.00000000000E+00 0.  1.
         21    1    1    2  505  502  0.40574884736E+02  0.33013776651E+02 -0.30351555075E+02  0.60476835363E+02  0.00000000000E+00 0. -1.
          2    1    1    2  501    0 -0.14700606191E+03 -0.13912909131E+03 -0.18857056694E+04  0.18965372546E+04  0.00000000000E+00 0.  1.
<scales pt_clust_3="14000.00000" pt_clust_4="39.38080" pt_clust_5="52.78289" pt_clust_6="200.98622"></scales>
<clustering>
<clus scale="   39.381">  1  4  2 -1</clus>
<clus scale="   52.783">  1  5  2 -1</clus>
<clus scale="  200.986">  2  6  1 -1</clus>
<clus scale="   39.381">  1  3  2 -1</clus>
</clustering>
</event>
<event>
 6    0  0.4945982E+002  0.9029470E+02  0.7546771E-02  0.1302140E+00
          3   -1    0    0  504    0 -0.00000000000E+00  0.00000000000E+00  0.38863192254E+03  0.38863192254E+03  0.00000000000E+00 0.  1.
         21   -1    0    0  503  502  0.00000000000E+00 -0.00000000000E+00 -0.11227593283E+03  0.11227593283E+03  0.00000000000E+00 0.  1.
         21    1    1    2  503  501 -0.43714866918E+02 -0.34954644322E+02 -0.33965892434E+02  0.65471357082E+02  0.00000000000E+00 0.  1.
         21    1    1    2  504  505  0.96476859737E+02  0.14217504781E+02  0.89300962821E+02  0.13222928521E+03  0.00000000000E+00 0.  1.
         21    1    1    2  505  502  0.22994841901E+02  0.68768725079E+02  0.90949484204E+01  0.73079534685E+02  0.00000000000E+00 0.  1.
          3    1    1    2  501    0 -0.75756834720E+02 -0.48031585538E+02  0.21192597090E+03  0.23012767839E+03  0.00000000000E+00 0.  1.
<scales pt_clust_3="55.97157" pt_clust_4="90.29470" pt_clust_5="50.89666" pt_clust_6="14000.00000"></scales>
<clustering>
<clus scale="   55.972">  2  3  1 -1</clus>
<clus scale="   50.897">  2  5  1 -1</clus>
<clus scale="   90.295">  2  4  1 -1</clus>
<clus scale="   55.972">  2  3  1 -1</clus>
</clustering>
</event>
<event>
 6    0  0.4945982E+002  0.6779109E+02  0.7546771E-02  0.1367770E+00
         -3   -1    0    0    0  501 -0.00000000000E+00  0.00000000000E+00  0.32590409479E+03  0.32590409479E+03  0.00000000000E+00 0. -1.
         21   -1    0    0  505  502  0.00000000000E+00 -0.00000000000E+00 -0.14371427251E+04  0.14371427251E+04  0.00000000000E+00 0.  1.
         21    1    1    2  503  502  0.65037074316E+02 -0.15947490768E+02 -0.49950456926E+03  0.50397317211E+03  0.00000000000E+00 0.  1.
         21    1    1    2  504  503 -0.11283577759E+02 -0.78100347547E+02 -0.33197428620E+03  0.34122413471E+03  0.00000000000E+00 0.  1.
         21    1    1    2  505  501 -0.51649933562E+02  0.53325345086E+02 -0.59518623202E+03  0.59979826513E+03  0.00000000000E+00 0.  1.
         -3    1    1    2    0  504 -0.21035629957E+01  0.40722493229E+02  0.31542645717E+03  0.31805124793E+03  0.00000000000E+00 0. -1.
<scales pt_clust_3="14000.00000" pt_clust_4="58.86030" pt_clust_5="67.79109" pt_clust_6="40.77679"></scales>
<clustering>
<clus scale="   40.777">  1  6  2 -1</clus>
<clus scale="   58.860">  1  4  2 -1</clus>
<clus scale="   67.791">  1  5  2 -1</clus>
<clus scale="   67.791">  2  3  1 -1</clus>
</clustering>
</event>
<event>
 6    0  0.4945982E+002  0.1079582E+03  0.7546771E-02  0.1264398E+00
          2   -1    0    0  503    0 -0.00000000000E+00  0.00000000000E+00  0.21156130465E+03  0.21156130465E+03  0.00000000000E+00 0. -1.
         21   -1    0    0  505  502  0.00000000000E+00 -0.00000000000E+00 -0.17118288656E+04  0.17118288656E+04  0.00000000000E+00 0.  1.
         21    1    1    2  503  502  0.63333008025E+02  0.64246659748E+02 -0.12751723987E+04  0.12783596324E+04  0.00000000000E+00 0.  1.
         21    1    1    2  504  501 -0.54371172859E+02 -0.85736884857E+02 -0.29539903869E+03  0.31235817570E+03  0.00000000000E+00 0.  1.
         21    1    1    2  505  504  0.25983625041E+02  0.18252090213E+02 -0.12769675214E+03  0.13158551621E+03  0.00000000000E+00 0. -1.
          2    1    1    2  501    0 -0.34945460208E+02  0.32381348958E+01  0.19800062860E+03  0.20108684600E+03  0.00000000000E+00 0. -1.
<scales pt_clust_3="107.95820" pt_clust_4="14000.00000" pt_clust_5="31.75354" pt_clust_6="35.07158"></scales>
<clustering>
<clus scale="   31.754">  2  5  1 -1</clus>
<clus scale="   35.072">  1  6  2 -1</clus>
<clus scale="  107.958">  2  3  1 -1</clus>
<clus scale="   31.754">  2  3  1 -1</clus>
</clustering>
</event>
<event>
 6    0  0.4945982E+002  0.1344731E+03  0.7546771E-02  0.1220965E+00
         21   -1    0    0  504  502  0.00000000000E+00  0.00000000000E+00  0.24214139696E+03  0.24214139696E+03  0.00000000000E+00 0. -1.
         -1   -1    0    0    0  501 -0.00000000000E+00 -0.00000000000E+00 -0.27215086835E+03  0.27215086835E+03  0.00000000000E+00 0. -1.
         21    1    1    2  503  502 -0.14255733752E+02 -0.34981550460E+02  0.51744937866E+02  0.64066164331E+02  0.00000000000E+00 0. -1.
         21    1    1    2  504  501 -0.97446180694E+02  0.98353638941E+02  0.81050812963E+02  0.16043201272E+03  0.00000000000E+00 0. -1.
         21    1    1    2  505  503  0.15394072919E+03 -0.20849204468E+02 -0.52001502005E+02  0.16381878293E+03  0.00000000000E+00 0. -1.
         -1    1    1    2    0  505 -0.42238814745E+02 -0.42522884014E+02 -0.11080372022E+03  0.12597530532E+03  0.00000000000E+00 0. -1.
<scales pt_clust_3="37.77479" pt_clust_4="14000.00000" pt_clust_5="134.47312" pt_clust_6="61.37437"></scales>
<clustering>
<clus scale="   37.775">  1  3  2 -1</clus>
<clus scale="   61.374">  2  6  1 -1</clus>
<clus scale="  134.473">  2  5  1 -1</clus>
<clus scale="   37.775">  1  3  2 -1</clus>
</clustering>
</event>
<event>
 6    0  0.4945982E+002  0.1537372E+03  0.7546771E-02  0.1195955E+00
          2   -1    0    0  502    0 -0.00000000000E+00  0.00000000000E+00  0.35620878604E+04  0.35620878604E+04  0.00000000000E+00 0.  1.
         21   -1    0    0  504  502  0.00000000000E+00 -0.00000000000E+00 -0.13402432525E+03  0.13402432525E+03  0.00000000000E+00 0.  1.
         21    1    1    2  503  501  0.34169217844E+02 -0.14474786152E+03  0.12556516800E+03  0.19464349534E+03  0.00000000000E+00 0.  1.
         21    1    1    2  504  505 -0.96197130856E+02  0.95722013069E+02 -0.22742019821E+02  0.13760011350E+03  0.00000000000E+00 0.  1.
         21    1    1    2  505  503 -0.18543099538E+01 -0.39599010270E+02  0.29171420911E+01  0.39749588649E+02  0.00000000000E+00 0.  1.
          2    1    1    2  501    0  0.63882222966E+02  0.88624858723E+02  0.33223232449E+04  0.33241189881E+04  0.00000000000E+00 0.  1.
<scales pt_clust_3="30.12354" pt_clust_4="142.23480" pt_clust_5="30.12354" pt_clust_6="109.24882"></scales>
<clustering>
<clus scale="   30.124">  3  5 -1 -1</clus>
<clus scale="  109.249">  1  6  2 -1</clus>
<clus scale="  142.235">  2  4  1 -1</clus>
<clus scale="  142.235">  2  3  1 -1</clus>
</clustering>
</event>
<event>
 6    0  0.4945982E+002  0.6300108E+02  0.7546771E-02  0.1385652E+00
          2   -1    0    0  504    0 -0.00000000000E+00  0.00000000000E+00  0.31738750550E+03  0.31738750550E+03  0.00000000000E+00 0.  1.
         21   -1    0    0  505  502  0.00000000000E+00 -0.00000000000E+00 -0.11911511862E+03  0.11911511862E+03  0.00000000000E+00 0.  1.
         21    1    1    2  503  501 -0.47231034102E+02 -0.43281325570E+02  0.14169764860E+03  0.15550648650E+03  0.00000000000E+00 0. -1.
         21    1    1    2  504  502  0.10082197175E+03 -0.32274584207E+02  0.81013809262E+02  0.13330399868E+03  0.00000000000E+00 0.  1.
         21    1    1    2  505  503 -0.53034310390E+02  0.24454227867E+02 -0.61311334040E+02  0.84674240599E+02  0.00000000000E+00 0.  1.
          2    1    1    2  501    0 -0.55662725507E+00  0.51101681910E+02  0.36872263059E+02  0.63017898339E+02  0.00000000000E+00 0.  1.
<scales pt_clust_3="49.81675" pt_clust_4="14000.00000" pt_clust_5="63.00108" pt_clust_6="51.10471"></scales>
<clustering>
<clus scale="   51.105">  1  6  2 -1</clus>
<clus scale="   49.817">  1  3  2 -1</clus>
<clus scale="   63.001">  2  5  1 -1</clus>
<clus scale="   63.001">  2  3  1 -1</clus>
</clustering>
</event>
<event>
 6    0  0.4945982E+002  0.1825517E+03  0.7546771E-02  0.1165356E+00
          4   -1    0    0  503    0 -0.00000000000E+00  0.00000000000E+00  0.33847578095E+03  0.33847578095E+03  0.00000000000E+00 0. -1.
         21   -1    0    0  505  502  0.00000000000E+00 -0.00000000000E+00 -0.45848297793E+03  0.45848297793E+03  0.00000000000E+00 0. -1.
         21    1    1    2  503  504  0.13298019355E+03  0.10177236116E+03 -0.24385160005E+03  0.29581235305E+03  0.00000000000E+00 0. -1.
         21    1    1    2  504  502  0.13580474533E+02 -0.32106971657E+02 -0.49031262339E+02  0.60161047232E+02  0.00000000000E+00 0.  1.
         21    1    1    2  505  501 -0.74845719536E+01  0.51052002290E+02 -0.99565095241E+02  0.11214068818E+03  0.00000000000E+00 0.  1.
          4    1    1    2  501    0 -0.13907609613E+03 -0.12071739179E+03  0.27244076065E+03  0.32884467042E+03  0.00000000000E+00 0. -1.
<scales pt_clust_3="182.55171" pt_clust_4="34.86097" pt_clust_5="42.81754" pt_clust_6="14000.00000"></scales>
<clustering>
<clus scale="   34.861">  2  4  1 -1</clus>
<clus scale="   42.818">  2  5  1 -1</clus>
<clus scale="  182.552">  2  3  1 -1</clus>
<clus scale="   34.861">  2  3  1 -1</clus>
</clustering>
</event>
<event>
 6    0  0.4945982E+002  0.7883154E+02  0.7546771E-02  0.1332400E+00
         21   -1    0    0  504  502  0.00000000000E+00  0.00000000000E+00  0.20436421811E+03  0.20436421811E+03  0.00000000000E+00 0.  1.
          2   -1    0    0  503    0 -0.00000000000E+00 -0.00000000000E+00 -0.20604461259E+04  0.20604461259E+04  0.00000000000E+00 0.  1.
         21    1    1    2  503  502 -0.61772024111E+02  0.37367825266E+02  0.73372611197E+02  0.10293530688E+03  0.00000000000E+00 0.  1.
         21    1    1    2  504  505 -0.86183395652E+01 -0.43171100014E+02  0.47671150575E+02  0.64888814525E+02  0.00000000000E+00 0.  1.
         21    1    1    2  505  501  0.97492137269E+02 -0.46089354265E+02  0.10637635006E+02  0.10836099245E+03  0.00000000000E+00 0.  1.
          2    1    1    2  501    0 -0.27101773593E+02  0.51892629014E+02 -0.19877633046E+04  0.19886252302E+04  0.00000000000E+00 0.  1.
<scales pt_clust_3="14000.00000" pt_clust_4="44.02294" pt_clust_5="78.83154" pt_clust_6="58.44388"></scales>
<clustering>
<clus scale="   44.023">  1  4  2 -1</clus>
<clus scale="   58.444">  2  6  1 -1</clus>
<clus scale="   78.832">  2  5  1 -1</clus>
<clus scale="   44.023">  1  3  2 -1</clus>
</clustering>
</event>
<event>
 6    0  0.4945982E+002  0.9606915E+02  0.7546771E-02  0.1288786E+00
          2   -1    0    0  503    0 -0.00000000000E+00  0.00000000000E+00  0.16161622105E+04  0.16161622105E+04  0.00000000000E+00 0. -1.
         21   -1    0    0  501  502  0.00000000000E+00 -0.00000000000E+00 -0.21504351029E+03  0.21504351029E+03  0.00000000000E+00 0. -1.
         21    1    1    2  503  505  0.30117466267E+02  0.76799190021E+02  0.60341231972E+03  0.60902512670E+03  0.00000000000E+00 0. -1.
         21    1    1    2  504  502 -0.52982441338E+01  0.33064863826E+02 -0.19346573352E+03  0.19634242195E+03  0.00000000000E+00 0. -1.
         21    1    1    2  505  504 -0.51458029110E+02  0.14631170647E+02  0.41597583689E+02  0.67766945358E+02  0.00000000000E+00 0.  1.
          2    1    1    2  501    0  0.26638806977E+02 -0.12449522449E+03  0.94957453036E+03  0.95807122683E+03  0.00000000000E+00 0. -1.
<scales pt_clust_3="14000.00000" pt_clust_4="33.48666" pt_clust_5="65.71328" pt_clust_6="96.06915"></scales>
<clustering>
<clus scale="   33.487">  2  4  1 -1</clus>
<clus scale="   65.713">  2  5  1 -1</clus>
<clus scale="   96.069">  2  6  1 -1</clus>
<clus scale="   33.487">  2  3  1 -1</clus>
</clustering>
</event>
<event>
 6    0  0.4945982E+002  0.9056036E+02  0.7546771E-02  0.1301500E+00
         21   -1    0    0  505  502  0.00000000000E+00  0.00000000000E+00  0.23892545967E+02  0.23892545967E+02  0.00000000000E+00 0. -1.
         -1   -1    0    0    0  501 -0.00000000000E+00 -0.00000000000E+00 -0.15299671722E+04  0.15299671722E+04  0.00000000000E+00 0. -1.
         21    1    1    2  503  504 -0.73949397458E+01 -0.63635126129E+02 -0.57909143418E+02  0.86357300228E+02  0.00000000000E+00 0. -1.
         21    1    1    2  504  502  0.32877420876E+02 -0.53477489085E+02 -0.22995356176E+03  0.23836821770E+03  0.00000000000E+00 0.  1.
         21    1    1    2  505  501  0.42993034007E+02  0.57808274940E+02 -0.47764293526E+03  0.48304551672E+03  0.00000000000E+00 0. -1.
         -1    1    1    2    0  503 -0.68475515136E+02  0.59304340274E+02 -0.74056898576E+03  0.74608868348E+03  0.00000000000E+00 0. -1.
<scales pt_clust_3="14000.00000" pt_clust_4="62.77553" pt_clust_5="69.31014" pt_clust_6="90.56036"></scales>
<clustering>
<clus scale="   62.776">  1  4  2 -1</clus>
<clus scale="   69.310">  2  5  1 -1</clus>
<clus scale="   90.560">  2  6  1 -1</clus>
<clus scale="   62.776">  1  3  2 -1</clus>
</clustering>
</event>
<event>
 6    0  0.4945982E+002  0.1269554E+03  0.7546771E-02  0.1232045E+00
         21   -1    0    0  501  502  0.00000000000E+00  0.00000000000E+00  0.34149578222E+03  0.34149578222E+03  0.00000000000E+00 0.  1.
          2   -1    0    0  505    0 -0.00000000000E+00 -0.00000000000E+00 -0.42697494395E+03  0.42697494395E+03  0.00000000000E+00 0. -1.
         21    1    1    2  503  502  0.12033367130E+03  0.19183718319E+00  0.26315918120E+03  0.28936652174E+03  0.00000000000E+00 0.  1.
         21    1    1    2  504  503 -0.57813028481E+02  0.26826145051E+02  0.25980634696E+02  0.68825734284E+02  0.00000000000E+00 0.  1.
         21    1    1    2  505  504 -0.47906085632E+02 -0.37012830282E+00 -0.16198801490E+02  0.50572039758E+02  0.00000000000E+00 0.  1.
          2    1    1    2  501    0 -0.14614557185E+02 -0.26647853932E+02 -0.35842017614E+03  0.35970643039E+03  0.00000000000E+00 0. -1.
<scales pt_clust_3="117.61797" pt_clust_4="44.60919" pt_clust_5="44.60919" pt_clust_6="30.39232"></scales>
<clustering>
<clus scale="   30.392">  2  6  1 -1</clus>
<clus scale="   44.609">  4  5 -1 -1</clus>
<clus scale="  117.618">  1  3  2 -1</clus>
<clus scale="  117.618">  1  3  2 -1</clus>
</clustering>
</event>
<event>
 6    0  0.4945982E+002  0.1497556E+03  0.7546771E-02  0.1200774E+00
          2   -1    0    0  504    0 -0.00000000000E+00  0.00000000000E+00  0.14475921477E+04  0.14475921477E+04  0.00000000000E+00 0. -1.
         21   -1    0    0  505  502  0.00000000000E+00 -0.00000000000E+00 -0.22006188140E+03  0.22006188140E+03  0.00000000000E+00 0. -1.
         21    1    1    2  503  501 -0.49340508472E+00  0.54984663077E+02  0.13716840188E+03  0.14777931891E+03  0.00000000000E+00 0. -1.
         21    1    1    2  504  502  0.34817910922E+02  0.11274346556E+03  0.91144463705E+02  0.14909959494E+03  0.00000000000E+00 0. -1.
         21    1    1    2  505  503 -0.57629059246E+02 -0.14798406393E+03 -0.15160044141E+03  0.21955201088E+03  0.00000000000E+00 0. -1.
          2    1    1    2  501    0  0.23304553409E+02 -0.19744064714E+02  0.11508178421E+04  0.11512231044E+04  0.00000000000E+00 0. -1.
<scales pt_clust_3="46.74127" pt_clust_4="14000.00000" pt_clust_5="149.75556" pt_clust_6="30.54391"></scales>
<clustering>
<clus scale="   30.544">  1  6  2 -1</clus>
<clus scale="   46.741">  1  3  2 -1</clus>
<clus scale="  149.756">  2  5  1 -1</clus>
<clus scale="  149.756">  2  3  1 -1</clus>
</clustering>
</event>
<event>
 6    0  0.4945982E+002  0.1019127E+03  0.7546771E-02  0.1276324E+00
         -1   -1    0    0    0  501 -0.00000000000E+00  0.00000000000E+00  0.52827755154E+02  0.52827755154E+02  0.00000000000E+00 0. -1.
         21   -1    0    0  505  502  0.00000000000E+00 -0.00000000000E+00 -0.77974945039E+03  0.77974945039E+03  0.00000000000E+00 0.  1.
         21    1    1    2  503  504  0.14240171846E+02 -0.52440526467E+02 -0.11729100869E+03  0.12926705702E+03  0.00000000000E+00 0. -1.
         21    1    1    2  504  502 -0.16260196592E+02 -0.51606242845E+02 -0.11036891585E+03  0.12291824876E+03  0.00000000000E+00 0.  1.
         21    1    1    2  505  501 -0.53305601334E+02  0.83904905810E+02 -0.51080960410E+03  0.52039213291E+03  0.00000000000E+00 0.  1.
         -1    1    1    2    0  503  0.55325626080E+02  0.20141863503E+02  0.11547833400E+02  0.59999766856E+02  0.00000000000E+00 0. -1.
<scales pt_clust_3="30.57064" pt_clust_4="30.57064" pt_clust_5="97.19891" pt_clust_6="58.87801"></scales>
<clustering>
<clus scale="   30.571">  3  4 -1 -1</clus>
<clus scale="   58.878">  1  6  2 -1</clus>
<clus scale="   97.199">  2  5  1 -1</clus>
<clus scale="   97.199">  2  3  1 -1</clus>
</clustering>
</event>
<event>
 6    0  0.4945982E+002  0.9642060E+02  0.7546771E-02  0.1288008E+00
         21   -1    0    0  503  502  0.00000000000E+00  0.00000000000E+00  0.32101139242E+02  0.32101139242E+02  0.00000000000E+00 0. -1.
          1   -1    0    0  505    0 -0.00000000000E+00 -0.00000000000E+00 -0.27052245491E+04  0.27052245491E+04  0.00000000000E+00 0. -1.
         21    1    1    2  503  501 -0.38493824834E+02  0.40900222610E+02 -0.21830954701E+03  0.22541885697E+03  0.00000000000E+00 0.  1.
         21    1    1    2  504  502 -0.44462633065E+02 -0.17193373144E+02 -0.69752268913E+02  0.84486193178E+02  0.00000000000E+00 0. -1.
         21    1    1    2  505  504  0.12384285561E+02 -0.92402286264E+02 -0.87848199583E+02  0.12809706947E+03  0.00000000000E+00 0. -1.
          1    1    1    2  501    0  0.70572172338E+02  0.68695436797E+02 -0.22972133944E+04  0.22993235688E+04  0.00000000000E+00 0. -1.
<scales pt_clust_3="59.08774" pt_clust_4="47.67114" pt_clust_5="96.42060" pt_clust_6="14000.00000"></scales>
<clustering>
<clus scale="   47.671">  1  4  2 -1</clus>
<clus scale="   59.088">  1  3  2 -1</clus>
<clus scale="   96.421">  1  5  2 -1</clus>
<clus scale="   47.671">  1  3  2 -1</clus>
</clustering>
</event>
<event>
 6    0  0.4945982E+002  0.1398917E+03  0.7546771E-02  0.1213475E+00
         21   -1    0    0  505  502  0.00000000000E+00  0.00000000000E+00  0.60996599463E+02  0.60996599463E+02  0.00000000000E+00 0.  1.
          2   -1    0    0  502    0 -0.00000000000E+00 -0.00000000000E+00 -0.22432937974E+04  0.22432937974E+04  0.00000000000E+00 0.  1.
         21    1    1    2  503  504  0.23467021307E+02  0.46289048470E+02 -0.76710506460E+02  0.92616839174E+02  0.00000000000E+00 0. -1.
         21    1    1    2  504  501  0.13765850258E+03 -0.64210041556E+02 -0.29624875261E+03  0.33292058541E+03  0.00000000000E+00 0.  1.
         21    1    1    2  505  503 -0.21489971268E+02  0.41289669948E+02  0.15019305837E+02  0.48910482081E+02  0.00000000000E+00 0.  1.
          2    1    1    2  501    0 -0.13963555262E+03 -0.23368676863E+02 -0.18243572447E+04  0.18298424902E+04  0.00000000000E+00 0.  1.
<scales pt_clust_3="60.22327" pt_clust_4="14000.00000" pt_clust_5="46.54735" pt_clust_6="139.89166"></scales>
<clustering>
<clus scale="   46.547">  1  5  2 -1</clus>
<clus scale="   60.223">  1  3  2 -1</clus>
<clus scale="  139.892">  2  6  1 -1</clus>
<clus scale="   46.547">  1  3  2 -1</clus>
</clustering>
</event>
<event>
 6    0  0.4945982E+002  0.1529286E+03  0.7546771E-02  0.1196920E+00
         21   -1    0    0  503  502  0.00000000000E+00  0.00000000000E+00  0.39511287641E+02  0.39511287641E+02  0.00000000000E+00 0.  1.
          2   -1    0    0  502    0 -0.00000000000E+00 -0.00000000000E+00 -0.28302016864E+04  0.28302016864E+04  0.00000000000E+00 0.  1.
         21    1    1    2  503  504  0.26556564072E+02  0.19793543057E+02 -0.20383423292E+02  0.38891122215E+02  0.00000000000E+00 0.  1.
         21    1    1    2  504  505  0.41255638803E+02 -0.34583703525E+02 -0.24393951360E+02  0.59102666146E+02  0.00000000000E+00 0.  1.
         21    1    1    2  505  501  0.99240475869E+02  0.25132629462E+02 -0.24928492253E+03  0.26948709378E+03  0.00000000000E+00 0.  1.
          2    1    1    2  501    0 -0.16705267874E+03 -0.10342468994E+02 -0.24966281016E+04  0.25022320919E+04  0.00000000000E+00 0.  1.
<scales pt_clust_3="33.12153" pt_clust_4="61.07780" pt_clust_5="152.92863" pt_clust_6="14000.00000"></scales>
<clustering>
<clus scale="   33.122">  1  3  2 -1</clus>
<clus scale="   61.078">  1  4  2 -1</clus>
<clus scale="  152.929">  1  5  2 -1</clus>
<clus scale="   33.122">  1  3  2 -1</clus>
</clustering>
</event>
<event>
 6    0  0.4945982E+002  0.8523414E+02  0.7546771E-02  0.1314821E+00
          2   -1    0    0  505    0 -0.00000000000E+00  0.00000000000E+00  0.13394647355E+03  0.13394647355E+03  0.00000000000E+00 0.  1.
         21   -1    0    0  503  502  0.00000000000E+00 -0.00000000000E+00 -0.89373056167E+03  0.89373056167E+03  0.00000000000E+00 0.  1.
         21    1    1    2  503  501 -0.33716633646E+02  0.25496814797E+02 -0.17681680539E+03  0.18179956440E+03  0.00000000000E+00 0.  1.
         21    1    1    2  504  502 -0.31496795910E+02 -0.69669584380E+02 -0.51590373865E+03  0.52153865312E+03  0.00000000000E+00 0.  1.
         21    1    1    2  505  504  0.75015788736E+02  0.10340130703E+03 -0.16548288838E+03  0.20905450295E+03  0.00000000000E+00 0.  1.
          2    1    1    2  501    0 -0.98023591799E+01 -0.59228537449E+02  0.98419344309E+02  0.11528431475E+03  0.00000000000E+00 0.  1.
<scales pt_clust_3="42.27173" pt_clust_4="14000.00000" pt_clust_5="85.23414" pt_clust_6="59.80391"></scales>
<clustering>
<clus scale="   42.272">  2  3  1 -1</clus>
<clus scale="   59.804">  1  6  2 -1</clus>
<clus scale="   85.234">  1  5  2 -1</clus>
<clus scale="   42.272">  2  3  1 -1</clus>
</clustering>
</event>
<event>
 6    0  0.4945982E+002  0.7907211E+02  0.7546771E-02  0.1331705E+00
          1   -1    0    0  503    0 -0.00000000000E+00  0.00000000000E+00  0.11962252594E+04  0.11962252594E+04  0.00000000000E+00 0. -1.
         21   -1    0    0  504  502  0.00000000000E+00 -0.00000000000E+00 -0.14174060873E+04  0.14174060873E+04  0.00000000000E+00 0.  1.
         21    1    1    2  503  502  0.34735577789E+02 -0.67026821157E+02 -0.10238236598E+04  0.10266031568E+04  0.00000000000E+00 0.  1.
         21    1    1    2  504  505  0.54321505711E+02  0.76441456160E+02 -0.35025671244E+03  0.36259328016E+03  0.00000000000E+00 0.  1.
         21    1    1    2  505  501 -0.56803938313E+02 -0.17576745261E+02 -0.10652066127E+02  0.60407746976E+02  0.00000000000E+00 0.  1.
          1    1    1    2  501    0 -0.32253145187E+02  0.81621102582E+01  0.11635516105E+04  0.11640271627E+04  0.00000000000E+00 0. -1.
<scales pt_clust_3="74.55403" pt_clust_4="79.07211" pt_clust_5="14000.00000" pt_clust_6="33.26989"></scales>
<clustering>
<clus scale="   33.270">  1  6  2 -1</clus>
<clus scale="   74.554">  2  3  1 -1</clus>
<clus scale="   79.072">  2  4  1 -1</clus>
<clus scale="   74.554">  2  3  1 -1</clus>
</clustering>
</event>
<event>
 6    0  0.4945982E+002  0.1474114E+03  0.7546771E-02  0.1203690E+00
         21   -1    0    0  504  502  0.00000000000E+00  0.00000000000E+00  0.10607703494E+03  0.10607703494E+03  0.00000000000E+00 0.  1.
          1   -1    0    0  505    0 -0.00000000000E+00 -0.00000000000E+00 -0.57324444193E+03  0.57324444193E+03  0.00000000000E+00 0.  1.
         21    1    1    2  503  502  0.28289282615E+02 -0.72752806133E+02 -0.11165100370E+03  0.13623215824E+03  0.00000000000E+00 0.  1.
         21    1    1    2  504  501 -0.11851973345E+03  0.90099940168E+02 -0.24208279769E+01  0.14889857905E+03  0.00000000000E+00 0.  1.
         21    1    1    2  505  503  0.29422443574E+02 -0.57264837966E+02 -0.47368173524E+02  0.79929254445E+02  0.00000000000E+00 0.  1.
          1    1    1    2  501    0  0.60808007258E+02  0.39917703932E+02 -0.30572740179E+03  0.31426148513E+03  0.00000000000E+00 0.  1.
<scales pt_clust_3="31.50482" pt_clust_4="143.27140" pt_clust_5="31.50482" pt_clust_6="72.73951"></scales>
<clustering>
<clus scale="   31.505">  3  5 -1 -1</clus>
<clus scale="   72.740">  2  6  1 -1</clus>
<clus scale="  143.271">  1  4  2 -1</clus>
<clus scale="  143.271">  1  3  2 -1</clus>
</clustering>
</event>
<event>
 6    0  0.4945982E+002  0.9643029E+02  0.7546771E-02  0.1287987E+00
         21   -1    0    0  504  502  0.00000000000E+00  0.00000000000E+00  0.20348262166E+03  0.20348262166E+03  0.00000000000E+00 0. -1.
          2   -1    0    0  505    0 -0.00000000000E+00 -0.00000000000E+00 -0.23137635163E+04  0.23137635163E+04  0.00000000000E+00 0.  1.
         21    1    1    2  503  501 -0.27475063975E+01  0.10244242959E+03 -0.60385698593E+02  0.11894718478E+03  0.00000000000E+00 0. -1.
         21    1    1    2  504  503  0.66895485562E+02  0.11444914247E+02  0.14418401422E+03  0.15935815639E+03  0.00000000000E+00 0. -1.
         21    1    1    2  505  502 -0.69002574785E+02 -0.78107338638E+02 -0.99633044934E+02  0.14418340861E+03  0.00000000000E+00 0. -1.
          2    1    1    2  501    0  0.48545956198E+01 -0.35780005201E+02 -0.20944461654E+04  0.20947573882E+04  0.00000000000E+00 0.  1.
<scales pt_clust_3="14000.00000" pt_clust_4="67.83573" pt_clust_5="96.43029" pt_clust_6="36.10784"></scales>
<clustering>
<clus scale="   36.108">  2  6  1 -1</clus>
<clus scale="   67.836">  1  4  2 -1</clus>
<clus scale="   96.430">  1  5  2 -1</clus>
<clus scale="   67.836">  1  3  2 -1</clus>
</clustering>
</event>
<event>
 6    0  0.4945982E+002  0.1817433E+03  0.7546771E-02  0.1166127E+00
         21   -1    0    0  503  502  0.00000000000E+00  0.00000000000E+00  0.36100364302E+02  0.36100364302E+02  0.00000000000E+00 0.  1.
          2   -1    0    0  504    0 -0.00000000000E+00 -0.00000000000E+00 -0.17801875527E+04  0.17801875527E+04  0.00000000000E+00 0.  1.
         21    1    1    2  503  501  0.99600415128E+02  0.37374639712E+02 -0.17941848318E+03  0.20858594990E+03  0.00000000000E+00 0.  1.
         21    1    1    2  504  505 -0.62866939002E+02  0.33548441330E+02 -0.38892870194E+03  0.39540268730E+03  0.00000000000E+00 0.  1.
         21    1    1    2  505  502 -0.47637487092E+02  0.10684533104E+03 -0.49679795005E+03  0.51038559748E+03  0.00000000000E+00 0.  1.
          2    1    1    2  501    0  0.10904010966E+02 -0.17776841208E+03 -0.67894205320E+03  0.70191368229E+03  0.00000000000E+00 0.  1.
<scales pt_clust_3="106.38189" pt_clust_4="49.47863" pt_clust_5="49.47863" pt_clust_6="170.32773"></scales>
<clustering>
<clus scale="   49.479">  4  5 -1 -1</clus>
<clus scale="  106.382">  1  3  2 -1</clus>
<clus scale="  170.328">  1  6  2 -1</clus>
<clus scale="  106.382">  1  3  2 -1</clus>
</clustering>
</event>
<event>
 6    0  0.4945982E+002  0.1156492E+03  0.7546771E-02  0.1250452E+00
         21   -1    0    0  503  502  0.00000000000E+00  0.00000000000E+00  0.38125809428E+03  0.38125809428E+03  0.00000000000E+00 0.  1.
          2   -1    0    0  505    0 -0.00000000000E+00 -0.00000000000E+00 -0.16604203739E+04  0.16604203739E+04  0.00000000000E+00 0. -1.
         21    1    1    2  503  501  0.38463487933E+00 -0.39549266048E+02 -0.43720184726E+01  0.39792046120E+02  0.00000000000E+00 0.  1.
         21    1    1    2  504  502 -0.97586195065E+02  0.99483675919E+02  0.21007956660E+03  0.25209817838E+03  0.00000000000E+00 0.  1.
         21    1    1    2  505  504  0.29544921426E+02 -0.10450764145E+03  0.10899489382E+03  0.15386564393E+03  0.00000000000E+00 0.  1.
          2    1    1    2  501    0  0.67656638759E+02  0.44573231574E+02 -0.15938647215E+04  0.15959225997E+04  0.00000000000E+00 0. -1.
<scales pt_clust_3="39.55114" pt_clust_4="14000.00000" pt_clust_5="115.64924" pt_clust_6="80.95909"></scales>
<clustering>
<clus scale="   39.551">  1  3  2 -1</clus>
<clus scale="   80.959">  2  6  1 -1</clus>
<clus scale="  115.649">  2  5  1 -1</clus>
<clus scale="   39.551">  1  3  2 -1</clus>
</clustering>
</event>
<event>
 6    0  0.4945982E+002  0.7568833E+02  0.7546771E-02  0.1341753E+00
         21   -1    0    0  503  502  0.00000000000E+00  0.00000000000E+00  0.98257493571E+02  0.98257493571E+02  0.00000000000E+00 0.  1.
          1   -1    0    0  505    0 -0.00000000000E+00 -0.00000000000E+00 -0.41244418589E+03  0.41244418589E+03  0.00000000000E+00 0. -1.
         21    1    1    2  503  501 -0.25596325055E+02 -0.53821085887E+02 -0.43716870149E+02  0.73912420323E+02  0.00000000000E+00 0.  1.
         21    1    1    2  504  502  0.29053858420E+02  0.38421435168E+02  0.10431488658E+02  0.49286401016E+02  0.00000000000E+00 0.  1.
         21    1    1    2  505  504 -0.69928577791E+02 -0.21594127134E+02  0.21019901515E+02  0.76145574909E+02  0.00000000000E+00 0.  1.
          1    1    1    2  501    0  0.66471044426E+02  0.36993777852E+02 -0.30192121235E+03  0.31135728322E+03  0.00000000000E+00 0. -1.
<scales pt_clust_3="49.23141" pt_clust_4="48.16984" pt_clust_5="14000.00000" pt_clust_6="75.68833"></scales>
<clustering>
<clus scale="   48.170">  1  4  2 -1</clus>
<clus scale="   49.231">  1  3  2 -1</clus>
<clus scale="   75.688">  2  6  1 -1</clus>
<clus scale="   48.170">  1  3  2 -1</clus>
</clustering>
</event>
<event>
 6    0  0.4945982E+002  0.6829872E+02  0.7546771E-02  0.1365976E+00
          2   -1    0    0  503    0 -0.00000000000E+00  0.00000000000E+00  0.79533823912E+03  0.79533823912E+03  0.00000000000E+00 0. -1.
         21   -1    0    0  504  502  0.00000000000E+00 -0.00000000000E+00 -0.73583676551E+03  0.73583676551E+03  0.00000000000E+00 0.  1.
         21    1    1    2  503  505 -0.23674658915E+02 -0.54491714948E+02 -0.15821706383E+02  0.61483029086E+02  0.00000000000E+00 0. -1.
         21    1    1    2  504  501  0.10674849110E+02  0.91967998248E+02 -0.59288267340E+03  0.60006827072E+03  0.00000000000E+00 0.  1.
         21    1    1    2  505  502 -0.46394639434E+02 -0.35912800083E+01 -0.93719486971E+02  0.10463604588E+03  0.00000000000E+00 0.  1.
          2    1    1    2  501    0  0.59394449239E+02 -0.33885003292E+02  0.76192534036E+03  0.76498765894E+03  0.00000000000E+00 0. -1.
<scales pt_clust_3="60.78608" pt_clust_4="68.29872" pt_clust_5="46.53343" pt_clust_6="14000.00000"></scales>
<clustering>
<clus scale="   46.533">  2  5  1 -1</clus>
<clus scale="   60.786">  2  3  1 -1</clus>
<clus scale="   68.299">  2  4  1 -1</clus>
<clus scale="   46.533">  2  3  1 -1</clus>
</clustering>
</event>
<event>
 6    0  0.4945982E+002  0.1103220E+03  0.7546771E-02  0.1259975E+00
          1   -1    0    0  503    0 -0.00000000000E+00  0.00000000000E+00  0.85359916592E+03  0.85359916592E+03  0.00000000000E+00 0.  1.
         21   -1    0    0  504  502  0.00000000000E+00 -0.00000000000E+00 -0.63000083935E+03  0.63000083935E+03  0.00000000000E+00 0. -1.
         21    1    1    2  503  502  0.23470435693E+02 -0.25647434882E+02 -0.95601241910E+02  0.10172634724E+03  0.00000000000E+00 0. -1.
         21    1    1    2  504  505  0.26774836137E+02  0.21392303795E+02 -0.11719157965E+03  0.12209991340E+03  0.00000000000E+00 0. -1.
         21    1    1    2  505  501 -0.20444629267E+02  0.11056164241E+03 -0.40032002794E+03  0.41581003404E+03  0.00000000000E+00 0. -1.
          1    1    1    2  501    0 -0.29800642562E+02 -0.10630651132E+03  0.83671117607E+03  0.84396371060E+03  0.00000000000E+00 0.  1.
<scales pt_clust_3="35.82440" pt_clust_4="34.27131" pt_clust_5="14000.00000" pt_clust_6="110.32199"></scales>
<clustering>
<clus scale="   34.271">  2  4  1 -1</clus>
<clus scale="   35.824">  2  3  1 -1</clus>
<clus scale="  110.322">  1  6  2 -1</clus>
<clus scale="   34.271">  2  3  1 -1</clus>
</clustering>
</event>
<event>
 6    0  0.4945982E+002  0.1169389E+03  0.7546771E-02  0.1248234E+00
         21   -1    0    0  505  502  0.00000000000E+00  0.00000000000E+00  0.96047507263E+02  0.96047507263E+02  0.00000000000E+00 0.  1.
          1   -1    0    0  504    0 -0.00000000000E+00 -0.00000000000E+00 -0.72310623049E+03  0.72310623049E+03  0.00000000000E+00 0.  1.
         21    1    1    2  503  502 -0.83169158887E+02  0.78683582770E+02 -0.22720848742E+03  0.25442466850E+03  0.00000000000E+00 0. -1.
         21    1    1    2  504  503 -0.11996290655E+02  0.59041646163E+02 -0.54556380447E+02  0.81278691049E+02  0.00000000000E+00 0. -1.
         21    1    1    2  505  501  0.74070852771E+02 -0.91390013677E+02  0.15881145089E+02  0.11870482972E+03  0.00000000000E+00 0.  1.
          1    1    1    2  501    0  0.21094596772E+02 -0.46335215255E+02 -0.36117500046E+03  0.36474554849E+03  0.00000000000E+00 0.  1.
<scales pt_clust_3="14000.00000" pt_clust_4="50.93862" pt_clust_5="116.93894" pt_clust_6="50.91104"></scales>
<clustering>
<clus scale="   50.911">  2  6  1 -1</clus>
<clus scale="   50.939">  2  4  1 -1</clus>
<clus scale="  116.939">  1  5  2 -1</clus>
<clus scale="  116.939">  1  3  2 -1</clus>
</clustering>
</event>
<event>
 6    0  0.4945982E+002  0.9251481E+02  0.7546771E-02  0.1296874E+00
          2   -1    0    0  505    0 -0.00000000000E+00  0.00000000000E+00  0.81598965713E+03  0.81598965713E+03  0.00000000000E+00 0.  1.
         21   -1    0    0  504  502  0.00000000000E+00 -0.00000000000E+00 -0.26325335466E+03  0.26325335466E+03  0.00000000000E+00 0.  1.
         21    1    1    2  503  502  0.42600168398E+02 -0.20209793100E+02 -0.16071558499E+03  0.16748943054E+03  0.00000000000E+00 0.  1.
         21    1    1    2  504  501  0.15081682608E+02 -0.76164271142E+02 -0.54195514016E+02  0.94686889738E+02  0.00000000000E+00 0.  1.
         21    1    1    2  505  503  0.35218952966E+02  0.76062993232E+02  0.60058551948E+02  0.10311635782E+03  0.00000000000E+00 0. -1.
          2    1    1    2  501    0 -0.92900803972E+02  0.20311071009E+02  0.70758884953E+03  0.71395033369E+03  0.00000000000E+00 0.  1.
<scales pt_clust_3="47.15093" pt_clust_4="14000.00000" pt_clust_5="84.34900" pt_clust_6="92.51481"></scales>
<clustering>
<clus scale="   47.151">  2  3  1 -1</clus>
<clus scale="   84.349">  2  5  1 -1</clus>
<clus scale="   92.515">  1  6  2 -1</clus>
<clus scale="   47.151">  2  3  1 -1</clus>
</clustering>
</event>
<event>
 6    0  0.4945982E+002  0.1501817E+03  0.7546771E-02  0.1200250E+00
         21   -1    0    0  505  502  0.00000000000E+00  0.00000000000E+00  0.43711320056E+03  0.43711320056E+03  0.00000000000E+00 0.  1.
          2   -1    0    0  503    0 -0.00000000000E+00 -0.00000000000E+00 -0.17768734493E+04  0.17768734493E+04  0.00000000000E+00 0. -1.
         21    1    1    2  503  504 -0.44477105568E+02 -0.11695025729E+02 -0.32963951878E+03  0.33283208812E+03  0.00000000000E+00 0.  1.
         21    1    1    2  504  502 -0.11823969495E+02  0.31530413421E+02  0.39779895112E+03  0.39922171626E+03  0.00000000000E+00 0.  1.
         21    1    1    2  505  501 -0.65780540315E+02  0.10208530248E+03 -0.86022075982E+02  0.14882300233E+03  0.00000000000E+00 0. -1.
          2    1    1    2  501    0  0.12208161538E+03 -0.12192069017E+03 -0.13218976052E+04  0.13331098432E+04  0.00000000000E+00 0. -1.
<scales pt_clust_3="46.15108" pt_clust_4="33.67452" pt_clust_5="14000.00000" pt_clust_6="150.18169"></scales>
<clustering>
<clus scale="   33.675">  1  4  2 -1</clus>
<clus scale="   46.151">  2  3  1 -1</clus>
<clus scale="  150.182">  2  6  1 -1</clus>
<clus scale="   33.675">  1  3  2 -1</clus>
</clustering>
</event>
<event>
 6    0  0.4945982E+002  0.1297343E+03  0.7546771E-02  0.1227851E+00
          2   -1    0    0  505    0 -0.00000000000E+00  0.00000000000E+00  0.38971674325E+03  0.38971674325E+03  0.00000000000E+00 0.  1.
         21   -1    0    0  503  502  0.00000000000E+00 -0.00000000000E+00 -0.69020211841E+03  0.69020211841E+03  0.00000000000E+00 0.  1.
         21    1    1    2  503  504 -0.22417762850E+02 -0.26165273346E+02 -0.30576574463E+03  0.30770093956E+03  0.00000000000E+00 0.  1.
         21    1    1    2  504  501 -0.88457807921E+02  0.71847332519E+01 -0.12552847352E+03  0.15373289121E+03  0.00000000000E+00 0.  1.
         21    1    1    2  505  502 -0.14340179541E+02  0.65401483181E+02 -0.22694667388E+03  0.23661738637E+03  0.00000000000E+00 0.  1.
          2    1    1    2  501    0  0.12521575031E+03 -0.46420943087E+02  0.35775551687E+03  0.38186764452E+03  0.00000000000E+00 0.  1.
<scales pt_clust_3="34.45544" pt_clust_4="14000.00000" pt_clust_5="56.89170" pt_clust_6="129.73427"></scales>
<clustering>
<clus scale="   34.455">  2  3  1 -1</clus>
<clus scale="   56.892">  2  5  1 -1</clus>
<clus scale="  129.734">  1  6  2 -1</clus>
<clus scale="   34.455">  2  3  1 -1</clus>
</clustering>
</event>
<event>
 6    0  0.4945982E+002  0.9626710E+02  0.7546771E-02  0.1288347E+00
          2   -1    0    0  504    0 -0.00000000000E+00  0.00000000000E+00  0.22701601871E+04  0.22701601871E+04  0.00000000000E+00 0.  1.
         21   -1    0    0  503  502  0.00000000000E+00 -0.00000000000E+00 -0.13172799660E+03  0.13172799660E+03  0.00000000000E+00 0. -1.
         21    1    1    2  503  505 -0.26340944407E+02  0.44588340084E+02 -0.99563839985E+02  0.11222710749E+03  0.00000000000E+00 0. -1.
         21    1    1    2  504  502 -0.46624511964E+01  0.33964563268E+02  0.15412371998E+02  0.37588179256E+02  0.00000000000E+00 0. -1.
         21    1    1    2  505  501  0.98500976326E+02 -0.61241488309E+01  0.16610064634E+03  0.19320810606E+03  0.00000000000E+00 0.  1.
          2    1    1    2  501    0 -0.67497580722E+02 -0.72428754521E+02  0.20564830122E+04  0.20588647909E+04  0.00000000000E+00 0.  1.
<scales pt_clust_3="80.38546" pt_clust_4="34.28309" pt_clust_5="96.26710" pt_clust_6="14000.00000"></scales>
<clustering>
<clus scale="   34.283">  2  4  1 -1</clus>
<clus scale="   80.385">  2  3  1 -1</clus>
<clus scale="   96.267">  2  5  1 -1</clus>
<clus scale="   34.283">  2  3  1 -1</clus>
</clustering>
</event>
<event>
 6    0  0.4945982E+002  0.1185630E+03  0.7546771E-02  0.1245487E+00
          1   -1    0    0  503    0 -0.00000000000E+00  0.00000000000E+00  0.86630883524E+03  0.86630883524E+03  0.00000000000E+00 0.  1.
         21   -1    0    0  505  502  0.00000000000E+00 -0.00000000000E+00 -0.21389304305E+03  0.21389304305E+03  0.00000000000E+00 0. -1.
         21    1    1    2  503  504  0.28219385241E+02 -0.51826945536E+02 -0.17475910781E+02  0.61544889671E+02  0.00000000000E+00 0. -1.
         21    1    1    2  504  502  0.68642093112E+02 -0.56268187174E+02 -0.60848614367E+02  0.10761226559E+03  0.00000000000E+00 0. -1.
         21    1    1    2  505  501 -0.26413102077E+02  0.21736408948E+02 -0.82966230454E+02  0.89741399761E+02  0.00000000000E+00 0. -1.
          1    1    1    2  501    0 -0.70448376277E+02  0.86358723762E+02  0.81370654780E+03  0.82130332327E+03  0.00000000000E+00 0.  1.
<scales pt_clust_3="30.64735" pt_clust_4="30.64735" pt_clust_5="34.20707" pt_clust_6="112.44770"></scales>
<clustering>
<clus scale="   30.647">  3  4 -1 -1</clus>
<clus scale="   34.207">  2  5  1 -1</clus>
<clus scale="  112.448">  1  6  2 -1</clus>
<clus scale="   34.207">  2  3  1 -1</clus>
</clustering>
</event>
<event>
 6    0  0.4945982E+002  0.1782810E+03  0.7546771E-02  0.1169477E+00
         21   -1    0    0  504  502  0.00000000000E+00  0.00000000000E+00  0.16957726947E+03  0.16957726947E+03  0.00000000000E+00 0. -1.
          2   -1    0    0  505    0 -0.00000000000E+00 -0.00000000000E+00 -0.36891783303E+03  0.36891783303E+03  0.00000000000E+00 0.  1.
         21    1    1    2  503  502 -0.10357728844E+02  0.50665109512E+02  0.57122645670E+02  0.77053439358E+02  0.00000000000E+00 0. -1.
         21    1    1    2  504  501 -0.82802398680E+02  0.14549795676E+02  0.33768722904E+01  0.84138796329E+02  0.00000000000E+00 0. -1.
         21    1    1    2  505  503  0.16874733335E+03 -0.24528674798E+02 -0.23022211941E+03  0.28649527512E+03  0.00000000000E+00 0.  1.
          2    1    1    2  501    0 -0.75587205829E+02 -0.40686230390E+02 -0.29617962103E+02  0.90807591684E+02  0.00000000000E+00 0.  1.
<scales pt_clust_3="51.71301" pt_clust_4="60.27650" pt_clust_5="166.24333" pt_clust_6="60.27650"></scales>
<clustering>
<clus scale="   51.713">  1  3  2 -1</clus>
<clus scale="   60.277">  4  6 -1 -1</clus>
<clus scale="  166.243">  2  5  1 -1</clus>
<clus scale="   51.713">  1  3  2 -1</clus>
</clustering>
</event>
<event>
 6    0  0.4945982E+002  0.9659171E+02  0.7546771E-02  0.1287631E+00
          3   -1    0    0  503    0 -0.00000000000E+00  0.00000000000E+00  0.20753059586E+03  0.20753059586E+03  0.00000000000E+00 0.  1.
         21   -1    0    0  505  502  0.00000000000E+00 -0.00000000000E+00 -0.24119238095E+03  0.24119238095E+03  0.00000000000E+00 0.  1.
         21    1    1    2  503  502 -0.19512229045E+02 -0.12221827467E+03 -0.23548531906E+02  0.12598637665E+03  0.00000000000E+00 0.  1.
         21    1    1    2  504  501  0.83536591284E+02  0.47624103250E+02  0.15049971849E+00  0.96158410677E+02  0.00000000000E+00 0.  1.
         21    1    1    2  505  504 -0.14756904406E+02  0.43455906886E+02 -0.10542857744E+03  0.11498420332E+03  0.00000000000E+00 0.  1.
          3    1    1    2  501    0 -0.49267457834E+02  0.31138264539E+02  0.95164824535E+02  0.11159398617E+03  0.00000000000E+00 0.  1.
<scales pt_clust_3="96.59171" pt_clust_4="14000.00000" pt_clust_5="45.89316" pt_clust_6="60.54806"></scales>
<clustering>
<clus scale="   45.893">  2  5  1 -1</clus>
<clus scale="   60.548">  1  6  2 -1</clus>
<clus scale="   96.592">  2  3  1 -1</clus>
<clus scale="   45.893">  2  3  1 -1</clus>
</clustering>
</event>
<event>
 6    0  0.4945982E+002  0.1242454E+03  0.7546771E-02  0.1236253E+00
         21   -1    0    0  505  502  0.00000000000E+00  0.00000000000E+00  0.17947906932E+02  0.17947906932E+02  0.00000000000E+00 0. -1.
          1   -1    0    0  504    0 -0.00000000000E+00 -0.00000000000E+00 -0.29531449888E+04  0.29531449888E+04  0.00000000000E+00 0. -1.
         21    1    1    2  503  502  0.18318936455E+02 -0.54155644318E+02 -0.25123818257E+03  0.25766071028E+03  0.00000000000E+00 0.  1.
         21    1    1    2  504  503  0.51538311759E+02  0.40767458256E+02 -0.47236556868E+03  0.47691447211E+03  0.00000000000E+00 0.  1.
         21    1    1    2  505  501 -0.75103037266E+02 -0.81677982747E+02 -0.26105870820E+03  0.28366072728E+03  0.00000000000E+00 0. -1.
          1    1    1    2  501    0  0.52457890521E+01  0.95066168809E+02 -0.19505346225E+04  0.19528569861E+04  0.00000000000E+00 0. -1.
<scales pt_clust_3="57.17007" pt_clust_4="63.29276" pt_clust_5="14000.00000" pt_clust_6="124.24537"></scales>
<clustering>
<clus scale="   57.170">  1  3  2 -1</clus>
<clus scale="   63.293">  2  4  1 -1</clus>
<clus scale="  124.245">  2  6  1 -1</clus>
<clus scale="   57.170">  1  3  2 -1</clus>
</clustering>
</event>
<event>
 6    0  0.4945982E+002  0.2807520E+03  0.7546771E-02  0.1095279E+00
          2   -1    0    0  505    0 -0.00000000000E+00  0.00000000000E+00  0.92352317054E+03  0.92352317054E+03  0.00000000000E+00 0.  1.
         21   -1    0    0  501  502  0.00000000000E+00 -0.00000000000E+00 -0.10935355274E+03  0.10935355274E+03  0.00000000000E+00 0.  1.
         21    1    1    2  503  504 -0.72178279219E+02  0.59376206397E+02  0.66374731034E+02  0.11463351516E+03  0.00000000000E+00 0.  1.
         21    1    1    2  504  502 -0.13473178117E+03  0.26966061550E+02  0.60271958422E+02  0.15004176187E+03  0.00000000000E+00 0.  1.
         21    1    1    2  505  503 -0.10496347000E+02  0.46529670062E+02  0.16565217633E+02  0.50493464247E+02  0.00000000000E+00 0.  1.
          2    1    1    2  501    0  0.21740640739E+03 -0.13287193801E+03  0.67095771071E+03  0.71770798201E+03  0.00000000000E+00 0.  1.
<scales pt_clust_3="94.36372" pt_clust_4="94.36372" pt_clust_5="34.53347" pt_clust_6="254.79501"></scales>
<clustering>
<clus scale="   34.533">  3  5 -1 -1</clus>
<clus scale="   94.364">  3  4 -1 -1</clus>
<clus scale="  254.795">  1  6  2 -1</clus>
<clus scale="  280.752">  2  3  1 -1</clus>
</clustering>
</event>
<event>
 6    0  0.4945982E+002  0.1506887E+03  0.7546771E-02  0.1199629E+00
          2   -1    0    0  505    0 -0.00000000000E+00  0.00000000000E+00  0.56201087569E+03  0.56201087569E+03  0.00000000000E+00 0. -1.
         21   -1    0    0  501  502  0.00000000000E+00 -0.00000000000E+00 -0.55658939633E+02  0.55658939633E+02  0.00000000000E+00 0. -1.
         21    1    1    2  503  504 -0.77309526341E+01  0.63331486765E+02  0.10206094038E+03  0.12036228809E+03  0.00000000000E+00 0. -1.
         21    1    1    2  504  502  0.28998257521E+02  0.76954807995E+01  0.70299138790E+01  0.30814591562E+02  0.00000000000E+00 0. -1.
         21    1    1    2  505  503 -0.26244309491E+02  0.76980232441E+02  0.70085838579E+02  0.10736267851E+03  0.00000000000E+00 0. -1.
          2    1    1    2  501    0  0.49770046040E+01 -0.14800720001E+03  0.32717524322E+03  0.35913025716E+03  0.00000000000E+00 0. -1.
<scales pt_clust_3="33.20509" pt_clust_4="30.00199" pt_clust_5="33.20509" pt_clust_6="146.02957"></scales>
<clustering>
<clus scale="   30.002">  2  4  1 -1</clus>
<clus scale="   33.205">  3  5 -1 -1</clus>
<clus scale="  146.030">  1  6  2 -1</clus>
<clus scale="   30.002">  2  3  1 -1</clus>
</clustering>
</event>
<event>
 6    0  0.4945982E+002  0.8571749E+02  0.7546771E-02  0.1313567E+00
          2   -1    0    0  505    0 -0.00000000000E+00  0.00000000000E+00  0.18979792868E+04  0.18979792868E+04  0.00000000000E+00 0.  1.
         21   -1    0    0  504  502  0.00000000000E+00 -0.00000000000E+00 -0.94621041873E+02  0.94621041873E+02  0.00000000000E+00 0.  1.
         21    1    1    2  503  502  0.31432919708E+02 -0.35685449389E+02 -0.79325377384E+02  0.92487811287E+02  0.00000000000E+00 0.  1.
         21    1    1    2  504  501  0.21192732786E+02 -0.73236050269E+02  0.26122787532E+03  0.27212617262E+03  0.00000000000E+00 0.  1.
         21    1    1    2  505  503  0.46591091491E+01  0.69989026513E+02  0.57923673395E+03  0.58346839253E+03  0.00000000000E+00 0.  1.
          2    1    1    2  501    0 -0.57284761643E+02  0.38932473145E+02  0.10422190131E+04  0.10445179523E+04  0.00000000000E+00 0.  1.
<scales pt_clust_3="47.55502" pt_clust_4="85.71749" pt_clust_5="62.54432" pt_clust_6="14000.00000"></scales>
<clustering>
<clus scale="   47.555">  2  3  1 -1</clus>
<clus scale="   62.544">  1  5  2 -1</clus>
<clus scale="   85.717">  2  4  1 -1</clus>
<clus scale="   47.555">  2  3  1 -1</clus>
</clustering>
</event>
<event>
 6    0  0.4945982E+002  0.1578409E+03  0.7546771E-02  0.1191156E+00
          2   -1    0    0  504    0 -0.00000000000E+00  0.00000000000E+00  0.66038686348E+03  0.66038686348E+03  0.00000000000E+00 0.  1.
         21   -1    0    0  501  502  0.00000000000E+00 -0.00000000000E+00 -0.86981951732E+03  0.86981951732E+03  0.00000000000E+00 0.  1.
         21    1    1    2  503  502 -0.81341866138E+02 -0.13648590227E+03 -0.84001800032E+03  0.85491235900E+03  0.00000000000E+00 0.  1.
         21    1    1    2  504  505  0.17584512632E+02  0.27776290123E+02  0.61276293463E+02  0.69537914249E+02  0.00000000000E+00 0.  1.
         21    1    1    2  505  503  0.22810698011E+02  0.39778187236E+02  0.18996333011E+02  0.49633585316E+02  0.00000000000E+00 0.  1.
          2    1    1    2  501    0  0.40946655496E+02  0.68931424914E+02  0.55031272000E+03  0.55612252223E+03  0.00000000000E+00 0.  1.
<scales pt_clust_3="157.84094" pt_clust_4="32.87457" pt_clust_5="47.74874" pt_clust_6="14000.00000"></scales>
<clustering>
<clus scale="   32.875">  1  4  2 -1</clus>
<clus scale="   47.749">  1  5  2 -1</clus>
<clus scale="  157.841">  2  3  1 -1</clus>
<clus scale="  157.841">  2  3  1 -1</clus>
</clustering>
</event>
<event>
 6    0  0.4945982E+002  0.1839075E+03  0.7546771E-02  0.1164074E+00
         21   -1    0    0  503  502  0.00000000000E+00  0.00000000000E+00  0.43472065135E+03  0.43472065135E+03  0.00000000000E+00 0.  1.
          2   -1    0    0  504    0 -0.00000000000E+00 -0.00000000000E+00 -0.86591492077E+03  0.86591492077E+03  0.00000000000E+00 0. -1.
         21    1    1    2  503  501 -0.14583001054E+02  0.54277893734E+02  0.30205440833E+03  0.30723870078E+03  0.00000000000E+00 0.  1.
         21    1    1    2  504  505  0.86878464253E+02 -0.10691187737E+02 -0.19281037235E+02  0.89632178614E+02  0.00000000000E+00 0.  1.
         21    1    1    2  505  502  0.90130211085E+02 -0.10327352934E+02  0.62259370226E+02  0.11002880691E+03  0.00000000000E+00 0.  1.
          2    1    1    2  501    0 -0.16242567428E+03 -0.33259353063E+02 -0.77622701073E+03  0.79373588581E+03  0.00000000000E+00 0. -1.
<scales pt_clust_3="56.20279" pt_clust_4="78.34818" pt_clust_5="78.34818" pt_clust_6="166.06755"></scales>
<clustering>
<clus scale="   56.203">  1  3  2 -1</clus>
<clus scale="   78.348">  4  5 -1 -1</clus>
<clus scale="  166.068">  2  6  1 -1</clus>
<clus scale="   56.203">  1  3  2 -1</clus>
</clustering>
</event>
<event>
 6    0  0.4945982E+002  0.1867666E+03  0.7546771E-02  0.1161410E+00
          1   -1    0    0  505    0 -0.00000000000E+00  0.00000000000E+00  0.20233864507E+04  0.20233864507E+04  0.00000000000E+00 0. -1.
         21   -1    0    0  504  502  0.00000000000E+00 -0.00000000000E+00 -0.89728631680E+02  0.89728631680E+02  0.00000000000E+00 0. -1.
         21    1    1    2  503  502 -0.80279189378E+02  0.90369235878E+02  0.15663089545E+03  0.19784990384E+03  0.00000000000E+00 0. -1.
         21    1    1    2  504  501 -0.12699107141E+03 -0.37335946011E+01  0.10290999751E+02  0.12746205954E+03  0.00000000000E+00 0. -1.
         21    1    1    2  505  503  0.10965906607E+03 -0.28042589586E+02  0.38255967208E+03  0.39895287981E+03  0.00000000000E+00 0. -1.
          1    1    1    2  501    0  0.97611194715E+02 -0.58593051691E+02  0.13841762517E+04  0.13888502392E+04  0.00000000000E+00 0. -1.
<scales pt_clust_3="110.90854" pt_clust_4="186.76657" pt_clust_5="113.18789" pt_clust_6="14000.00000"></scales>
<clustering>
<clus scale="  113.188">  1  5  2 -1</clus>
<clus scale="  110.909">  2  3  1 -1</clus>
<clus scale="  186.767">  2  4  1 -1</clus>
<clus scale="  110.909">  2  3  1 -1</clus>
</clustering>
</event>
<event>
 6    0  0.4945982E+002  0.6881565E+02  0.7546771E-02  0.1364167E+00
         21   -1    0    0  504  502  0.00000000000E+00  0.00000000000E+00  0.14228333446E+03  0.14228333446E+03  0.00000000000E+00 0.  1.
          3   -1    0    0  503    0 -0.00000000000E+00 -0.00000000000E+00 -0.74517385475E+03  0.74517385475E+03  0.00000000000E+00 0. -1.
         21    1    1    2  503  502 -0.18681105016E+02  0.10386833680E+03 -0.31861942083E+03  0.33564259325E+03  0.00000000000E+00 0. -1.
         21    1    1    2  504  505  0.16389708210E+02 -0.28004718880E+02  0.96872241314E+02  0.10216221391E+03  0.00000000000E+00 0.  1.
         21    1    1    2  505  501 -0.42565156851E+02 -0.38427440374E+02  0.64259359323E+01  0.57704015494E+02  0.00000000000E+00 0.  1.
          3    1    1    2  501    0  0.44856553658E+02 -0.37436177547E+02 -0.38756927671E+03  0.39194836655E+03  0.00000000000E+00 0. -1.
<scales pt_clust_3="68.81565" pt_clust_4="32.44822" pt_clust_5="14000.00000" pt_clust_6="59.99141"></scales>
<clustering>
<clus scale="   32.448">  1  4  2 -1</clus>
<clus scale="   59.991">  2  6  1 -1</clus>
<clus scale="   68.816">  2  3  1 -1</clus>
<clus scale="   32.448">  1  3  2 -1</clus>
</clustering>
</event>
<event>
 6    0  0.4945982E+002  0.1113305E+03  0.7546771E-02  0.1258126E+00
         21   -1    0    0  505  502  0.00000000000E+00  0.00000000000E+00  0.87220643898E+02  0.87220643898E+02  0.00000000000E+00 0.  1.
          2   -1    0    0  504    0 -0.00000000000E+00 -0.00000000000E+00 -0.15149243704E+04  0.15149243704E+04  0.00000000000E+00 0.  1.
         21    1    1    2  503  502  0.70350034721E+02 -0.86992749799E+02 -0.12965412816E+03  0.17125144920E+03  0.00000000000E+00 0.  1.
         21    1    1    2  504  503  0.38564691063E+02  0.32303874245E+02 -0.17786519798E+03  0.18484264751E+03  0.00000000000E+00 0.  1.
         21    1    1    2  505  501 -0.43989818686E+02 -0.26350105848E+02  0.49792314580E+02  0.71475218205E+02  0.00000000000E+00 0.  1.
          2    1    1    2  501    0 -0.64924907098E+02  0.81038981402E+02 -0.11699767149E+04  0.11745756994E+04  0.00000000000E+00 0.  1.
<scales pt_clust_3="14000.00000" pt_clust_4="50.30682" pt_clust_5="50.87412" pt_clust_6="111.33051"></scales>
<clustering>
<clus scale="   50.307">  2  4  1 -1</clus>
<clus scale="   50.874">  1  5  2 -1</clus>
<clus scale="  111.331">  2  6  1 -1</clus>
<clus scale="   50.874">  1  3  2 -1</clus>
</clustering>
</event>
<event>
 6    0  0.4945982E+002  0.1000480E+03  0.7546771E-02  0.1280195E+00
         21   -1    0    0  503  502  0.00000000000E+00  0.00000000000E+00  0.22543374803E+03  0.22543374803E+03  0.00000000000E+00 0. -1.
          2   -1    0    0  505    0 -0.00000000000E+00 -0.00000000000E+00 -0.12994272838E+04  0.12994272838E+04  0.00000000000E+00 0.  1.
         21    1    1    2  503  501 -0.54997138190E+02  0.36731088804E+02 -0.19067834015E+02  0.68829066446E+02  0.00000000000E+00 0.  1.
         21    1    1    2  504  502  0.36826031328E+02  0.21592390739E+02 -0.11242653312E+01  0.42704237421E+02  0.00000000000E+00 0.  1.
         21    1    1    2  505  504  0.11351136246E+03 -0.27988758539E+02  0.15847329213E+03  0.19693142037E+03  0.00000000000E+00 0. -1.
          2    1    1    2  501    0 -0.95340255598E+02 -0.30334721003E+02 -0.12122747286E+04  0.12163963076E+04  0.00000000000E+00 0.  1.
<scales pt_clust_3="64.04038" pt_clust_4="42.68944" pt_clust_5="100.04802" pt_clust_6="14000.00000"></scales>
<clustering>
<clus scale="   42.689">  1  4  2 -1</clus>
<clus scale="   64.040">  1  3  2 -1</clus>
<clus scale="  100.048">  1  5  2 -1</clus>
<clus scale="   42.689">  1  3  2 -1</clus>
</clustering>
</event>
<event>
 6    0  0.4945982E+002  0.1186561E+03  0.7546771E-02  0.1245331E+00
         21   -1    0    0  504  502  0.00000000000E+00  0.00000000000E+00  0.74516360377E+02  0.74516360377E+02  0.00000000000E+00 0.  1.
          2   -1    0    0  503    0 -0.00000000000E+00 -0.00000000000E+00 -0.11790778547E+04  0.11790778547E+04  0.00000000000E+00 0.  1.
         21    1    1    2  503  502 -0.93836845923E+02 -0.99957278135E+02 -0.86070053405E+02  0.16187916851E+03  0.00000000000E+00 0.  1.
         21    1    1    2  504  505  0.46015689093E+02  0.93930138906E+02 -0.86827838747E+02  0.13593891356E+03  0.00000000000E+00 0.  1.
         21    1    1    2  505  501  0.73056938119E+02 -0.11165171769E+02 -0.10419431318E+03  0.12774361889E+03  0.00000000000E+00 0. -1.
          2    1    1    2  501    0 -0.25235781290E+02  0.17192310999E+02 -0.82746928903E+03  0.82803251416E+03  0.00000000000E+00 0.  1.
<scales pt_clust_3="14000.00000" pt_clust_4="118.65611" pt_clust_5="64.95932" pt_clust_6="30.53556"></scales>
<clustering>
<clus scale="   30.536">  2  6  1 -1</clus>
<clus scale="   64.959">  2  5  1 -1</clus>
<clus scale="  118.656">  1  4  2 -1</clus>
<clus scale="  118.656">  1  3  2 -1</clus>
</clustering>
</event>
<event>
 6    0  0.4945982E+002  0.1976208E+03  0.7546771E-02  0.1151762E+00
         -3   -1    0    0    0  501 -0.00000000000E+00  0.00000000000E+00  0.53055821196E+03  0.53055821196E+03  0.00000000000E+00 0. -1.
         21   -1    0    0  501  502  0.00000000000E+00 -0.00000000000E+00 -0.12840895669E+03  0.12840895669E+03  0.00000000000E+00 0. -1.
         21    1    1    2  503  502  0.92662383849E+00 -0.35211214423E+02 -0.45224629858E+02  0.57323253559E+02  0.00000000000E+00 0. -1.
         21    1    1    2  504  503  0.24984726023E+02 -0.16182212125E+03  0.88984825082E+02  0.18635700834E+03  0.00000000000E+00 0. -1.
         21    1    1    2  505  504 -0.56836523651E+00  0.61155019020E+02  0.56509437766E+02  0.83268096814E+02  0.00000000000E+00 0. -1.
         -3    1    1    2    0  505 -0.25342984625E+02  0.13587831666E+03  0.30187962228E+03  0.33201880994E+03  0.00000000000E+00 0. -1.
<scales pt_clust_3="35.22340" pt_clust_4="185.81444" pt_clust_5="43.54422" pt_clust_6="43.54422"></scales>
<clustering>
<clus scale="   35.223">  2  3  1 -1</clus>
<clus scale="   43.544">  5  6 -1 -1</clus>
<clus scale="  185.814">  2  4  1 -1</clus>
<clus scale="   35.223">  2  3  1 -1</clus>
</clustering>
</event>
<event>
 6    0  0.4945982E+002  0.1981099E+03  0.7546771E-02  0.1151344E+00
          2   -1    0    0  504    0 -0.00000000000E+00  0.00000000000E+00  0.14119310118E+04  0.14119310118E+04  0.00000000000E+00 0.  1.
         21   -1    0    0  501  502  0.00000000000E+00 -0.00000000000E+00 -0.11559241343E+04  0.11559241343E+04  0.00000000000E+00 0.  1.
         21    1    1    2  503  502 -0.48365802821E+02 -0.16575054588E+02 -0.46759506207E+03  0.47038189314E+03  0.00000000000E+00 0.  1.
         21    1    1    2  504  505  0.74372797469E+01  0.46954526702E+02 -0.21869691965E+03  0.22380434172E+03  0.00000000000E+00 0.  1.
         21    1    1    2  505  503 -0.77336092893E+02  0.11465187622E+03 -0.44901286473E+03  0.46982813525E+03  0.00000000000E+00 0.  1.
          2    1    1    2  501    0  0.11826461597E+03 -0.14503134833E+03  0.13913117240E+04  0.14038407761E+04  0.00000000000E+00 0.  1.
<scales pt_clust_3="51.12713" pt_clust_4="38.38924" pt_clust_5="38.38924" pt_clust_6="186.97686"></scales>
<clustering>
<clus scale="   38.389">  4  5 -1 -1</clus>
<clus scale="   51.127">  2  3  1 -1</clus>
<clus scale="  186.977">  1  6  2 -1</clus>
<clus scale="   51.127">  2  3  1 -1</clus>
</clustering>
</event>
<event>
 6    0  0.4945982E+002  0.1494920E+03  0.7546771E-02  0.1201099E+00
         21   -1    0    0  504  502  0.00000000000E+00  0.00000000000E+00  0.82080138742E+03  0.82080138742E+03  0.00000000000E+00 0.  1.
          2   -1    0    0  505    0 -0.00000000000E+00 -0.00000000000E+00 -0.70081592137E+03  0.70081592137E+03  0.00000000000E+00 0.  1.
         21    1    1    2  503  502  0.25435949634E+02 -0.19967981266E+02  0.57461441384E+02  0.65935764616E+02  0.00000000000E+00 0.  1.
         21    1    1    2  504  501  0.79014443028E+02  0.91298794697E+02  0.61204434346E+03  0.62384054892E+03  0.00000000000E+00 0.  1.
         21    1    1    2  505  503 -0.13374244939E+02  0.47697934539E+02  0.12836144106E+03  0.13758860032E+03  0.00000000000E+00 0.  1.
          2    1    1    2  501    0 -0.91076147723E+02 -0.11902874797E+03 -0.67788175986E+03  0.69425239494E+03  0.00000000000E+00 0.  1.
<scales pt_clust_3="32.33741" pt_clust_4="14000.00000" pt_clust_5="45.09086" pt_clust_6="149.49195"></scales>
<clustering>
<clus scale="   32.337">  1  3  2 -1</clus>
<clus scale="   45.091">  1  5  2 -1</clus>
<clus scale="  149.492">  2  6  1 -1</clus>
<clus scale="   32.337">  1  3  2 -1</clus>
</clustering>
</event>
<event>
 6    0  0.4945982E+002  0.2280272E+03  0.7546771E-02  0.1128036E+00
          2   -1    0    0  505    0 -0.00000000000E+00  0.00000000000E+00  0.20620417071E+04  0.20620417071E+04  0.00000000000E+00 0. -1.
         21   -1    0    0  503  502  0.00000000000E+00 -0.00000000000E+00 -0.11190593346E+03  0.11190593346E+03  0.00000000000E+00 0. -1.
         21    1    1    2  503  501 -0.10790280867E+03  0.20444772931E+03  0.21951358914E+03  0.31879163408E+03  0.00000000000E+00 0. -1.
         21    1    1    2  504  502 -0.42010124796E+01 -0.42100174121E+02  0.17152670701E+02  0.45653995214E+02  0.00000000000E+00 0. -1.
         21    1    1    2  505  504  0.16787605693E+03 -0.16682661592E+03  0.24743336410E+03  0.34239853963E+03  0.00000000000E+00 0. -1.
          2    1    1    2  501    0 -0.55772235784E+02  0.44790607250E+01  0.14660361497E+04  0.14671034716E+04  0.00000000000E+00 0. -1.
<scales pt_clust_3="228.02723" pt_clust_4="42.30926" pt_clust_5="14000.00000" pt_clust_6="55.95675"></scales>
<clustering>
<clus scale="   42.309">  2  4  1 -1</clus>
<clus scale="   55.957">  1  6  2 -1</clus>
<clus scale="  228.027">  2  3  1 -1</clus>
<clus scale="   42.309">  2  3  1 -1</clus>
</clustering>
</event>
<event>
 6    0  0.4945982E+002  0.1098243E+03  0.7546771E-02  0.1260896E+00
          2   -1    0    0  504    0 -0.00000000000E+00  0.00000000000E+00  0.87842300476E+03  0.87842300476E+03  0.00000000000E+00 0.  1.
         21   -1    0    0  503  502  0.00000000000E+00 -0.00000000000E+00 -0.33135350104E+03  0.33135350104E+03  0.00000000000E+00 0.  1.
         21    1    1    2  503  501 -0.38698190342E+01  0.45448822100E+02  0.53681892622E+01  0.45928078401E+02  0.00000000000E+00 0. -1.
         21    1    1    2  504  505  0.89401879608E+02 -0.12285801801E+03 -0.64864339507E+02  0.16520947675E+03  0.00000000000E+00 0.  1.
         21    1    1    2  505  502 -0.18683556541E+01  0.73127518522E+02 -0.18692992221E+03  0.20073345644E+03  0.00000000000E+00 0.  1.
          2    1    1    2  501    0 -0.83663704919E+02  0.42816773900E+01  0.79349557617E+03  0.79790549421E+03  0.00000000000E+00 0.  1.
<scales pt_clust_3="45.61328" pt_clust_4="109.82430" pt_clust_5="14000.00000" pt_clust_6="83.81767"></scales>
<clustering>
<clus scale="   45.613">  2  3  1 -1</clus>
<clus scale="   83.818">  1  6  2 -1</clus>
<clus scale="  109.824">  1  4  2 -1</clus>
<clus scale="   45.613">  2  3  1 -1</clus>
</clustering>
</event>
<event>
 6    0  0.1372941E+003  0.1044411E+03  0.7546771E-02  0.1271225E+00
         21   -1    0    0  503  502  0.00000000000E+00  0.00000000000E+00  0.94739807158E+03  0.94739807158E+03  0.00000000000E+00 0.  1.
          2   -1    0    0  504    0 -0.00000000000E+00 -0.00000000000E+00 -0.16457812623E+04  0.16457812623E+04  0.00000000000E+00 0.  1.
         21    1    1    2  503  501 -0.29718049911E+02 -0.12968417180E+02  0.33622434570E+01  0.32598267066E+02  0.00000000000E+00 0.  1.
         21    1    1    2  504  505  0.56981112964E+02  0.10017793073E+03  0.73120522034E+03  0.74023208475E+03  0.00000000000E+00 0.  1.
         21    1    1    2  505  502 -0.33355301591E+02  0.17071389535E+02  0.19019232557E+03  0.19384821173E+03  0.00000000000E+00 0.  1.
          2    1    1    2  501    0  0.60922385379E+01 -0.10428090309E+03 -0.16231429801E+04  0.16265007703E+04  0.00000000000E+00 0.  1.
<scales pt_clust_3="32.42441" pt_clust_4="104.44111" pt_clust_5="42.03567" pt_clust_6="14000.00000"></scales>
<clustering>
<clus scale="   32.424">  1  3  2 -1</clus>
<clus scale="   42.036">  1  5  2 -1</clus>
<clus scale="  104.441">  1  4  2 -1</clus>
<clus scale="   32.424">  1  3  2 -1</clus>
</clustering>
</event>
<event>
 6    0  0.4945982E+002  0.1886130E+03  0.7546771E-02  0.1159718E+00
          1   -1    0    0  504    0 -0.00000000000E+00  0.00000000000E+00  0.98769566240E+03  0.98769566240E+03  0.00000000000E+00 0. -1.
         21   -1    0    0  505  502  0.00000000000E+00 -0.00000000000E+00 -0.11277031849E+04  0.11277031849E+04  0.00000000000E+00 0.  1.
         21    1    1    2  503  501 -0.88941592151E+02  0.13331053511E+03 -0.23824701756E+03  0.28713053994E+03  0.00000000000E+00 0.  1.
         21    1    1    2  504  502 -0.80173058637E+02  0.57699187845E+00 -0.45696335831E+02  0.92283299460E+02  0.00000000000E+00 0.  1.
         21    1    1    2  505  503  0.70783027118E+02  0.28282642586E+02 -0.78459234314E+03  0.78828629933E+03  0.00000000000E+00 0.  1.
          1    1    1    2  501    0  0.98331623670E+02 -0.16217016958E+03  0.92852817407E+03  0.94769870854E+03  0.00000000000E+00 0. -1.
<scales pt_clust_3="188.61303" pt_clust_4="66.16368" pt_clust_5="76.22431" pt_clust_6="14000.00000"></scales>
<clustering>
<clus scale="   76.224">  2  5  1 -1</clus>
<clus scale="   66.164">  2  4  1 -1</clus>
<clus scale="  188.613">  2  3  1 -1</clus>
<clus scale="   76.224">  2  3  1 -1</clus>
</clustering>
</event>
<event>
 6    0  0.4945982E+002  0.1205357E+03  0.7546771E-02  0.1242216E+00
         21   -1    0    0  505  502  0.00000000000E+00  0.00000000000E+00  0.64558857822E+02  0.64558857822E+02  0.00000000000E+00 0. -1.
          2   -1    0    0  504    0 -0.00000000000E+00 -0.00000000000E+00 -0.17977129791E+04  0.17977129791E+04  0.00000000000E+00 0.  1.
         21    1    1    2  503  502  0.33522708631E+02 -0.58854523026E+01 -0.37467684041E+02  0.50618552826E+02  0.00000000000E+00 0.  1.
         21    1    1    2  504  503 -0.86681632180E+02  0.60534491703E+02 -0.26196244325E+03  0.28249327729E+03  0.00000000000E+00 0. -1.
         21    1    1    2  505  501  0.42076373782E+02 -0.10919661732E+03 -0.25414125817E+02  0.11975057518E+03  0.00000000000E+00 0. -1.
          2    1    1    2  501    0  0.11082549767E+02  0.54547577917E+02 -0.14083098682E+04  0.14094094316E+04  0.00000000000E+00 0.  1.
<scales pt_clust_3="34.03543" pt_clust_4="120.53572" pt_clust_5="14000.00000" pt_clust_6="55.67156"></scales>
<clustering>
<clus scale="   34.035">  1  3  2 -1</clus>
<clus scale="   55.672">  2  6  1 -1</clus>
<clus scale="  120.536">  2  4  1 -1</clus>
<clus scale="   34.035">  1  3  2 -1</clus>
</clustering>
</event>
<event>
 6    0  0.4945982E+002  0.2690328E+03  0.7546771E-02  0.1101834E+00
         21   -1    0    0  503  502  0.00000000000E+00  0.00000000000E+00  0.79877890305E+03  0.79877890305E+03  0.00000000000E+00 0. -1.
         -4   -1    0    0    0  501 -0.00000000000E+00 -0.00000000000E+00 -0.29120246382E+03  0.29120246382E+03  0.00000000000E+00 0. -1.
         21    1    1    2  503  501  0.36518778482E+03  0.65270133945E+02  0.48973214216E+03  0.61437763601E+03  0.00000000000E+00 0. -1.
         21    1    1    2  504  505 -0.12679349639E+03 -0.16285588961E+02  0.10783942440E+03  0.16724578497E+03  0.00000000000E+00 0. -1.
         21    1    1    2  505  502 -0.52062498108E+02 -0.37640641137E+02  0.44609323783E+02  0.78213255544E+02  0.00000000000E+00 0. -1.
         -4    1    1    2    0  504 -0.18633179032E+03 -0.11343903847E+02 -0.13460445111E+03  0.23014469035E+03  0.00000000000E+00 0. -1.
<scales pt_clust_3="265.07852" pt_clust_4="32.57921" pt_clust_5="32.57921" pt_clust_6="186.67678"></scales>
<clustering>
<clus scale="   32.579">  4  5 -1 -1</clus>
<clus scale="  186.677">  2  6  1 -1</clus>
<clus scale="  265.079">  2  3  1 -1</clus>
<clus scale="  269.033">  1  3  2 -1</clus>
</clustering>
</event>
<event>
 6    0  0.4945982E+002  0.1917788E+03  0.7546771E-02  0.1156867E+00
          2   -1    0    0  504    0 -0.00000000000E+00  0.00000000000E+00  0.19570694108E+04  0.19570694108E+04  0.00000000000E+00 0. -1.
         21   -1    0    0  505  502  0.00000000000E+00 -0.00000000000E+00 -0.10991077305E+03  0.10991077305E+03  0.00000000000E+00 0. -1.
         21    1    1    2  503  501 -0.37492847128E+02 -0.31576604877E+01  0.70617800084E+02  0.80015986492E+02  0.00000000000E+00 0.  1.
         21    1    1    2  504  502  0.19894795267E+03 -0.76809274360E+02  0.94019664480E+03  0.96407970801E+03  0.00000000000E+00 0. -1.
         21    1    1    2  505  503 -0.18133874356E+03  0.55515788090E+02  0.37391619515E+01  0.18968322006E+03  0.00000000000E+00 0. -1.
          2    1    1    2  501    0  0.19883638018E+02  0.24451146758E+02  0.83260503093E+03  0.83320126930E+03  0.00000000000E+00 0. -1.
<scales pt_clust_3="36.19259" pt_clust_4="14000.00000" pt_clust_5="191.77881" pt_clust_6="31.51536"></scales>
<clustering>
<clus scale="   31.515">  1  6  2 -1</clus>
<clus scale="   36.193">  1  3  2 -1</clus>
<clus scale="  191.779">  2  5  1 -1</clus>
<clus scale="  191.779">  2  3  1 -1</clus>
</clustering>
</event>
<event>
 6    0  0.4945982E+002  0.1213403E+03  0.7546771E-02  0.1240902E+00
         21   -1    0    0  504  502  0.00000000000E+00  0.00000000000E+00  0.32185856515E+03  0.32185856515E+03  0.00000000000E+00 0. -1.
          2   -1    0    0  505    0 -0.00000000000E+00 -0.00000000000E+00 -0.18267759105E+04  0.18267759105E+04  0.00000000000E+00 0. -1.
         21    1    1    2  503  502 -0.19634110607E+02 -0.94549703100E+02 -0.79395817776E+02  0.12501536120E+03  0.00000000000E+00 0. -1.
         21    1    1    2  504  501  0.26345207371E+02  0.10927890998E+03  0.27995485118E+03  0.30167974545E+03  0.00000000000E+00 0. -1.
         21    1    1    2  505  503 -0.28529430145E+02 -0.44214668983E+02 -0.78234637546E+02  0.94284271486E+02  0.00000000000E+00 0. -1.
          2    1    1    2  501    0  0.21818333382E+02  0.29485462104E+02 -0.16272417412E+04  0.16276550975E+04  0.00000000000E+00 0. -1.
<scales pt_clust_3="30.16335" pt_clust_4="114.25313" pt_clust_5="30.16335" pt_clust_6="36.68013"></scales>
<clustering>
<clus scale="   30.163">  3  5 -1 -1</clus>
<clus scale="   36.680">  2  6  1 -1</clus>
<clus scale="  114.253">  1  4  2 -1</clus>
<clus scale="  114.253">  1  3  2 -1</clus>
</clustering>
</event>
<event>
 6    0  0.4945982E+002  0.1737241E+03  0.7546771E-02  0.1174019E+00
          2   -1    0    0  504    0 -0.00000000000E+00  0.00000000000E+00  0.17913332174E+04  0.17913332174E+04  0.00000000000E+00 0. -1.
         21   -1    0    0  501  502  0.00000000000E+00 -0.00000000000E+00 -0.39241199865E+03  0.39241199865E+03  0.00000000000E+00 0.  1.
         21    1    1    2  503  505  0.72186308164E+02 -0.82193815807E+02 -0.25645986979E+03  0.27881598099E+03  0.00000000000E+00 0.  1.
         21    1    1    2  504  503 -0.14299968391E+03  0.50327163619E+02  0.87042298947E+02  0.17480873778E+03  0.00000000000E+00 0.  1.
         21    1    1    2  505  502  0.58286706783E+02 -0.11779731398E+02 -0.69604903450E+02  0.91547500477E+02  0.00000000000E+00 0.  1.
          2    1    1    2  501    0  0.12526668967E+02  0.43646383586E+02  0.16379436931E+04  0.16385729968E+04  0.00000000000E+00 0. -1.
<scales pt_clust_3="52.69349" pt_clust_4="158.69283" pt_clust_5="52.69349" pt_clust_6="45.40842"></scales>
<clustering>
<clus scale="   45.408">  1  6  2 -1</clus>
<clus scale="   52.693">  3  5 -1 -1</clus>
<clus scale="  158.693">  1  4  2 -1</clus>
<clus scale="  173.724">  2  3  1 -1</clus>
</clustering>
</event>
<event>
 6    0  0.4945982E+002  0.9363721E+02  0.7546771E-02  0.1294275E+00
          2   -1    0    0  505    0 -0.00000000000E+00  0.00000000000E+00  0.23945970849E+04  0.23945970849E+04  0.00000000000E+00 0. -1.
         21   -1    0    0  503  502  0.00000000000E+00 -0.00000000000E+00 -0.59629237693E+03  0.59629237693E+03  0.00000000000E+00 0. -1.
         21    1    1    2  503  501  0.44871171760E+01  0.98143545066E+02 -0.45014496564E+03  0.46074155419E+03  0.00000000000E+00 0. -1.
         21    1    1    2  504  502  0.35464797689E+02 -0.77783941672E-02 -0.65375554764E+02  0.74375500646E+02  0.00000000000E+00 0. -1.
         21    1    1    2  505  504  0.26354393453E+02 -0.31958737616E+02 -0.63927449331E+02  0.76175020461E+02  0.00000000000E+00 0.  1.
          2    1    1    2  501    0 -0.66306308318E+02 -0.66177029056E+02  0.23777526777E+04  0.23795973865E+04  0.00000000000E+00 0. -1.
<scales pt_clust_3="93.63721" pt_clust_4="30.72613" pt_clust_5="77.11156" pt_clust_6="14000.00000"></scales>
<clustering>
<clus scale="   30.726">  4  5 -1 -1</clus>
<clus scale="   77.112">  2  4  1 -1</clus>
<clus scale="   93.637">  2  3  1 -1</clus>
<clus scale="   77.112">  2  3  1 -1</clus>
</clustering>
</event>
<event>
 6    0  0.4945982E+002  0.1227824E+03  0.7546771E-02  0.1238576E+00
          2   -1    0    0  503    0 -0.00000000000E+00  0.00000000000E+00  0.12738609019E+03  0.12738609019E+03  0.00000000000E+00 0.  1.
         21   -1    0    0  504  502  0.00000000000E+00 -0.00000000000E+00 -0.77621083803E+03  0.77621083803E+03  0.00000000000E+00 0.  1.
         21    1    1    2  503  505 -0.30527609544E+02  0.60177887611E+02 -0.11708663792E+03  0.13513916487E+03  0.00000000000E+00 0.  1.
         21    1    1    2  504  501  0.11062387464E+03  0.38173100145E+00 -0.37686912095E+03  0.39276980750E+03  0.00000000000E+00 0.  1.
         21    1    1    2  505  502 -0.50721436992E+02  0.52637963554E+02 -0.22686862684E+03  0.23835434383E+03  0.00000000000E+00 0.  1.
          2    1    1    2  501    0 -0.29374828101E+02 -0.11319758217E+03  0.71999637875E+02  0.13733361201E+03  0.00000000000E+00 0.  1.
<scales pt_clust_3="41.47388" pt_clust_4="110.62453" pt_clust_5="41.47388" pt_clust_6="114.94421"></scales>
<clustering>
<clus scale="   41.474">  3  5 -1 -1</clus>
<clus scale="  110.625">  2  4  1 -1</clus>
<clus scale="  114.944">  1  6  2 -1</clus>
<clus scale="  110.625">  2  3  1 -1</clus>
</clustering>
</event>
<event>
 6    0  0.4945982E+002  0.1035684E+03  0.7546771E-02  0.1272966E+00
         21   -1    0    0  504  502  0.00000000000E+00  0.00000000000E+00  0.10210955801E+03  0.10210955801E+03  0.00000000000E+00 0. -1.
         -1   -1    0    0    0  501 -0.00000000000E+00 -0.00000000000E+00 -0.74254610525E+03  0.74254610525E+03  0.00000000000E+00 0. -1.
         21    1    1    2  503  501  0.43164055537E+02 -0.17837214477E+02 -0.11440267168E+03  0.12356890061E+03  0.00000000000E+00 0. -1.
         21    1    1    2  504  503 -0.68430876684E+02  0.76695183829E+02  0.52524896102E+02  0.11542876945E+03  0.00000000000E+00 0. -1.
         21    1    1    2  505  502 -0.30369230813E+02 -0.28599309638E+02 -0.25304534142E+02  0.48790676775E+02  0.00000000000E+00 0.  1.
         -1    1    1    2    0  505  0.55636051961E+02 -0.30258659714E+02 -0.55325423752E+03  0.55686731642E+03  0.00000000000E+00 0. -1.
<scales pt_clust_3="45.87545" pt_clust_4="14000.00000" pt_clust_5="41.71583" pt_clust_6="103.56839"></scales>
<clustering>
<clus scale="   41.716">  1  5  2 -1</clus>
<clus scale="   45.875">  2  3  1 -1</clus>
<clus scale="  103.568">  2  6  1 -1</clus>
<clus scale="   41.716">  1  3  2 -1</clus>
</clustering>
</event>
<event>
 6    0  0.4945982E+002  0.1966720E+03  0.7546771E-02  0.1152578E+00
         21   -1    0    0  501  502  0.00000000000E+00  0.00000000000E+00  0.64346261761E+02  0.64346261761E+02  0.00000000000E+00 0. -1.
          1   -1    0    0  503    0 -0.00000000000E+00 -0.00000000000E+00 -0.77069768429E+03  0.77069768429E+03  0.00000000000E+00 0.  1.
         21    1    1    2  503  505 -0.10290418266E+03 -0.63776055700E+02 -0.30920149718E+03  0.33205755818E+03  0.00000000000E+00 0. -1.
         21    1    1    2  504  502 -0.34182804049E+01 -0.32344625765E+02 -0.97447106476E+00  0.32539346193E+02  0.00000000000E+00 0. -1.
         21    1    1    2  505  504 -0.96369607980E+01 -0.58982810479E+02 -0.84278950673E+02  0.10331884858E+03  0.00000000000E+00 0. -1.
          1    1    1    2  501    0  0.11595942387E+03  0.15510349194E+03 -0.31189650361E+03  0.36712819309E+03  0.00000000000E+00 0.  1.
<scales pt_clust_3="60.59543" pt_clust_4="32.52475" pt_clust_5="60.59543" pt_clust_6="178.01510"></scales>
<clustering>
<clus scale="   32.525">  1  4  2 -1</clus>
<clus scale="   60.595">  3  5 -1 -1</clus>
<clus scale="  178.015">  1  6  2 -1</clus>
<clus scale="   32.525">  1  3  2 -1</clus>
</clustering>
</event>
<event>
 6    0  0.4945982E+002  0.1504272E+03  0.7546771E-02  0.1199949E+00
         21   -1    0    0  503  502  0.00000000000E+00  0.00000000000E+00  0.13061178535E+03  0.13061178535E+03  0.00000000000E+00 0. -1.
          1   -1    0    0  504    0 -0.00000000000E+00 -0.00000000000E+00 -0.88711482468E+03  0.88711482468E+03  0.00000000000E+00 0.  1.
         21    1    1    2  503  501  0.69181069247E+02 -0.45564680239E+02 -0.56474660794E+02  0.10025740740E+03  0.00000000000E+00 0.  1.
         21    1    1    2  504  505  0.57915172432E+01 -0.11538997766E+03 -0.23614195326E+03  0.26289049185E+03  0.00000000000E+00 0. -1.
         21    1    1    2  505  502 -0.98317387685E+02  0.13277824946E+03  0.22567719081E+02  0.16675033492E+03  0.00000000000E+00 0. -1.
          1    1    1    2  501    0  0.23344801195E+02  0.28176408435E+02 -0.48645414436E+03  0.48782837586E+03  0.00000000000E+00 0.  1.
<scales pt_clust_3="83.92454" pt_clust_4="14000.00000" pt_clust_5="150.42724" pt_clust_6="36.59084"></scales>
<clustering>
<clus scale="   36.591">  2  6  1 -1</clus>
<clus scale="   83.925">  2  3  1 -1</clus>
<clus scale="  150.427">  1  5  2 -1</clus>
<clus scale="  150.427">  1  3  2 -1</clus>
</clustering>
</event>
<event>
 6    0  0.4945982E+002  0.1697296E+03  0.7546771E-02  0.1178130E+00
          2   -1    0    0  503    0 -0.00000000000E+00  0.00000000000E+00  0.19458854343E+04  0.19458854343E+04  0.00000000000E+00 0.  1.
         21   -1    0    0  505  502  0.00000000000E+00 -0.00000000000E+00 -0.53760283095E+02  0.53760283095E+02  0.00000000000E+00 0.  1.
         21    1    1    2  503  502  0.41440043920E+02 -0.20934512205E+02  0.46197026329E+01  0.46656968330E+02  0.00000000000E+00 0.  1.
         21    1    1    2  504  501 -0.69391507239E+02  0.81973210846E+02  0.13275572779E+03  0.17075969031E+03  0.00000000000E+00 0.  1.
         21    1    1    2  505  504 -0.56060356894E+02  0.71879473711E+02  0.20293411972E+03  0.22246725445E+03  0.00000000000E+00 0.  1.
          2    1    1    2  501    0  0.84011820213E+02 -0.13291817235E+03  0.15518156011E+04  0.15597618043E+04  0.00000000000E+00 0.  1.
<scales pt_clust_3="46.42770" pt_clust_4="46.34800" pt_clust_5="46.34800" pt_clust_6="162.10247"></scales>
<clustering>
<clus scale="   46.348">  4  5 -1 -1</clus>
<clus scale="   46.428">  2  3  1 -1</clus>
<clus scale="  162.102">  1  6  2 -1</clus>
<clus scale="   46.428">  2  3  1 -1</clus>
</clustering>
</event>
<event>
 6    0  0.4945982E+002  0.1220170E+03  0.7546771E-02  0.1239806E+00
         21   -1    0    0  505  502  0.00000000000E+00  0.00000000000E+00  0.36915403528E+03  0.36915403528E+03  0.00000000000E+00 0.  1.
          2   -1    0    0  502    0 -0.00000000000E+00 -0.00000000000E+00 -0.17635546682E+04  0.17635546682E+04  0.00000000000E+00 0. -1.
         21    1    1    2  503  504 -0.47327309787E+01  0.43770157032E+02  0.93760657042E+02  0.10358226778E+03  0.00000000000E+00 0.  1.
         21    1    1    2  504  501 -0.48602949318E+02  0.38030046215E+02  0.12272966372E+03  0.13737212765E+03  0.00000000000E+00 0.  1.
         21    1    1    2  505  503  0.39314260508E+02  0.32606131885E+02  0.13382213275E+03  0.14323803311E+03  0.00000000000E+00 0.  1.
          2    1    1    2  501    0  0.14021419789E+02 -0.11440633513E+03 -0.17447130864E+04  0.17485162749E+04  0.00000000000E+00 0. -1.
<scales pt_clust_3="34.36053" pt_clust_4="34.36053" pt_clust_5="51.07613" pt_clust_6="115.03548"></scales>
<clustering>
<clus scale="   34.361">  3  4 -1 -1</clus>
<clus scale="   51.076">  1  5  2 -1</clus>
<clus scale="  115.035">  2  6  1 -1</clus>
<clus scale="   51.076">  1  3  2 -1</clus>
</clustering>
</event>
<event>
 6    0  0.4945982E+002  0.1373167E+03  0.7546771E-02  0.1216986E+00
         21   -1    0    0  504  502  0.00000000000E+00  0.00000000000E+00  0.57933514243E+02  0.57933514243E+02  0.00000000000E+00 0. -1.
          1   -1    0    0  502    0 -0.00000000000E+00 -0.00000000000E+00 -0.15640779418E+04  0.15640779418E+04  0.00000000000E+00 0.  1.
         21    1    1    2  503  501  0.16372916170E+02  0.56463513687E+02 -0.27860850565E+03  0.28474356917E+03  0.00000000000E+00 0. -1.
         21    1    1    2  504  505  0.48318156421E+02 -0.12644317021E+03 -0.95394116481E+02  0.16559757544E+03  0.00000000000E+00 0. -1.
         21    1    1    2  505  503 -0.10147089970E+03  0.10918405408E+03 -0.27460833230E+03  0.31245357627E+03  0.00000000000E+00 0. -1.
          1    1    1    2  501    0  0.36779827106E+02 -0.39204397561E+02 -0.85753347314E+03  0.85921673519E+03  0.00000000000E+00 0.  1.
<scales pt_clust_3="51.28550" pt_clust_4="14000.00000" pt_clust_5="137.31667" pt_clust_6="53.75631"></scales>
<clustering>
<clus scale="   53.756">  2  6  1 -1</clus>
<clus scale="   51.286">  2  3  1 -1</clus>
<clus scale="  137.317">  2  5  1 -1</clus>
<clus scale="  137.317">  1  3  2 -1</clus>
</clustering>
</event>
<event>
 6    0  0.4945982E+002  0.1363962E+03  0.7546771E-02  0.1218262E+00
         21   -1    0    0  505  502  0.00000000000E+00  0.00000000000E+00  0.70265343650E+03  0.70265343650E+03  0.00000000000E+00 0.  1.
          1   -1    0    0  504    0 -0.00000000000E+00 -0.00000000000E+00 -0.24282024970E+03  0.24282024970E+03  0.00000000000E+00 0.  1.
         21    1    1    2  503  502 -0.67876354444E+02  0.10157911232E+02  0.24988376201E+03  0.25913756418E+03  0.00000000000E+00 0. -1.
         21    1    1    2  504  503 -0.86207192329E+02  0.38678623159E+02  0.22737642712E+03  0.24622704058E+03  0.00000000000E+00 0.  1.
         21    1    1    2  505  501  0.40924244174E+02  0.14702885241E+02  0.19028335015E+03  0.19518893908E+03  0.00000000000E+00 0.  1.
          1    1    1    2  501    0  0.11315930260E+03 -0.63539419632E+02 -0.20771035248E+03  0.24492014237E+03  0.00000000000E+00 0.  1.
<scales pt_clust_3="32.89101" pt_clust_4="32.89101" pt_clust_5="43.48527" pt_clust_6="130.82264"></scales>
<clustering>
<clus scale="   32.891">  3  4 -1 -1</clus>
<clus scale="   43.485">  1  5  2 -1</clus>
<clus scale="  130.823">  2  6  1 -1</clus>
<clus scale="   43.485">  1  3  2 -1</clus>
</clustering>
</event>
<event>
 6    0  0.4945982E+002  0.1464152E+03  0.7546771E-02  0.1204948E+00
          2   -1    0    0  503    0 -0.00000000000E+00  0.00000000000E+00  0.11636072604E+04  0.11636072604E+04  0.00000000000E+00 0.  1.
         21   -1    0    0  504  502  0.00000000000E+00 -0.00000000000E+00 -0.54338208058E+02  0.54338208058E+02  0.00000000000E+00 0. -1.
         21    1    1    2  503  505 -0.35281710561E+02 -0.94836066293E+02  0.29837230674E+03  0.31506302861E+03  0.00000000000E+00 0.  1.
         21    1    1    2  504  501 -0.13089623606E+02  0.12846013187E+03  0.80463726207E+02  0.15214386272E+03  0.00000000000E+00 0. -1.
         21    1    1    2  505  502  0.12916652059E+02 -0.83439584567E+02  0.20423323536E+03  0.22099823212E+03  0.00000000000E+00 0.  1.
          2    1    1    2  501    0  0.35454682108E+02  0.49815518988E+02  0.52619978404E+03  0.52974034502E+03  0.00000000000E+00 0.  1.
<scales pt_clust_3="45.37071" pt_clust_4="137.73331" pt_clust_5="45.37071" pt_clust_6="61.14426"></scales>
<clustering>
<clus scale="   45.371">  3  5 -1 -1</clus>
<clus scale="   61.144">  1  6  2 -1</clus>
<clus scale="  137.733">  2  4  1 -1</clus>
<clus scale="  137.733">  2  3  1 -1</clus>
</clustering>
</event>
<event>
 6    0  0.4945982E+002  0.9571028E+02  0.7546771E-02  0.1289584E+00
         21   -1    0    0  504  502  0.00000000000E+00  0.00000000000E+00  0.87684850848E+02  0.87684850848E+02  0.00000000000E+00 0.  1.
          2   -1    0    0  502    0 -0.00000000000E+00 -0.00000000000E+00 -0.76652061899E+03  0.76652061899E+03  0.00000000000E+00 0.  1.
         21    1    1    2  503  505 -0.63152850192E+02 -0.70803811496E+02 -0.32559451741E+03  0.33913603757E+03  0.00000000000E+00 0.  1.
         21    1    1    2  504  503  0.36956844390E+02  0.88854197433E+02  0.44536919030E+02  0.10603968081E+03  0.00000000000E+00 0.  1.
         21    1    1    2  505  501  0.13203678880E+01 -0.39628377973E+02 -0.77412991879E+02  0.86976565946E+02  0.00000000000E+00 0.  1.
          2    1    1    2  501    0  0.24875637914E+02  0.21577992036E+02 -0.32036517789E+03  0.32205318552E+03  0.00000000000E+00 0.  1.
<scales pt_clust_3="14000.00000" pt_clust_4="95.71028" pt_clust_5="36.13247" pt_clust_6="32.93034"></scales>
<clustering>
<clus scale="   32.930">  2  6  1 -1</clus>
<clus scale="   36.132">  2  5  1 -1</clus>
<clus scale="   95.710">  1  4  2 -1</clus>
<clus scale="   95.710">  1  3  2 -1</clus>
</clustering>
</event>
<event>
 6    0  0.4945982E+002  0.1259430E+03  0.7546771E-02  0.1233603E+00
         -1   -1    0    0    0  501 -0.00000000000E+00  0.00000000000E+00  0.37052035097E+03  0.37052035097E+03  0.00000000000E+00 0.  1.
         21   -1    0    0  503  502  0.00000000000E+00 -0.00000000000E+00 -0.40514615989E+03  0.40514615989E+03  0.00000000000E+00 0.  1.
         21    1    1    2  503  501 -0.75124519503E+02 -0.12467976388E+03 -0.19595191231E+03  0.24410220992E+03  0.00000000000E+00 0.  1.
         21    1    1    2  504  502  0.29363818383E+02 -0.90911638482E+01 -0.14767128544E+03  0.15083663890E+03  0.00000000000E+00 0.  1.
         21    1    1    2  505  504 -0.24780714183E+02  0.30701951909E+02 -0.77824285260E+01  0.40215169279E+02  0.00000000000E+00 0.  1.
         -1    1    1    2    0  505  0.70541415302E+02  0.10306897582E+03  0.31677981735E+03  0.34051249277E+03  0.00000000000E+00 0.  1.
<scales pt_clust_3="14000.00000" pt_clust_4="30.73895" pt_clust_5="37.09669" pt_clust_6="125.94296"></scales>
<clustering>
<clus scale="   30.739">  2  4  1 -1</clus>
<clus scale="   37.097">  2  5  1 -1</clus>
<clus scale="  125.943">  1  6  2 -1</clus>
<clus scale="   30.739">  2  3  1 -1</clus>
</clustering>
</event>
<event>
 6    0  0.4945982E+002  0.1140003E+03  0.7546771E-02  0.1253336E+00
         -4   -1    0    0    0  501 -0.00000000000E+00  0.00000000000E+00  0.71995867439E+03  0.71995867439E+03  0.00000000000E+00 0.  1.
         21   -1    0    0  504  502  0.00000000000E+00 -0.00000000000E+00 -0.32063112357E+03  0.32063112357E+03  0.00000000000E+00 0. -1.
         21    1    1    2  503  505  0.25133313636E+02 -0.40005677501E+02  0.75071748687E+01  0.47838220715E+02  0.00000000000E+00 0. -1.
         21    1    1    2  504  501 -0.95848191847E+02 -0.29350735990E+02  0.12136239308E+03  0.15740766194E+03  0.00000000000E+00 0. -1.
         21    1    1    2  505  502  0.52324960169E+02  0.10556678608E+03 -0.26935925317E+03  0.29400111403E+03  0.00000000000E+00 0. -1.
         -4    1    1    2    0  503  0.18389918042E+02 -0.36210372587E+02  0.53981723604E+03  0.54134280128E+03  0.00000000000E+00 0.  1.
<scales pt_clust_3="53.48790" pt_clust_4="114.00029" pt_clust_5="14000.00000" pt_clust_6="40.61256"></scales>
<clustering>
<clus scale="   40.613">  1  6  2 -1</clus>
<clus scale="   53.488">  1  3  2 -1</clus>
<clus scale="  114.000">  1  4  2 -1</clus>
<clus scale="  114.000">  2  3  1 -1</clus>
</clustering>
</event>
<event>
 6    0  0.4945982E+002  0.2236389E+03  0.7546771E-02  0.1131199E+00
         -1   -1    0    0    0  501 -0.00000000000E+00  0.00000000000E+00  0.15543882963E+04  0.15543882963E+04  0.00000000000E+00 0.  1.
         21   -1    0    0  505  502  0.00000000000E+00 -0.00000000000E+00 -0.28366162522E+03  0.28366162522E+03  0.00000000000E+00 0.  1.
         21    1    1    2  503  501  0.14802705512E+03  0.86572221912E+01 -0.42061642804E+02  0.15413026419E+03  0.00000000000E+00 0.  1.
         21    1    1    2  504  502 -0.21825920175E+03  0.15705070683E+02  0.23356896425E+02  0.22006651950E+03  0.00000000000E+00 0.  1.
         21    1    1    2  505  503  0.49398193598E+02  0.25197097444E+02 -0.77813815947E+02  0.95551374677E+02  0.00000000000E+00 0.  1.
         -1    1    1    2    0  504  0.20833953038E+02 -0.49559390318E+02  0.13672452334E+04  0.13683017632E+04  0.00000000000E+00 0.  1.
<scales pt_clust_3="53.02725" pt_clust_4="205.34465" pt_clust_5="53.02725" pt_clust_6="53.76046"></scales>
<clustering>
<clus scale="   53.760">  1  6  2 -1</clus>
<clus scale="   53.027">  3  5 -1 -1</clus>
<clus scale="  205.345">  1  4  2 -1</clus>
<clus scale="  223.639">  2  3  1 -1</clus>
</clustering>
</event>
<event>
 6    0  0.4945982E+002  0.1434084E+03  0.7546771E-02  0.1208815E+00
          2   -1    0    0  503    0 -0.00000000000E+00  0.00000000000E+00  0.23084655116E+03  0.23084655116E+03  0.00000000000E+00 0. -1.
         21   -1    0    0  504  502  0.00000000000E+00 -0.00000000000E+00 -0.16845201027E+03  0.16845201027E+03  0.00000000000E+00 0. -1.
         21    1    1    2  503  505  0.76734746176E+02  0.40140804870E+02 -0.38221607940E+02  0.94659372488E+02  0.00000000000E+00 0. -1.
         21    1    1    2  504  501 -0.11622478367E+03 -0.90471231261E+00  0.51677371767E+01  0.11634313195E+03  0.00000000000E+00 0. -1.
         21    1    1    2  505  502  0.64543782866E+02 -0.21041039630E+02 -0.18380335635E+02  0.70331088385E+02  0.00000000000E+00 0.  1.
          2    1    1    2  501    0 -0.25053745369E+02 -0.18195052927E+02  0.11382874729E+03  0.11796496860E+03  0.00000000000E+00 0. -1.
<scales pt_clust_3="54.68457" pt_clust_4="129.89350" pt_clust_5="54.68457" pt_clust_6="30.96369"></scales>
<clustering>
<clus scale="   30.964">  1  6  2 -1</clus>
<clus scale="   54.685">  3  5 -1 -1</clus>
<clus scale="  129.894">  1  4  2 -1</clus>
<clus scale="  143.408">  2  3  1 -1</clus>
</clustering>
</event>
<event>
 6    0  0.4945982E+002  0.1305961E+03  0.7546771E-02  0.1226574E+00
         21   -1    0    0  504  502  0.00000000000E+00  0.00000000000E+00  0.14543092366E+04  0.14543092366E+04  0.00000000000E+00 0.  1.
         -1   -1    0    0    0  501 -0.00000000000E+00 -0.00000000000E+00 -0.31881638690E+03  0.31881638690E+03  0.00000000000E+00 0.  1.
         21    1    1    2  503  505 -0.14805963308E+03  0.36380108336E+01  0.10629833418E+04  0.10732513569E+04  0.00000000000E+00 0.  1.
         21    1    1    2  504  503  0.82632901937E+01  0.33437481882E+02  0.30846260722E+03  0.31037965012E+03  0.00000000000E+00 0. -1.
         21    1    1    2  505  501  0.72643771317E+02 -0.32669486403E+02  0.51116055056E+02  0.94642822958E+02  0.00000000000E+00 0.  1.
         -1    1    1    2    0  502  0.67152571573E+02 -0.44060063129E+01 -0.28706915438E+03  0.29485179355E+03  0.00000000000E+00 0.  1.
<scales pt_clust_3="14000.00000" pt_clust_4="34.44339" pt_clust_5="130.59615" pt_clust_6="67.31764"></scales>
<clustering>
<clus scale="   34.443">  1  4  2 -1</clus>
<clus scale="   67.318">  2  6  1 -1</clus>
<clus scale="  130.596">  2  5  1 -1</clus>
<clus scale="   34.443">  1  3  2 -1</clus>
</clustering>
</event>
<event>
 6    0  0.4945982E+002  0.1306497E+03  0.7546771E-02  0.1226495E+00
         21   -1    0    0  501  502  0.00000000000E+00  0.00000000000E+00  0.45560728319E+03  0.45560728319E+03  0.00000000000E+00 0.  1.
         -2   -1    0    0    0  501 -0.00000000000E+00 -0.00000000000E+00 -0.18456954547E+03  0.18456954547E+03  0.00000000000E+00 0.  1.
         21    1    1    2  503  505 -0.31010432633E+02 -0.47158555138E+02  0.11827383396E+03  0.13105066217E+03  0.00000000000E+00 0. -1.
         21    1    1    2  504  502 -0.74394030336E+00  0.41015017387E+02  0.73134963699E+02  0.83854087639E+02  0.00000000000E+00 0. -1.
         21    1    1    2  505  504 -0.83790059502E+02 -0.34310273551E+02  0.22066301178E+03  0.23851652712E+03  0.00000000000E+00 0.  1.
         -2    1    1    2    0  503  0.11554443244E+03  0.40453811302E+02 -0.14103407172E+03  0.18675555173E+03  0.00000000000E+00 0.  1.
<scales pt_clust_3="34.28247" pt_clust_4="41.02176" pt_clust_5="34.28247" pt_clust_6="123.22319"></scales>
<clustering>
<clus scale="   34.282">  3  5 -1 -1</clus>
<clus scale="   41.022">  1  4  2 -1</clus>
<clus scale="  123.223">  2  6  1 -1</clus>
<clus scale="   41.022">  1  3  2 -1</clus>
</clustering>
</event>
<event>
 6    0  0.4945982E+002  0.1455505E+03  0.7546771E-02  0.1206050E+00
         21   -1    0    0  504  502  0.00000000000E+00  0.00000000000E+00  0.11740590164E+03  0.11740590164E+03  0.00000000000E+00 0.  1.
          2   -1    0    0  505    0 -0.00000000000E+00 -0.00000000000E+00 -0.60184522087E+03  0.60184522087E+03  0.00000000000E+00 0. -1.
         21    1    1    2  503  501  0.42161507659E+02  0.68940404383E+02 -0.19281475887E+00  0.80810947662E+02  0.00000000000E+00 0.  1.
         21    1    1    2  504  503  0.27025383777E+02  0.57470340288E+02  0.41403702248E+02  0.75812122652E+02  0.00000000000E+00 0.  1.
         21    1    1    2  505  502 -0.40386996278E+02 -0.11213381612E+03 -0.18247103969E+03  0.21794674238E+03  0.00000000000E+00 0. -1.
          2    1    1    2  501    0 -0.28799895159E+02 -0.14276928547E+02 -0.34317916704E+03  0.34468130982E+03  0.00000000000E+00 0. -1.
<scales pt_clust_3="40.84414" pt_clust_4="40.84414" pt_clust_5="138.27144" pt_clust_6="32.14443"></scales>
<clustering>
<clus scale="   32.144">  2  6  1 -1</clus>
<clus scale="   40.844">  3  4 -1 -1</clus>
<clus scale="  138.271">  2  5  1 -1</clus>
<clus scale="  145.550">  1  3  2 -1</clus>
</clustering>
</event>
<event>
 6    0  0.4945982E+002  0.1231833E+03  0.7546771E-02  0.1237936E+00
         21   -1    0    0  501  502  0.00000000000E+00  0.00000000000E+00  0.34487477742E+02  0.34487477742E+02  0.00000000000E+00 0.  1.
          2   -1    0    0  505    0 -0.00000000000E+00 -0.00000000000E+00 -0.34027471426E+04  0.34027471426E+04  0.00000000000E+00 0.  1.
         21    1    1    2  503  502 -0.83997242503E+01 -0.45261642374E+02 -0.12503655324E+02  0.47702337829E+02  0.00000000000E+00 0.  1.
         21    1    1    2  504  503 -0.42275021087E+02 -0.21306681684E+02 -0.37322267187E+02  0.60283527769E+02  0.00000000000E+00 0.  1.
         21    1    1    2  505  504 -0.39113487337E+02 -0.12039198658E+02 -0.92976094083E+02  0.10158425698E+03  0.00000000000E+00 0.  1.
          2    1    1    2  501    0  0.89788232675E+02  0.78607522717E+02 -0.32254576483E+04  0.32276644978E+04  0.00000000000E+00 0.  1.
<scales pt_clust_3="46.03446" pt_clust_4="35.85906" pt_clust_5="35.85906" pt_clust_6="116.98989"></scales>
<clustering>
<clus scale="   35.859">  4  5 -1 -1</clus>
<clus scale="   46.034">  1  3  2 -1</clus>
<clus scale="  116.990">  2  6  1 -1</clus>
<clus scale="   46.034">  1  3  2 -1</clus>
</clustering>
</event>
<event>
 6    0  0.4945982E+002  0.1014125E+03  0.7546771E-02  0.1277353E+00
          4   -1    0    0  505    0 -0.00000000000E+00  0.00000000000E+00  0.38396497066E+03  0.38396497066E+03  0.00000000000E+00 0.  1.
         21   -1    0    0  503  502  0.00000000000E+00 -0.00000000000E+00 -0.20626293831E+04  0.20626293831E+04  0.00000000000E+00 0. -1.
         21    1    1    2  503  504 -0.42747565808E+02 -0.92309686257E+02 -0.19236411596E+04  0.19263290850E+04  0.00000000000E+00 0. -1.
         21    1    1    2  504  501 -0.43912983760E+02  0.69949589749E+02 -0.81545015828E+02  0.11606414112E+03  0.00000000000E+00 0.  1.
         21    1    1    2  505  502  0.74145525966E+02  0.61286221826E+02  0.24288262849E+02  0.99214312066E+02  0.00000000000E+00 0.  1.
          4    1    1    2  501    0  0.12515023602E+02 -0.38926125319E+02  0.30223350018E+03  0.30498681559E+03  0.00000000000E+00 0.  1.
<scales pt_clust_3="14000.00000" pt_clust_4="74.11236" pt_clust_5="101.41250" pt_clust_6="40.88850"></scales>
<clustering>
<clus scale="   40.888">  1  6  2 -1</clus>
<clus scale="   74.112">  1  4  2 -1</clus>
<clus scale="  101.413">  1  5  2 -1</clus>
<clus scale="  101.413">  2  3  1 -1</clus>
</clustering>
</event>
<event>
 6    0  0.4945982E+002  0.2839988E+03  0.7546771E-02  0.1093525E+00
         21   -1    0    0  505  502  0.00000000000E+00  0.00000000000E+00  0.99880886796E+03  0.99880886796E+03  0.00000000000E+00 0. -1.
         -1   -1    0    0    0  501 -0.00000000000E+00 -0.00000000000E+00 -0.48881494316E+03  0.48881494316E+03  0.00000000000E+00 0.  1.
         21    1    1    2  503  504 -0.34499875390E+03  0.39416083890E+02  0.56574747985E+03  0.66381321079E+03  0.00000000000E+00 0. -1.
         21    1    1    2  504  502  0.37083710312E+02  0.33869022911E+01  0.29885577757E+03  0.30116681169E+03  0.00000000000E+00 0. -1.
         21    1    1    2  505  501  0.32669457929E+02  0.51268325648E+01  0.31755189008E+02  0.45847245527E+02  0.00000000000E+00 0.  1.
         -1    1    1    2    0  503  0.27524558566E+03 -0.47929818746E+02 -0.38636452163E+03  0.47679654312E+03  0.00000000000E+00 0.  1.
<scales pt_clust_3="283.99881" pt_clust_4="47.55565" pt_clust_5="33.06929" pt_clust_6="14000.00000"></scales>
<clustering>
<clus scale="   33.069">  1  5  2 -1</clus>
<clus scale="   47.556">  1  4  2 -1</clus>
<clus scale="  283.999">  1  3  2 -1</clus>
<clus scale="   33.069">  1  3  2 -1</clus>
</clustering>
</event>
<event>
 6    0  0.4945982E+002  0.1217822E+03  0.7546771E-02  0.1240186E+00
          1   -1    0    0  505    0 -0.00000000000E+00  0.00000000000E+00  0.22581828671E+04  0.22581828671E+04  0.00000000000E+00 0.  1.
         21   -1    0    0  501  502  0.00000000000E+00 -0.00000000000E+00 -0.11154046394E+03  0.11154046394E+03  0.00000000000E+00 0.  1.
         21    1    1    2  503  502  0.93995687430E+02 -0.75460012295E+02 -0.56450433203E+02  0.13310166836E+03  0.00000000000E+00 0.  1.
         21    1    1    2  504  503 -0.49851519880E+02  0.20185635510E+02  0.56526112807E+02  0.78024581667E+02  0.00000000000E+00 0.  1.
         21    1    1    2  505  504 -0.48280699651E+02  0.21401056013E+02  0.11287003504E+03  0.12461410822E+03  0.00000000000E+00 0.  1.
          1    1    1    2  501    0  0.41365321001E+01  0.33873320772E+02  0.20336966885E+04  0.20339829728E+04  0.00000000000E+00 0.  1.
<scales pt_clust_3="117.57083" pt_clust_4="31.46081" pt_clust_5="31.46081" pt_clust_6="34.12496"></scales>
<clustering>
<clus scale="   31.461">  4  5 -1 -1</clus>
<clus scale="   34.125">  1  6  2 -1</clus>
<clus scale="  117.571">  2  3  1 -1</clus>
<clus scale="  117.571">  2  3  1 -1</clus>
</clustering>
</event>
<event>
 6    0  0.4945982E+002  0.1554253E+03  0.7546771E-02  0.1193961E+00
          3   -1    0    0  505    0 -0.00000000000E+00  0.00000000000E+00  0.60461841296E+03  0.60461841296E+03  0.00000000000E+00 0.  1.
         21   -1    0    0  504  502  0.00000000000E+00 -0.00000000000E+00 -0.42787460418E+03  0.42787460418E+03  0.00000000000E+00 0. -1.
         21    1    1    2  503  501  0.10381851336E+03 -0.60970491609E+02 -0.74955265088E+02  0.14182375093E+03  0.00000000000E+00 0.  1.
         21    1    1    2  504  503  0.33717510325E+02  0.83091532661E+01 -0.27067029607E+03  0.27288884497E+03  0.00000000000E+00 0. -1.
         21    1    1    2  505  502 -0.13620259273E+02 -0.47378252391E+02 -0.19483933232E+02  0.53007866553E+02  0.00000000000E+00 0.  1.
          3    1    1    2  501    0 -0.12391576441E+03  0.10003959073E+03  0.54185330317E+03  0.56477255470E+03  0.00000000000E+00 0.  1.
<scales pt_clust_3="155.42526" pt_clust_4="34.72625" pt_clust_5="45.81628" pt_clust_6="14000.00000"></scales>
<clustering>
<clus scale="   34.726">  2  4  1 -1</clus>
<clus scale="   45.816">  2  5  1 -1</clus>
<clus scale="  155.425">  2  3  1 -1</clus>
<clus scale="   34.726">  2  3  1 -1</clus>
</clustering>
</event>
<event>
 6    0  0.4945982E+002  0.1020969E+03  0.7546771E-02  0.1275947E+00
         21   -1    0    0  505  502  0.00000000000E+00  0.00000000000E+00  0.17053501870E+02  0.17053501870E+02  0.00000000000E+00 0.  1.
          2   -1    0    0  504    0 -0.00000000000E+00 -0.00000000000E+00 -0.22908753360E+04  0.22908753360E+04  0.00000000000E+00 0.  1.
         21    1    1    2  503  501 -0.20917727985E+02  0.41003417458E+02 -0.38507843296E+03  0.38781984364E+03  0.00000000000E+00 0.  1.
         21    1    1    2  504  502  0.62879094130E+02 -0.68880450244E+02 -0.17414382347E+03  0.19754586343E+03  0.00000000000E+00 0.  1.
         21    1    1    2  505  503  0.80234569486E+01  0.69320451045E+02 -0.37800677230E+03  0.38439409556E+03  0.00000000000E+00 0.  1.
          2    1    1    2  501    0 -0.49984823093E+02 -0.41443418258E+02 -0.13365928054E+04  0.13381690353E+04  0.00000000000E+00 0.  1.
<scales pt_clust_3="33.26658" pt_clust_4="93.52034" pt_clust_5="33.26658" pt_clust_6="64.93104"></scales>
<clustering>
<clus scale="   33.267">  3  5 -1 -1</clus>
<clus scale="   64.931">  2  6  1 -1</clus>
<clus scale="   93.520">  1  4  2 -1</clus>
<clus scale="   93.520">  1  3  2 -1</clus>
</clustering>
</event>
<event>
 6    0  0.4945982E+002  0.2729258E+03  0.7546771E-02  0.1099617E+00
          1   -1    0    0  503    0 -0.00000000000E+00  0.00000000000E+00  0.25850841190E+04  0.25850841190E+04  0.00000000000E+00 0.  1.
         21   -1    0    0  505  502  0.00000000000E+00 -0.00000000000E+00 -0.69646335007E+02  0.69646335007E+02  0.00000000000E+00 0. -1.
         21    1    1    2  503  504  0.29218216630E+03 -0.43635551766E+02  0.59026595579E+03  0.66006694983E+03  0.00000000000E+00 0. -1.
         21    1    1    2  504  502  0.46318949620E+02  0.37340947954E+01  0.19557068078E+03  0.20101562063E+03  0.00000000000E+00 0. -1.
         21    1    1    2  505  501 -0.11602159964E+03 -0.51739263015E+02  0.15333133342E+03  0.19911921236E+03  0.00000000000E+00 0.  1.
          1    1    1    2  501    0 -0.22247951628E+03  0.91640719986E+02  0.15762698140E+04  0.15945286712E+04  0.00000000000E+00 0.  1.
<scales pt_clust_3="34.91237" pt_clust_4="34.91237" pt_clust_5="127.03528" pt_clust_6="258.34021"></scales>
<clustering>
<clus scale="   34.912">  3  4 -1 -1</clus>
<clus scale="  127.035">  2  5  1 -1</clus>
<clus scale="  258.340">  1  6  2 -1</clus>
<clus scale="  127.035">  2  3  1 -1</clus>
</clustering>
</event>
<event>
 6    0  0.4945982E+002  0.1417456E+03  0.7546771E-02  0.1210999E+00
          2   -1    0    0  503    0 -0.00000000000E+00  0.00000000000E+00  0.20720475374E+04  0.20720475374E+04  0.00000000000E+00 0. -1.
         21   -1    0    0  504  502  0.00000000000E+00 -0.00000000000E+00 -0.12741052684E+02  0.12741052684E+02  0.00000000000E+00 0.  1.
         21    1    1    2  503  502  0.32140211672E+02 -0.39565714033E+02  0.34810547523E+03  0.35181793703E+03  0.00000000000E+00 0. -1.
         21    1    1    2  504  505 -0.28055386113E+02  0.90590182615E+02  0.44003566721E+03  0.45013894998E+03  0.00000000000E+00 0.  1.
         21    1    1    2  505  501  0.35099403797E+02  0.49667725674E+02  0.33757868205E+03  0.34301343661E+03  0.00000000000E+00 0. -1.
          2    1    1    2  501    0 -0.39184229356E+02 -0.10069219426E+03  0.93358666028E+03  0.93981826651E+03  0.00000000000E+00 0. -1.
<scales pt_clust_3="50.97489" pt_clust_4="57.74472" pt_clust_5="57.74472" pt_clust_6="124.12528"></scales>
<clustering>
<clus scale="   50.975">  1  3  2 -1</clus>
<clus scale="   57.745">  4  5 -1 -1</clus>
<clus scale="  124.125">  1  6  2 -1</clus>
<clus scale="  141.746">  2  3  1 -1</clus>
</clustering>
</event>
<event>
 6    0  0.4945982E+002  0.8869085E+02  0.7546771E-02  0.1306053E+00
          2   -1    0    0  505    0 -0.00000000000E+00  0.00000000000E+00  0.76838609444E+03  0.76838609444E+03  0.00000000000E+00 0. -1.
         21   -1    0    0  503  502  0.00000000000E+00 -0.00000000000E+00 -0.20153717808E+04  0.20153717808E+04  0.00000000000E+00 0.  1.
         21    1    1    2  503  501  0.35965092637E+02 -0.74175516839E+00 -0.86794332200E+02  0.93953681094E+02  0.00000000000E+00 0. -1.
         21    1    1    2  504  502 -0.29994718360E+02  0.53773893434E+02 -0.13475659276E+04  0.13489719211E+04  0.00000000000E+00 0.  1.
         21    1    1    2  505  504 -0.17945694335E+02 -0.14066903692E+03 -0.56538292437E+03  0.58289594017E+03  0.00000000000E+00 0.  1.
          2    1    1    2  501    0  0.11975320059E+02  0.87636898657E+02  0.75275749777E+03  0.75793633291E+03  0.00000000000E+00 0. -1.
<scales pt_clust_3="35.97274" pt_clust_4="53.47068" pt_clust_5="14000.00000" pt_clust_6="88.69085"></scales>
<clustering>
<clus scale="   35.973">  2  3  1 -1</clus>
<clus scale="   53.471">  2  4  1 -1</clus>
<clus scale="   88.691">  1  6  2 -1</clus>
<clus scale="   35.973">  2  3  1 -1</clus>
</clustering>
</event>
<event>
 6    0  0.4945982E+002  0.1196084E+03  0.7546771E-02  0.1243745E+00
         21   -1    0    0  504  502  0.00000000000E+00  0.00000000000E+00  0.38295465337E+03  0.38295465337E+03  0.00000000000E+00 0.  1.
         -2   -1    0    0    0  501 -0.00000000000E+00 -0.00000000000E+00 -0.19714695740E+03  0.19714695740E+03  0.00000000000E+00 0. -1.
         21    1    1    2  503  505  0.18475298367E+02  0.26370001351E+02  0.38428757431E+02  0.50134648884E+02  0.00000000000E+00 0.  1.
         21    1    1    2  504  501 -0.60388685591E+02  0.35970022849E+02  0.16927879336E+02  0.72299301449E+02  0.00000000000E+00 0.  1.
         21    1    1    2  505  502  0.54547324328E+02  0.55804486155E+02  0.26611920541E+03  0.27732468833E+03  0.00000000000E+00 0.  1.
         -2    1    1    2    0  503 -0.12633937104E+02 -0.11814451036E+03 -0.13566814620E+03  0.18034297211E+03  0.00000000000E+00 0. -1.
<scales pt_clust_3="31.43691" pt_clust_4="70.28966" pt_clust_5="31.43691" pt_clust_6="109.13732"></scales>
<clustering>
<clus scale="   31.437">  3  5 -1 -1</clus>
<clus scale="   70.290">  2  4  1 -1</clus>
<clus scale="  109.137">  2  6  1 -1</clus>
<clus scale="  119.608">  1  3  2 -1</clus>
</clustering>
</event>
<event>
 6    0  0.4945982E+002  0.2424399E+03  0.7546771E-02  0.1118178E+00
         21   -1    0    0  505  502  0.00000000000E+00  0.00000000000E+00  0.51020265188E+02  0.51020265188E+02  0.00000000000E+00 0. -1.
          1   -1    0    0  504    0 -0.00000000000E+00 -0.00000000000E+00 -0.53445778236E+04  0.53445778236E+04  0.00000000000E+00 0.  1.
         21    1    1    2  503  501  0.77844763933E+02 -0.71744191997E+02 -0.40578168302E+03  0.41936357810E+03  0.00000000000E+00 0. -1.
         21    1    1    2  504  502  0.41113964458E+02 -0.14606813268E+02  0.22978490312E+02  0.49312555037E+02  0.00000000000E+00 0. -1.
         21    1    1    2  505  503  0.10237856907E+03 -0.22596448296E+00 -0.53437138498E+03  0.54409024945E+03  0.00000000000E+00 0.  1.
          1    1    1    2  501    0 -0.22133729746E+03  0.86576969747E+02 -0.43763829807E+04  0.43828317062E+04  0.00000000000E+00 0.  1.
<scales pt_clust_3="78.97640" pt_clust_4="43.63161" pt_clust_5="78.97640" pt_clust_6="228.21432"></scales>
<clustering>
<clus scale="   43.632">  1  4  2 -1</clus>
<clus scale="   78.976">  3  5 -1 -1</clus>
<clus scale="  228.214">  2  6  1 -1</clus>
<clus scale="   43.632">  1  3  2 -1</clus>
</clustering>
</event>
<event>
 6    0  0.4945982E+002  0.7094906E+02  0.7546771E-02  0.1356895E+00
          2   -1    0    0  503    0 -0.00000000000E+00  0.00000000000E+00  0.25385525615E+04  0.25385525615E+04  0.00000000000E+00 0. -1.
         21   -1    0    0  504  502  0.00000000000E+00 -0.00000000000E+00 -0.37793569696E+03  0.37793569696E+03  0.00000000000E+00 0.  1.
         21    1    1    2  503  505  0.34075976766E+02 -0.46844267517E+02 -0.11425065406E+02  0.59043117391E+02  0.00000000000E+00 0. -1.
         21    1    1    2  504  501  0.87746013314E+02  0.36368371448E+02  0.12078690414E+03  0.15366033160E+03  0.00000000000E+00 0.  1.
         21    1    1    2  505  502 -0.69981449580E+02  0.26446622302E+02 -0.32166228413E+03  0.33024756191E+03  0.00000000000E+00 0.  1.
          2    1    1    2  501    0 -0.51840540500E+02 -0.15970726233E+02  0.23729173100E+04  0.23735372476E+04  0.00000000000E+00 0. -1.
<scales pt_clust_3="14000.00000" pt_clust_4="50.33696" pt_clust_5="70.94906" pt_clust_6="54.24487"></scales>
<clustering>
<clus scale="   54.245">  1  6  2 -1</clus>
<clus scale="   50.337">  1  4  2 -1</clus>
<clus scale="   70.949">  2  5  1 -1</clus>
<clus scale="   70.949">  2  3  1 -1</clus>
</clustering>
</event>
<event>
 6    0  0.4945982E+002  0.1232812E+03  0.7546771E-02  0.1237780E+00
          2   -1    0    0  504    0 -0.00000000000E+00  0.00000000000E+00  0.18330819413E+03  0.18330819413E+03  0.00000000000E+00 0. -1.
         21   -1    0    0  503  502  0.00000000000E+00 -0.00000000000E+00 -0.18546441097E+03  0.18546441097E+03  0.00000000000E+00 0. -1.
         21    1    1    2  503  505  0.29671745183E+02  0.69577334588E+02 -0.90941535496E+02  0.11828685823E+03  0.00000000000E+00 0. -1.
         21    1    1    2  504  502 -0.50427817040E+02 -0.79056895943E+02  0.34415937455E+02  0.99887007556E+02  0.00000000000E+00 0. -1.
         21    1    1    2  505  501  0.42678662636E+02  0.30816169521E+02 -0.30184319752E+02  0.60681114915E+02  0.00000000000E+00 0. -1.
          2    1    1    2  501    0 -0.21922590780E+02 -0.21336608166E+02  0.84553700954E+02  0.89917624409E+02  0.00000000000E+00 0. -1.
<scales pt_clust_3="36.95137" pt_clust_4="114.68932" pt_clust_5="36.95137" pt_clust_6="30.59168"></scales>
<clustering>
<clus scale="   30.592">  1  6  2 -1</clus>
<clus scale="   36.951">  3  5 -1 -1</clus>
<clus scale="  114.689">  1  4  2 -1</clus>
<clus scale="  123.281">  2  3  1 -1</clus>
</clustering>
</event>
<event>
 6    0  0.4945982E+002  0.1032565E+03  0.7546771E-02  0.1273593E+00
         21   -1    0    0  504  502  0.00000000000E+00  0.00000000000E+00  0.76323284367E+02  0.76323284367E+02  0.00000000000E+00 0.  1.
         -3   -1    0    0    0  501 -0.00000000000E+00 -0.00000000000E+00 -0.52208627647E+03  0.52208627647E+03  0.00000000000E+00 0. -1.
         21    1    1    2  503  502 -0.24410714124E+01  0.31888985438E+02 -0.28605911664E+02  0.42908791687E+02  0.00000000000E+00 0. -1.
         21    1    1    2  504  501  0.12008587840E+03 -0.41011038294E+02 -0.80623659663E+02  0.15034193677E+03  0.00000000000E+00 0. -1.
         21    1    1    2  505  503 -0.78546001359E+02  0.31804071777E+02 -0.22211271406E+02  0.87603161407E+02  0.00000000000E+00 0.  1.
         -3    1    1    2    0  505 -0.39098805630E+02 -0.22682018922E+02 -0.31432214937E+03  0.31755567098E+03  0.00000000000E+00 0. -1.
<scales pt_clust_3="31.98228" pt_clust_4="103.25647" pt_clust_5="14000.00000" pt_clust_6="44.88206"></scales>
<clustering>
<clus scale="   31.982">  1  3  2 -1</clus>
<clus scale="   44.882">  2  6  1 -1</clus>
<clus scale="  103.256">  2  4  1 -1</clus>
<clus scale="   31.982">  1  3  2 -1</clus>
</clustering>
</event>
<event>
 6    0  0.4945982E+002  0.7667373E+02  0.7546771E-02  0.1338765E+00
          2   -1    0    0  505    0 -0.00000000000E+00  0.00000000000E+00  0.25935988832E+03  0.25935988832E+03  0.00000000000E+00 0. -1.
         21   -1    0    0  501  502  0.00000000000E+00 -0.00000000000E+00 -0.73806000629E+02  0.73806000629E+02  0.00000000000E+00 0.  1.
         21    1    1    2  503  502 -0.41347597318E+02  0.92186972563E+01  0.13849252877E+02  0.44569159610E+02  0.00000000000E+00 0. -1.
         21    1    1    2  504  503  0.71239756491E+02 -0.12165195568E+01  0.31736747064E+02  0.77998743188E+02  0.00000000000E+00 0.  1.
         21    1    1    2  505  504 -0.18782914895E+02  0.72201520776E+02  0.51402051806E+02  0.90598170093E+02  0.00000000000E+00 0.  1.
          2    1    1    2  501    0 -0.11109244278E+02 -0.80203698475E+02  0.88565835943E+02  0.11999981606E+03  0.00000000000E+00 0. -1.
<scales pt_clust_3="42.36282" pt_clust_4="54.92962" pt_clust_5="76.67373" pt_clust_6="14000.00000"></scales>
<clustering>
<clus scale="   42.363">  2  3  1 -1</clus>
<clus scale="   54.930">  2  4  1 -1</clus>
<clus scale="   76.674">  2  5  1 -1</clus>
<clus scale="   42.363">  2  3  1 -1</clus>
</clustering>
</event>
<event>
 6    0  0.4945982E+002  0.1264433E+03  0.7546771E-02  0.1232831E+00
         21   -1    0    0  504  502  0.00000000000E+00  0.00000000000E+00  0.14379363666E+03  0.14379363666E+03  0.00000000000E+00 0. -1.
          3   -1    0    0  503    0 -0.00000000000E+00 -0.00000000000E+00 -0.59263342153E+03  0.59263342153E+03  0.00000000000E+00 0. -1.
         21    1    1    2  503  505 -0.26444157555E+02 -0.44023315464E+02 -0.25598925337E+01  0.51418856687E+02  0.00000000000E+00 0.  1.
         21    1    1    2  504  501 -0.10865712098E+02  0.47186641226E+02 -0.14732418695E+02  0.50613110655E+02  0.00000000000E+00 0. -1.
         21    1    1    2  505  502 -0.45774002950E+02 -0.79206618156E+02  0.73244341472E+02  0.11719079001E+03  0.00000000000E+00 0. -1.
          3    1    1    2  501    0  0.83083872603E+02  0.76043292394E+02 -0.50479181511E+03  0.51720430084E+03  0.00000000000E+00 0. -1.
<scales pt_clust_3="41.25507" pt_clust_4="48.42151" pt_clust_5="41.25507" pt_clust_6="113.82474"></scales>
<clustering>
<clus scale="   41.255">  3  5 -1 -1</clus>
<clus scale="   48.422">  1  4  2 -1</clus>
<clus scale="  113.825">  2  6  1 -1</clus>
<clus scale="   48.422">  1  3  2 -1</clus>
</clustering>
</event>
<event>
 6    0  0.4945982E+002  0.8481309E+02  0.7546771E-02  0.1315922E+00
         -1   -1    0    0    0  501 -0.00000000000E+00  0.00000000000E+00  0.11529282965E+03  0.11529282965E+03  0.00000000000E+00 0. -1.
         21   -1    0    0  503  502  0.00000000000E+00 -0.00000000000E+00 -0.28299288927E+03  0.28299288927E+03  0.00000000000E+00 0. -1.
         21    1    1    2  503  505 -0.66079257863E+02 -0.51144654704E+02 -0.15620288438E+03  0.17714848323E+03  0.00000000000E+00 0. -1.
         21    1    1    2  504  502  0.36771120415E+02 -0.27028772699E+02 -0.46760755594E+02  0.65339407052E+02  0.00000000000E+00 0. -1.
         21    1    1    2  505  501 -0.47398731070E+02  0.87033892081E+01  0.89432301190E+01  0.49013978166E+02  0.00000000000E+00 0. -1.
         -1    1    1    2    0  504  0.76706868518E+02  0.69470038195E+02  0.26320350227E+02  0.10678385047E+03  0.00000000000E+00 0. -1.
<scales pt_clust_3="84.81309" pt_clust_4="45.63628" pt_clust_5="44.60207" pt_clust_6="14000.00000"></scales>
<clustering>
<clus scale="   45.636">  2  4  1 -1</clus>
<clus scale="   44.602">  1  5  2 -1</clus>
<clus scale="   84.813">  2  3  1 -1</clus>
<clus scale="   45.636">  2  3  1 -1</clus>
</clustering>
</event>
<event>
 6    0  0.4945982E+002  0.1633153E+03  0.7546771E-02  0.1185004E+00
          1   -1    0    0  505    0 -0.00000000000E+00  0.00000000000E+00  0.89733195533E+03  0.89733195533E+03  0.00000000000E+00 0.  1.
         21   -1    0    0  503  502  0.00000000000E+00 -0.00000000000E+00 -0.32563172917E+03  0.32563172917E+03  0.00000000000E+00 0. -1.
         21    1    1    2  503  504  0.32229830707E+02  0.12593367392E+02 -0.17604957044E+03  0.17941796494E+03  0.00000000000E+00 0. -1.
         21    1    1    2  504  501  0.18500934973E+02  0.12348214717E+03  0.26052830662E+02  0.12754950118E+03  0.00000000000E+00 0.  1.
         21    1    1    2  505  502  0.87586873117E+02 -0.26369751298E+02 -0.63400432641E+02  0.11129437985E+03  0.00000000000E+00 0. -1.
          1    1    1    2  501    0 -0.13831763880E+03 -0.10970576327E+03  0.78509739858E+03  0.80470183854E+03  0.00000000000E+00 0.  1.
<scales pt_clust_3="34.60282" pt_clust_4="14000.00000" pt_clust_5="108.28936" pt_clust_6="163.31531"></scales>
<clustering>
<clus scale="   34.603">  2  3  1 -1</clus>
<clus scale="  108.289">  2  5  1 -1</clus>
<clus scale="  163.315">  1  6  2 -1</clus>
<clus scale="   34.603">  2  3  1 -1</clus>
</clustering>
</event>
<event>
 6    0  0.4945982E+002  0.7468526E+02  0.7546771E-02  0.1344848E+00
         21   -1    0    0  504  502  0.00000000000E+00  0.00000000000E+00  0.30000827428E+02  0.30000827428E+02  0.00000000000E+00 0. -1.
          1   -1    0    0  505    0 -0.00000000000E+00 -0.00000000000E+00 -0.10664416693E+04  0.10664416693E+04  0.00000000000E+00 0. -1.
         21    1    1    2  503  501  0.15083438537E+02  0.58700394237E+02 -0.16320031948E+03  0.17409075415E+03  0.00000000000E+00 0. -1.
         21    1    1    2  504  503  0.42842710701E+02 -0.26548568282E+02 -0.66523316015E+02  0.83460624918E+02  0.00000000000E+00 0. -1.
         21    1    1    2  505  502 -0.98129355152E+02 -0.85218999905E+02 -0.28860990158E+03  0.31652381202E+03  0.00000000000E+00 0. -1.
          1    1    1    2  501    0  0.40203205914E+02  0.53067173949E+02 -0.51810730482E+03  0.52236730566E+03  0.00000000000E+00 0. -1.
<scales pt_clust_3="58.08907" pt_clust_4="50.40163" pt_clust_5="14000.00000" pt_clust_6="74.68526"></scales>
<clustering>
<clus scale="   50.402">  1  4  2 -1</clus>
<clus scale="   58.089">  1  3  2 -1</clus>
<clus scale="   74.685">  2  6  1 -1</clus>
<clus scale="   50.402">  1  3  2 -1</clus>
</clustering>
</event>
<event>
 6    0  0.4945982E+002  0.1398142E+03  0.7546771E-02  0.1213579E+00
          2   -1    0    0  503    0 -0.00000000000E+00  0.00000000000E+00  0.27963649613E+04  0.27963649613E+04  0.00000000000E+00 0.  1.
         21   -1    0    0  505  502  0.00000000000E+00 -0.00000000000E+00 -0.28214178547E+03  0.28214178547E+03  0.00000000000E+00 0.  1.
         21    1    1    2  503  502 -0.48189358583E+02 -0.16754695639E+03 -0.18379404991E+03  0.25332676459E+03  0.00000000000E+00 0.  1.
         21    1    1    2  504  501 -0.16608738363E+02  0.10442716607E+03  0.21772763854E+03  0.24204587951E+03  0.00000000000E+00 0.  1.
         21    1    1    2  505  504  0.97790182694E+01  0.29580339021E+02 -0.46254589825E+02  0.55768384724E+02  0.00000000000E+00 0.  1.
          2    1    1    2  501    0  0.55019078677E+02  0.33539451299E+02  0.25265441770E+04  0.25273657179E+04  0.00000000000E+00 0.  1.
<scales pt_clust_3="139.81419" pt_clust_4="14000.00000" pt_clust_5="31.15487" pt_clust_6="64.47818"></scales>
<clustering>
<clus scale="   31.155">  2  5  1 -1</clus>
<clus scale="   64.478">  1  6  2 -1</clus>
<clus scale="  139.814">  2  3  1 -1</clus>
<clus scale="   31.155">  2  3  1 -1</clus>
</clustering>
</event>
<event>
 6    0  0.4945982E+002  0.8839147E+02  0.7546771E-02  0.1306794E+00
         21   -1    0    0  504  502  0.00000000000E+00  0.00000000000E+00  0.45755285596E+02  0.45755285596E+02  0.00000000000E+00 0.  1.
          1   -1    0    0  503    0 -0.00000000000E+00 -0.00000000000E+00 -0.10150592511E+04  0.10150592511E+04  0.00000000000E+00 0.  1.
         21    1    1    2  503  502 -0.69099745249E+01 -0.44889331170E+02 -0.62896631457E+02  0.77580835581E+02  0.00000000000E+00 0.  1.
         21    1    1    2  504  505 -0.95255390767E+02  0.55034375457E+02 -0.70940286062E+02  0.13090032902E+03  0.00000000000E+00 0.  1.
         21    1    1    2  505  501  0.63230066381E+02 -0.91561679893E+01 -0.12122832101E+03  0.13703350876E+03  0.00000000000E+00 0.  1.
          1    1    1    2  501    0  0.38935298911E+02 -0.98887629754E+00 -0.71423872695E+03  0.71529986332E+03  0.00000000000E+00 0.  1.
<scales pt_clust_3="45.17409" pt_clust_4="88.39147" pt_clust_5="14000.00000" pt_clust_6="38.94785"></scales>
<clustering>
<clus scale="   38.948">  2  6  1 -1</clus>
<clus scale="   45.174">  2  3  1 -1</clus>
<clus scale="   88.391">  1  4  2 -1</clus>
<clus scale="   88.391">  1  3  2 -1</clus>
</clustering>
</event>
<event>
 6    0  0.4945982E+002  0.9313003E+02  0.7546771E-02  0.1295444E+00
         21   -1    0    0  504  502  0.00000000000E+00  0.00000000000E+00  0.92766108006E+02  0.92766108006E+02  0.00000000000E+00 0. -1.
          2   -1    0    0  503    0 -0.00000000000E+00 -0.00000000000E+00 -0.11031242873E+04  0.11031242873E+04  0.00000000000E+00 0. -1.
         21    1    1    2  503  502  0.31558619204E+02  0.93813255000E+01  0.12977953663E+02  0.35389023658E+02  0.00000000000E+00 0. -1.
         21    1    1    2  504  505 -0.92777521300E+02  0.66596936147E+02  0.37780375858E+01  0.11426764166E+03  0.00000000000E+00 0. -1.
         21    1    1    2  505  501  0.21412867579E+02 -0.74840239874E+02 -0.15729015468E+03  0.17549861869E+03  0.00000000000E+00 0. -1.
          2    1    1    2  501    0  0.39806034517E+02 -0.11380217730E+01 -0.86982401587E+03  0.87073511130E+03  0.00000000000E+00 0. -1.
<scales pt_clust_3="32.92348" pt_clust_4="14000.00000" pt_clust_5="93.13003" pt_clust_6="40.03011"></scales>
<clustering>
<clus scale="   32.923">  1  3  2 -1</clus>
<clus scale="   40.030">  2  6  1 -1</clus>
<clus scale="   93.130">  2  5  1 -1</clus>
<clus scale="   32.923">  1  3  2 -1</clus>
</clustering>
</event>
<event>
 6    0  0.4945982E+002  0.8396372E+02  0.7546771E-02  0.1318165E+00
         -1   -1    0    0    0  501 -0.00000000000E+00  0.00000000000E+00  0.10883521277E+04  0.10883521277E+04  0.00000000000E+00 0.  1.
         21   -1    0    0  505  502  0.00000000000E+00 -0.00000000000E+00 -0.57637266823E+02  0.57637266823E+02  0.00000000000E+00 0.  1.
         21    1    1    2  503  502 -0.43121253945E+02  0.25923333282E+02  0.19038782003E+02  0.53795324800E+02  0.00000000000E+00 0.  1.
         21    1    1    2  504  503  0.78991324880E+02 -0.11758442848E+03  0.12357201521E+03  0.18797811088E+03  0.00000000000E+00 0.  1.
         21    1    1    2  505  501 -0.15988858656E+02  0.41712017857E+02  0.62281800718E+02  0.76645670037E+02  0.00000000000E+00 0.  1.
         -1    1    1    2    0  504 -0.19881212279E+02  0.49949077343E+02  0.82582226290E+03  0.82757028876E+03  0.00000000000E+00 0.  1.
<scales pt_clust_3="14000.00000" pt_clust_4="83.96372" pt_clust_5="44.67142" pt_clust_6="54.53409"></scales>
<clustering>
<clus scale="   44.671">  2  5  1 -1</clus>
<clus scale="   54.534">  1  6  2 -1</clus>
<clus scale="   83.964">  1  4  2 -1</clus>
<clus scale="   44.671">  2  3  1 -1</clus>
</clustering>
</event>
<event>
 6    0  0.4945982E+002  0.1590195E+03  0.7546771E-02  0.1189808E+00
         21   -1    0    0  504  502  0.00000000000E+00  0.00000000000E+00  0.91272007425E+03  0.91272007425E+03  0.00000000000E+00 0. -1.
          1   -1    0    0  505    0 -0.00000000000E+00 -0.00000000000E+00 -0.30574210908E+03  0.30574210908E+03  0.00000000000E+00 0. -1.
         21    1    1    2  503  502 -0.15732480260E+03 -0.26457730522E+02  0.80668273536E+03  0.82230659765E+03  0.00000000000E+00 0. -1.
         21    1    1    2  504  501  0.16063905798E+02 -0.43716353402E+02 -0.35156475238E+02  0.58353632067E+02  0.00000000000E+00 0.  1.
         21    1    1    2  505  503  0.13615794837E+03  0.10455968566E+03 -0.21105637682E+01  0.17168625235E+03  0.00000000000E+00 0.  1.
          1    1    1    2  501    0  0.51029484301E+01 -0.34385601732E+02 -0.16243773119E+03  0.16611570126E+03  0.00000000000E+00 0. -1.
<scales pt_clust_3="14000.00000" pt_clust_4="57.87048" pt_clust_5="159.01947" pt_clust_6="34.76219"></scales>
<clustering>
<clus scale="   34.762">  2  6  1 -1</clus>
<clus scale="   57.870">  2  4  1 -1</clus>
<clus scale="  159.019">  2  5  1 -1</clus>
<clus scale="  159.019">  1  3  2 -1</clus>
</clustering>
</event>
<event>
 6    0  0.4945982E+002  0.2023651E+03  0.7546771E-02  0.1147759E+00
         21   -1    0    0  504  502  0.00000000000E+00  0.00000000000E+00  0.33359053103E+03  0.33359053103E+03  0.00000000000E+00 0.  1.
          1   -1    0    0  505    0 -0.00000000000E+00 -0.00000000000E+00 -0.53858744481E+03  0.53858744481E+03  0.00000000000E+00 0.  1.
         21    1    1    2  503  501 -0.20615018180E+03  0.50587690580E+02 -0.58339775168E+02  0.22013755077E+03  0.00000000000E+00 0. -1.
         21    1    1    2  504  503  0.19831861811E+03 -0.23930961274E+02  0.19827721666E+03  0.28145482736E+03  0.00000000000E+00 0.  1.
         21    1    1    2  505  502 -0.44862907968E+02 -0.29720741813E+02 -0.59147458047E+02  0.79965147400E+02  0.00000000000E+00 0. -1.
          1    1    1    2  501    0  0.52694471660E+02  0.30640125061E+01 -0.28578689722E+03  0.29062045031E+03  0.00000000000E+00 0.  1.
<scales pt_clust_3="14000.00000" pt_clust_4="202.36514" pt_clust_5="41.79676" pt_clust_6="52.78348"></scales>
<clustering>
<clus scale="   52.783">  2  6  1 -1</clus>
<clus scale="   41.797">  2  5  1 -1</clus>
<clus scale="  202.365">  1  4  2 -1</clus>
<clus scale="  202.365">  1  3  2 -1</clus>
</clustering>
</event>
<event>
 6    0  0.4945982E+002  0.1027618E+03  0.7546771E-02  0.1274593E+00
         -1   -1    0    0    0  501 -0.00000000000E+00  0.00000000000E+00  0.12939077285E+04  0.12939077285E+04  0.00000000000E+00 0.  1.
         21   -1    0    0  505  502  0.00000000000E+00 -0.00000000000E+00 -0.66840491966E+03  0.66840491966E+03  0.00000000000E+00 0.  1.
         21    1    1    2  503  502 -0.31153399614E+02  0.16005159678E+02 -0.35776756221E+03  0.35947785469E+03  0.00000000000E+00 0.  1.
         21    1    1    2  504  503 -0.11371680306E+03  0.32126484544E+02 -0.26445843542E+03  0.28965822339E+03  0.00000000000E+00 0.  1.
         21    1    1    2  505  501  0.43630113818E+02 -0.31173378650E+02 -0.71582053492E+01  0.54098117084E+02  0.00000000000E+00 0.  1.
         -1    1    1    2    0  504  0.10124008886E+03 -0.16958265572E+02  0.12548870118E+04  0.12590784530E+04  0.00000000000E+00 0.  1.
<scales pt_clust_3="35.02427" pt_clust_4="102.76180" pt_clust_5="50.19885" pt_clust_6="14000.00000"></scales>
<clustering>
<clus scale="   35.024">  2  3  1 -1</clus>
<clus scale="   50.199">  2  5  1 -1</clus>
<clus scale="  102.762">  2  4  1 -1</clus>
<clus scale="   35.024">  2  3  1 -1</clus>
</clustering>
</event>
<event>
 6    0  0.4945982E+002  0.1317393E+03  0.7546771E-02  0.1224898E+00
          2   -1    0    0  503    0 -0.00000000000E+00  0.00000000000E+00  0.77812711076E+03  0.77812711076E+03  0.00000000000E+00 0.  1.
         21   -1    0    0  504  502  0.00000000000E+00 -0.00000000000E+00 -0.27420389703E+03  0.27420389703E+03  0.00000000000E+00 0. -1.
         21    1    1    2  503  505 -0.27450555407E+02 -0.19934779698E+02  0.32233606482E+02  0.46796728738E+02  0.00000000000E+00 0. -1.
         21    1    1    2  504  501  0.25592669046E+02  0.36995271119E+02 -0.83499330088E+01  0.45753209454E+02  0.00000000000E+00 0. -1.
         21    1    1    2  505  502  0.80428161600E+02  0.47109471200E+02 -0.22705719122E+03  0.24544441232E+03  0.00000000000E+00 0. -1.
          2    1    1    2  501    0 -0.78570275240E+02 -0.64169962622E+02  0.70709673148E+03  0.71433665727E+03  0.00000000000E+00 0.  1.
<scales pt_clust_3="33.92534" pt_clust_4="44.17522" pt_clust_5="131.73926" pt_clust_6="14000.00000"></scales>
<clustering>
<clus scale="   33.925">  1  3  2 -1</clus>
<clus scale="   44.175">  2  4  1 -1</clus>
<clus scale="  131.739">  2  5  1 -1</clus>
<clus scale="   44.175">  2  3  1 -1</clus>
</clustering>
</event>
<event>
 6    0  0.4945982E+002  0.1335418E+03  0.7546771E-02  0.1222293E+00
          1   -1    0    0  503    0 -0.00000000000E+00  0.00000000000E+00  0.20098700222E+04  0.20098700222E+04  0.00000000000E+00 0.  1.
         21   -1    0    0  504  502  0.00000000000E+00 -0.00000000000E+00 -0.15389315005E+03  0.15389315005E+03  0.00000000000E+00 0.  1.
         21    1    1    2  503  502  0.92223371817E+02 -0.99439827002E+02 -0.28311111548E+02  0.13854583552E+03  0.00000000000E+00 0.  1.
         21    1    1    2  504  505 -0.30388167932E+02 -0.18470264557E+02 -0.78782262369E+01  0.36423314947E+02  0.00000000000E+00 0.  1.
         21    1    1    2  505  501 -0.11209967224E+02  0.14745127963E+03  0.66422206791E+02  0.16210938524E+03  0.00000000000E+00 0.  1.
          1    1    1    2  501    0 -0.50625236661E+02 -0.29541188066E+02  0.18257440032E+04  0.18266846366E+04  0.00000000000E+00 0.  1.
<scales pt_clust_3="133.54180" pt_clust_4="35.56109" pt_clust_5="14000.00000" pt_clust_6="58.74089"></scales>
<clustering>
<clus scale="   35.561">  2  4  1 -1</clus>
<clus scale="   58.741">  1  6  2 -1</clus>
<clus scale="  133.542">  2  3  1 -1</clus>
<clus scale="   35.561">  2  3  1 -1</clus>
</clustering>
</event>
<event>
 6    0  0.4945982E+002  0.1002533E+03  0.7546771E-02  0.1279764E+00
         21   -1    0    0  503  502  0.00000000000E+00  0.00000000000E+00  0.22204389158E+02  0.22204389158E+02  0.00000000000E+00 0. -1.
          2   -1    0    0  504    0 -0.00000000000E+00 -0.00000000000E+00 -0.16812379991E+04  0.16812379991E+04  0.00000000000E+00 0. -1.
         21    1    1    2  503  501 -0.62254915668E+02 -0.15308813419E+02 -0.25183004451E+03  0.25986228201E+03  0.00000000000E+00 0. -1.
         21    1    1    2  504  505  0.41004453455E+02  0.59576942128E+02 -0.18618447555E+03  0.19973841937E+03  0.00000000000E+00 0. -1.
         21    1    1    2  505  502  0.59956044234E+02  0.32515109293E+02 -0.10952100726E+03  0.12902251975E+03  0.00000000000E+00 0. -1.
          2    1    1    2  501    0 -0.38705582020E+02 -0.76783238002E+02 -0.11114980826E+04  0.11148191671E+04  0.00000000000E+00 0. -1.
<scales pt_clust_3="64.10955" pt_clust_4="43.08102" pt_clust_5="43.08102" pt_clust_6="89.90362"></scales>
<clustering>
<clus scale="   43.081">  4  5 -1 -1</clus>
<clus scale="   64.110">  1  3  2 -1</clus>
<clus scale="   89.904">  2  6  1 -1</clus>
<clus scale="   64.110">  1  3  2 -1</clus>
</clustering>
</event>
<event>
 6    0  0.4945982E+002  0.1346078E+03  0.7546771E-02  0.1220774E+00
          2   -1    0    0  505    0 -0.00000000000E+00  0.00000000000E+00  0.17469725303E+04  0.17469725303E+04  0.00000000000E+00 0. -1.
         21   -1    0    0  503  502  0.00000000000E+00 -0.00000000000E+00 -0.19905359055E+03  0.19905359055E+03  0.00000000000E+00 0.  1.
         21    1    1    2  503  501 -0.57156584083E+01  0.70573521875E+02 -0.15173881761E+03  0.16744539262E+03  0.00000000000E+00 0.  1.
         21    1    1    2  504  502  0.35643569033E+02  0.12477916770E+02  0.28052455120E+02  0.47043625058E+02  0.00000000000E+00 0. -1.
         21    1    1    2  505  504  0.23150510725E+02  0.41992587740E+02 -0.61031242646E+01  0.48338097788E+02  0.00000000000E+00 0. -1.
          2    1    1    2  501    0 -0.53078421350E+02 -0.12504402638E+03  0.16777084265E+04  0.16831990054E+04  0.00000000000E+00 0. -1.
<scales pt_clust_3="14000.00000" pt_clust_4="37.76457" pt_clust_5="52.11726" pt_clust_6="134.60775"></scales>
<clustering>
<clus scale="   37.765">  2  4  1 -1</clus>
<clus scale="   52.117">  2  5  1 -1</clus>
<clus scale="  134.608">  1  6  2 -1</clus>
<clus scale="   37.765">  2  3  1 -1</clus>
</clustering>
</event>
<event>
 6    0  0.4945982E+002  0.2095288E+03  0.7546771E-02  0.1141940E+00
          2   -1    0    0  504    0 -0.00000000000E+00  0.00000000000E+00  0.37628583880E+03  0.37628583880E+03  0.00000000000E+00 0. -1.
         21   -1    0    0  503  502  0.00000000000E+00 -0.00000000000E+00 -0.44948011349E+03  0.44948011349E+03  0.00000000000E+00 0.  1.
         21    1    1    2  503  501  0.89418066608E+02  0.12878111637E+03 -0.21094360977E+02  0.15819335837E+03  0.00000000000E+00 0. -1.
         21    1    1    2  504  505 -0.27489886636E+02 -0.28335307648E+02  0.15342347192E+01  0.39508700345E+02  0.00000000000E+00 0.  1.
         21    1    1    2  505  502 -0.20675438226E+03 -0.14639893130E+03 -0.26574225826E+03  0.36714979163E+03  0.00000000000E+00 0.  1.
          2    1    1    2  501    0  0.14482620229E+03  0.45953122578E+02  0.21210810983E+03  0.26091410195E+03  0.00000000000E+00 0. -1.
<scales pt_clust_3="209.52884" pt_clust_4="39.47890" pt_clust_5="14000.00000" pt_clust_6="129.42345"></scales>
<clustering>
<clus scale="   39.479">  1  4  2 -1</clus>
<clus scale="  129.423">  1  6  2 -1</clus>
<clus scale="  209.529">  1  3  2 -1</clus>
<clus scale="  209.529">  2  3  1 -1</clus>
</clustering>
</event>
<event>
 6    0  0.4945982E+002  0.1038094E+03  0.7546771E-02  0.1272483E+00
         21   -1    0    0  501  502  0.00000000000E+00  0.00000000000E+00  0.85439440800E+02  0.85439440800E+02  0.00000000000E+00 0. -1.
          2   -1    0    0  503    0 -0.00000000000E+00 -0.00000000000E+00 -0.20235685089E+04  0.20235685089E+04  0.00000000000E+00 0. -1.
         21    1    1    2  503  505 -0.33680967565E+02  0.80413408724E+02 -0.65390874689E+03  0.65969490914E+03  0.00000000000E+00 0. -1.
         21    1    1    2  504  502  0.33916614896E+02  0.55494984860E+02  0.59607999100E+02  0.88222126858E+02  0.00000000000E+00 0. -1.
         21    1    1    2  505  504 -0.71881820034E+02 -0.29909427641E+02 -0.32173320560E+03  0.33101937330E+03  0.00000000000E+00 0. -1.
          2    1    1    2  501    0  0.71646172703E+02 -0.10599896594E+03 -0.10220951147E+04  0.10300715404E+04  0.00000000000E+00 0. -1.
<scales pt_clust_3="14000.00000" pt_clust_4="65.03868" pt_clust_5="58.70472" pt_clust_6="103.80945"></scales>
<clustering>
<clus scale="   65.039">  1  4  2 -1</clus>
<clus scale="   58.705">  1  5  2 -1</clus>
<clus scale="  103.809">  1  6  2 -1</clus>
<clus scale="   65.039">  1  3  2 -1</clus>
</clustering>
</event>
<event>
 6    0  0.4945982E+002  0.1188628E+03  0.7546771E-02  0.1244985E+00
         21   -1    0    0  505  502  0.00000000000E+00  0.00000000000E+00  0.49998961930E+02  0.49998961930E+02  0.00000000000E+00 0.  1.
          1   -1    0    0  504    0 -0.00000000000E+00 -0.00000000000E+00 -0.16205923177E+04  0.16205923177E+04  0.00000000000E+00 0.  1.
         21    1    1    2  503  501 -0.26805388340E+02  0.84548576331E+02 -0.19415081230E+03  0.21345146643E+03  0.00000000000E+00 0.  1.
         21    1    1    2  504  502 -0.21098765086E+01  0.10941461653E+03 -0.57934898186E+03  0.58959414233E+03  0.00000000000E+00 0.  1.
         21    1    1    2  505  503 -0.36840904198E+01 -0.67731814365E+02 -0.86329355715E+01  0.68379081421E+02  0.00000000000E+00 0.  1.
          1    1    1    2  501    0  0.32599355268E+02 -0.12623137849E+03 -0.78846062608E+03  0.79916658949E+03  0.00000000000E+00 0.  1.
<scales pt_clust_3="59.39506" pt_clust_4="118.86282" pt_clust_5="67.83193" pt_clust_6="14000.00000"></scales>
<clustering>
<clus scale="   67.832">  1  5  2 -1</clus>
<clus scale="   59.395">  1  3  2 -1</clus>
<clus scale="  118.863">  2  4  1 -1</clus>
<clus scale="   67.832">  1  3  2 -1</clus>
</clustering>
</event>
<event>
 6    0  0.4945982E+002  0.2312162E+03  0.7546771E-02  0.1125787E+00
         21   -1    0    0  505  502  0.00000000000E+00  0.00000000000E+00  0.71939483625E+02  0.71939483625E+02  0.00000000000E+00 0.  1.
          2   -1    0    0  503    0 -0.00000000000E+00 -0.00000000000E+00 -0.34735724698E+04  0.34735724698E+04  0.00000000000E+00 0.  1.
         21    1    1    2  503  502 -0.14863476116E+03  0.13575923684E+03 -0.54049272240E+03  0.57676272902E+03  0.00000000000E+00 0.  1.
         21    1    1    2  504  501  0.11085211336E+03 -0.12714668312E+03 -0.16594665874E+03  0.23662790117E+03  0.00000000000E+00 0.  1.
         21    1    1    2  505  504  0.12069391830E+02 -0.73873976869E+02 -0.59834882392E+02  0.95829263946E+02  0.00000000000E+00 0.  1.
          2    1    1    2  501    0  0.25713255968E+02  0.65261423142E+02 -0.26353587226E+04  0.26362920593E+04  0.00000000000E+00 0.  1.
<scales pt_clust_3="222.32742" pt_clust_4="42.29601" pt_clust_5="42.29601" pt_clust_6="70.14431"></scales>
<clustering>
<clus scale="   42.296">  4  5 -1 -1</clus>
<clus scale="   70.144">  2  6  1 -1</clus>
<clus scale="  222.327">  2  3  1 -1</clus>
<clus scale="  231.216">  1  3  2 -1</clus>
</clustering>
</event>
<event>
 6    0  0.4945982E+002  0.1668638E+03  0.7546771E-02  0.1181158E+00
          2   -1    0    0  503    0 -0.00000000000E+00  0.00000000000E+00  0.16055167720E+04  0.16055167720E+04  0.00000000000E+00 0.  1.
         21   -1    0    0  504  502  0.00000000000E+00 -0.00000000000E+00 -0.12477944405E+03  0.12477944405E+03  0.00000000000E+00 0. -1.
         21    1    1    2  503  505 -0.78309525499E+02  0.14480495311E+03  0.81979041506E+03  0.83615619405E+03  0.00000000000E+00 0.  1.
         21    1    1    2  504  501  0.26263652159E+02 -0.17014447262E+02 -0.74932781573E+02  0.81204634071E+02  0.00000000000E+00 0. -1.
         21    1    1    2  505  502 -0.97143714192E+02 -0.24316288656E+02  0.68570527371E+02  0.12136762470E+03  0.00000000000E+00 0. -1.
          2    1    1    2  501    0  0.14918958753E+03 -0.10347421719E+03  0.66730916707E+03  0.69156776321E+03  0.00000000000E+00 0.  1.
<scales pt_clust_3="14000.00000" pt_clust_4="31.29330" pt_clust_5="89.02138" pt_clust_6="166.86377"></scales>
<clustering>
<clus scale="   31.293">  2  4  1 -1</clus>
<clus scale="   89.021">  2  5  1 -1</clus>
<clus scale="  166.864">  2  6  1 -1</clus>
<clus scale="   31.293">  2  3  1 -1</clus>
</clustering>
</event>
<event>
 6    0  0.4945982E+002  0.1170119E+03  0.7546771E-02  0.1248109E+00
          2   -1    0    0  505    0 -0.00000000000E+00  0.00000000000E+00  0.16144882094E+04  0.16144882094E+04  0.00000000000E+00 0.  1.
         21   -1    0    0  503  502  0.00000000000E+00 -0.00000000000E+00 -0.41558168740E+02  0.41558168740E+02  0.00000000000E+00 0.  1.
         21    1    1    2  503  501 -0.10252206604E+03  0.86099981708E+01  0.38570379906E+02  0.10987529431E+03  0.00000000000E+00 0.  1.
         21    1    1    2  504  502  0.86080374071E+02 -0.49363396737E+02  0.54447174148E+03  0.55344019822E+03  0.00000000000E+00 0.  1.
         21    1    1    2  505  504  0.30197082673E+02  0.12471885219E+02  0.24366703910E+03  0.24584759032E+03  0.00000000000E+00 0.  1.
          2    1    1    2  501    0 -0.13755390702E+02  0.28281513347E+02  0.74622088020E+03  0.74688329531E+03  0.00000000000E+00 0.  1.
<scales pt_clust_3="104.28318" pt_clust_4="30.45368" pt_clust_5="30.45368" pt_clust_6="31.44924"></scales>
<clustering>
<clus scale="   30.454">  4  5 -1 -1</clus>
<clus scale="   31.449">  1  6  2 -1</clus>
<clus scale="  104.283">  2  3  1 -1</clus>
<clus scale="  104.283">  2  3  1 -1</clus>
</clustering>
</event>
<event>
 6    0  0.4945982E+002  0.1250833E+03  0.7546771E-02  0.1234939E+00
         21   -1    0    0  501  502  0.00000000000E+00  0.00000000000E+00  0.13252401554E+03  0.13252401554E+03  0.00000000000E+00 0.  1.
         -1   -1    0    0    0  501 -0.00000000000E+00 -0.00000000000E+00 -0.72441938615E+03  0.72441938615E+03  0.00000000000E+00 0. -1.
         21    1    1    2  503  504 -0.79918807777E+02  0.37461274178E+02  0.15200325247E+02  0.89562340228E+02  0.00000000000E+00 0.  1.
         21    1    1    2  504  502 -0.49565752900E+02 -0.91338763953E+01  0.32353282429E+02  0.59890954596E+02  0.00000000000E+00 0.  1.
         21    1    1    2  505  503  0.91649120309E+02 -0.11449530450E+02 -0.30695716963E+02  0.97328721561E+02  0.00000000000E+00 0.  1.
         -1    1    1    2    0  505  0.37835440368E+02 -0.16877867333E+02 -0.60875326132E+03  0.61016138531E+03  0.00000000000E+00 0. -1.
<scales pt_clust_3="37.83026" pt_clust_4="37.83026" pt_clust_5="114.62802" pt_clust_6="41.42925"></scales>
<clustering>
<clus scale="   37.830">  3  4 -1 -1</clus>
<clus scale="   41.429">  2  6  1 -1</clus>
<clus scale="  114.628">  2  5  1 -1</clus>
<clus scale="  125.083">  1  3  2 -1</clus>
</clustering>
</event>
<event>
 6    0  0.4945982E+002  0.1614753E+03  0.7546771E-02  0.1187041E+00
         21   -1    0    0  503  502  0.00000000000E+00  0.00000000000E+00  0.11757265796E+04  0.11757265796E+04  0.00000000000E+00 0.  1.
          1   -1    0    0  504    0 -0.00000000000E+00 -0.00000000000E+00 -0.17980503039E+03  0.17980503039E+03  0.00000000000E+00 0.  1.
         21    1    1    2  503  505 -0.39623545277E+02 -0.52392413376E+02  0.20743661498E+03  0.21758892332E+03  0.00000000000E+00 0. -1.
         21    1    1    2  504  502  0.31231912901E+02 -0.46415383026E+02  0.89081296335E+02  0.10519171793E+03  0.00000000000E+00 0.  1.
         21    1    1    2  505  501 -0.12398075151E+03  0.98521099316E+00  0.81960967766E+03  0.82893438890E+03  0.00000000000E+00 0.  1.
          1    1    1    2  501    0  0.13237238389E+03  0.97822585408E+02 -0.12020603975E+03  0.20381657986E+03  0.00000000000E+00 0.  1.
<scales pt_clust_3="70.05077" pt_clust_4="55.94480" pt_clust_5="14000.00000" pt_clust_6="161.47528"></scales>
<clustering>
<clus scale="   55.945">  1  4  2 -1</clus>
<clus scale="   70.051">  1  3  2 -1</clus>
<clus scale="  161.475">  2  6  1 -1</clus>
<clus scale="   55.945">  1  3  2 -1</clus>
</clustering>
</event>
<event>
 6    0  0.4945982E+002  0.4456892E+03  0.7546771E-02  0.1029015E+00
         21   -1    0    0  504  502  0.00000000000E+00  0.00000000000E+00  0.38795740570E+03  0.38795740570E+03  0.00000000000E+00 0. -1.
         -1   -1    0    0    0  501 -0.00000000000E+00 -0.00000000000E+00 -0.97053207394E+03  0.97053207394E+03  0.00000000000E+00 0.  1.
         21    1    1    2  503  505 -0.20351804334E+02 -0.27661300907E+02  0.31173483342E+02  0.46380271357E+02  0.00000000000E+00 0.  1.
         21    1    1    2  504  503  0.46472755005E+02 -0.57354838726E+02  0.10474836371E+03  0.12814645599E+03  0.00000000000E+00 0.  1.
         21    1    1    2  505  501 -0.23058688632E+03 -0.30249186812E+03 -0.48519817361E+02  0.38343945428E+03  0.00000000000E+00 0. -1.
         -1    1    1    2    0  502  0.20446593565E+03  0.38750800775E+03 -0.66997669792E+03  0.80052329802E+03  0.00000000000E+00 0.  1.
<scales pt_clust_3="33.55796" pt_clust_4="73.81934" pt_clust_5="33.55796" pt_clust_6="431.46971"></scales>
<clustering>
<clus scale="   33.558">  3  5 -1 -1</clus>
<clus scale="   73.819">  1  4  2 -1</clus>
<clus scale="  431.470">  2  6  1 -1</clus>
<clus scale="   73.819">  1  3  2 -1</clus>
</clustering>
</event>
<event>
 6    0  0.4945982E+002  0.1089440E+03  0.7546771E-02  0.1262538E+00
         21   -1    0    0  504  502  0.00000000000E+00  0.00000000000E+00  0.39425313879E+03  0.39425313879E+03  0.00000000000E+00 0. -1.
         -2   -1    0    0    0  501 -0.00000000000E+00 -0.00000000000E+00 -0.20442725081E+03  0.20442725081E+03  0.00000000000E+00 0.  1.
         21    1    1    2  503  505 -0.13637816770E+02 -0.33457960121E+02  0.63725078283E+02  0.73255107289E+02  0.00000000000E+00 0. -1.
         21    1    1    2  504  503  0.45831772747E+02 -0.19193312407E+02  0.15927960753E+03  0.16685001651E+03  0.00000000000E+00 0. -1.
         21    1    1    2  505  501 -0.90571496283E+02 -0.20705059660E+02  0.13626558079E+03  0.16492484331E+03  0.00000000000E+00 0. -1.
         -2    1    1    2    0  502  0.58377540307E+02  0.73356332188E+02 -0.16944437862E+03  0.19365042249E+03  0.00000000000E+00 0.  1.
<scales pt_clust_3="33.81433" pt_clust_4="49.68838" pt_clust_5="33.81433" pt_clust_6="94.49114"></scales>
<clustering>
<clus scale="   33.814">  3  5 -1 -1</clus>
<clus scale="   49.688">  1  4  2 -1</clus>
<clus scale="   94.491">  2  6  1 -1</clus>
<clus scale="   49.688">  1  3  2 -1</clus>
</clustering>
</event>
<event>
 6    0  0.4945982E+002  0.8221322E+02  0.7546771E-02  0.1322885E+00
          2   -1    0    0  505    0 -0.00000000000E+00  0.00000000000E+00  0.52924090608E+03  0.52924090608E+03  0.00000000000E+00 0. -1.
         21   -1    0    0  504  502  0.00000000000E+00 -0.00000000000E+00 -0.58409994864E+02  0.58409994864E+02  0.00000000000E+00 0. -1.
         21    1    1    2  503  501  0.83411047286E+02 -0.25973576264E+01  0.89598642759E+02  0.12244209186E+03  0.00000000000E+00 0.  1.
         21    1    1    2  504  503 -0.37629855060E+01  0.35077135160E+02 -0.99769488794E+01  0.36662037313E+02  0.00000000000E+00 0. -1.
         21    1    1    2  505  502 -0.79992358937E+02  0.18089247277E+02  0.84717887916E+02  0.11791148752E+03  0.00000000000E+00 0. -1.
          2    1    1    2  501    0  0.34429715614E+00 -0.50569024811E+02  0.30649132942E+03  0.31063528425E+03  0.00000000000E+00 0. -1.
<scales pt_clust_3="14000.00000" pt_clust_4="35.27840" pt_clust_5="82.21322" pt_clust_6="48.49799"></scales>
<clustering>
<clus scale="   35.278">  2  4  1 -1</clus>
<clus scale="   48.498">  1  6  2 -1</clus>
<clus scale="   82.213">  1  5  2 -1</clus>
<clus scale="   35.278">  2  3  1 -1</clus>
</clustering>
</event>
<event>
 6    0  0.4945982E+002  0.6733774E+02  0.7546771E-02  0.1369388E+00
         21   -1    0    0  503  502  0.00000000000E+00  0.00000000000E+00  0.18159784657E+04  0.18159784657E+04  0.00000000000E+00 0. -1.
         -1   -1    0    0    0  501 -0.00000000000E+00 -0.00000000000E+00 -0.20113147748E+04  0.20113147748E+04  0.00000000000E+00 0. -1.
         21    1    1    2  503  504  0.51919544976E+02 -0.30693075914E+02  0.19816429930E+03  0.20713955097E+03  0.00000000000E+00 0. -1.
         21    1    1    2  504  501  0.46021423097E+02  0.72340693857E+02  0.14308566328E+03  0.16680723727E+03  0.00000000000E+00 0. -1.
         21    1    1    2  505  502 -0.39613378629E+02 -0.80622306609E+01  0.14575320690E+04  0.14580925730E+04  0.00000000000E+00 0. -1.
         -1    1    1    2    0  505 -0.58327589445E+02 -0.33585387282E+02 -0.19941183407E+04  0.19952538792E+04  0.00000000000E+00 0. -1.
<scales pt_clust_3="45.97289" pt_clust_4="14000.00000" pt_clust_5="40.42548" pt_clust_6="67.33774"></scales>
<clustering>
<clus scale="   40.425">  1  5  2 -1</clus>
<clus scale="   45.973">  1  3  2 -1</clus>
<clus scale="   67.338">  2  6  1 -1</clus>
<clus scale="   40.425">  1  3  2 -1</clus>
</clustering>
</event>
<event>
 6    0  0.4945982E+002  0.6392830E+02  0.7546771E-02  0.1382049E+00
         21   -1    0    0  503  502  0.00000000000E+00  0.00000000000E+00  0.21099306435E+03  0.21099306435E+03  0.00000000000E+00 0.  1.
          2   -1    0    0  505    0 -0.00000000000E+00 -0.00000000000E+00 -0.15367742038E+04  0.15367742038E+04  0.00000000000E+00 0.  1.
         21    1    1    2  503  504 -0.31864112873E+02  0.55000775451E+02  0.19546807723E+03  0.20554361145E+03  0.00000000000E+00 0.  1.
         21    1    1    2  504  501 -0.52514706878E+02 -0.37073040770E+02 -0.28198060380E+03  0.28921491267E+03  0.00000000000E+00 0.  1.
         21    1    1    2  505  502  0.96717014541E+02 -0.64455992912E+02 -0.55448765035E+03  0.56653800430E+03  0.00000000000E+00 0.  1.
          2    1    1    2  501    0 -0.12338194790E+02  0.46528258231E+02 -0.68478096253E+03  0.68647073973E+03  0.00000000000E+00 0.  1.
<scales pt_clust_3="63.92830" pt_clust_4="60.58317" pt_clust_5="14000.00000" pt_clust_6="48.13637"></scales>
<clustering>
<clus scale="   48.136">  2  6  1 -1</clus>
<clus scale="   60.583">  2  4  1 -1</clus>
<clus scale="   63.928">  1  3  2 -1</clus>
<clus scale="   63.928">  1  3  2 -1</clus>
</clustering>
</event>
<event>
 6    0  0.4945982E+002  0.1503705E+03  0.7546771E-02  0.1200018E+00
         21   -1    0    0  503  502  0.00000000000E+00  0.00000000000E+00  0.10412778247E+03  0.10412778247E+03  0.00000000000E+00 0. -1.
          2   -1    0    0  505    0 -0.00000000000E+00 -0.00000000000E+00 -0.13974050854E+04  0.13974050854E+04  0.00000000000E+00 0. -1.
         21    1    1    2  503  501  0.44248161315E+02 -0.27542786292E+01  0.81694329972E+02  0.92948638398E+02  0.00000000000E+00 0. -1.
         21    1    1    2  504  502 -0.28929381182E+02 -0.75750365587E+02 -0.39246008859E+03  0.40074923346E+03  0.00000000000E+00 0. -1.
         21    1    1    2  505  504 -0.48109737198E+02 -0.55500280526E+02 -0.52077759142E+03  0.52593167587E+03  0.00000000000E+00 0. -1.
          2    1    1    2  501    0  0.32790957065E+02  0.13400492474E+03 -0.46173395289E+03  0.48190332015E+03  0.00000000000E+00 0. -1.
<scales pt_clust_3="44.33380" pt_clust_4="37.74344" pt_clust_5="37.74344" pt_clust_6="145.04692"></scales>
<clustering>
<clus scale="   37.743">  4  5 -1 -1</clus>
<clus scale="   44.334">  1  3  2 -1</clus>
<clus scale="  145.047">  1  6  2 -1</clus>
<clus scale="   44.334">  1  3  2 -1</clus>
</clustering>
</event>
<event>
 6    0  0.4945982E+002  0.8504227E+02  0.7546771E-02  0.1315322E+00
         21   -1    0    0  505  502  0.00000000000E+00  0.00000000000E+00  0.74347440453E+03  0.74347440453E+03  0.00000000000E+00 0.  1.
          2   -1    0    0  504    0 -0.00000000000E+00 -0.00000000000E+00 -0.17464724975E+03  0.17464724975E+03  0.00000000000E+00 0. -1.
         21    1    1    2  503  502 -0.11810499364E+03  0.41116614264E+02  0.36654655417E+03  0.38729283735E+03  0.00000000000E+00 0.  1.
         21    1    1    2  504  503  0.45247648648E+02 -0.38903136262E+02  0.12200974145E+03  0.13582039879E+03  0.00000000000E+00 0.  1.
         21    1    1    2  505  501  0.45300168451E+02  0.28630802554E+02  0.23181117944E+03  0.23792488527E+03  0.00000000000E+00 0.  1.
          2    1    1    2  501    0  0.27557176544E+02 -0.30844280556E+02 -0.15154032029E+03  0.15708353286E+03  0.00000000000E+00 0. -1.
<scales pt_clust_3="85.04227" pt_clust_4="14000.00000" pt_clust_5="54.95722" pt_clust_6="41.36143"></scales>
<clustering>
<clus scale="   41.361">  2  6  1 -1</clus>
<clus scale="   54.957">  1  5  2 -1</clus>
<clus scale="   85.042">  1  3  2 -1</clus>
<clus scale="   54.957">  1  3  2 -1</clus>
</clustering>
</event>
<event>
 6    0  0.4945982E+002  0.1278312E+03  0.7546771E-02  0.1230710E+00
         21   -1    0    0  501  502  0.00000000000E+00  0.00000000000E+00  0.13022572868E+04  0.13022572868E+04  0.00000000000E+00 0. -1.
          2   -1    0    0  503    0 -0.00000000000E+00 -0.00000000000E+00 -0.19886485108E+03  0.19886485108E+03  0.00000000000E+00 0. -1.
         21    1    1    2  503  505  0.15054330301E+02  0.55528593274E+02 -0.14213068588E+01  0.57550652864E+02  0.00000000000E+00 0. -1.
         21    1    1    2  504  502  0.89622282701E+01 -0.34214381936E+02  0.94311224983E+03  0.94377521754E+03  0.00000000000E+00 0. -1.
         21    1    1    2  505  504 -0.56234820384E+02 -0.92829205895E+02  0.31195784642E+03  0.33029882596E+03  0.00000000000E+00 0. -1.
          2    1    1    2  501    0  0.32218261813E+02  0.71514994556E+02 -0.15025635370E+03  0.16949744148E+03  0.00000000000E+00 0. -1.
<scales pt_clust_3="55.15086" pt_clust_4="35.36871" pt_clust_5="127.83123" pt_clust_6="14000.00000"></scales>
<clustering>
<clus scale="   35.369">  1  4  2 -1</clus>
<clus scale="   55.151">  2  3  1 -1</clus>
<clus scale="  127.831">  1  5  2 -1</clus>
<clus scale="   35.369">  1  3  2 -1</clus>
</clustering>
</event>
<event>
 6    0  0.4945982E+002  0.1381389E+03  0.7546771E-02  0.1215855E+00
          2   -1    0    0  504    0 -0.00000000000E+00  0.00000000000E+00  0.84556767036E+03  0.84556767036E+03  0.00000000000E+00 0.  1.
         21   -1    0    0  505  502  0.00000000000E+00 -0.00000000000E+00 -0.40776033956E+03  0.40776033956E+03  0.00000000000E+00 0. -1.
         21    1    1    2  503  502 -0.28927470251E+02 -0.11434157146E+03 -0.31698618345E+03  0.33821743598E+03  0.00000000000E+00 0. -1.
         21    1    1    2  504  503  0.92066873357E+02  0.82665034576E+02  0.12077822202E+03  0.17290805657E+03  0.00000000000E+00 0.  1.
         21    1    1    2  505  501 -0.36122582336E+02 -0.14475537882E+02 -0.45906239417E+02  0.60181101427E+02  0.00000000000E+00 0. -1.
          2    1    1    2  501    0 -0.27016820770E+02  0.46152074771E+02  0.67992153165E+03  0.68202141595E+03  0.00000000000E+00 0.  1.
<scales pt_clust_3="138.13892" pt_clust_4="14000.00000" pt_clust_5="38.91506" pt_clust_6="53.49540"></scales>
<clustering>
<clus scale="   38.915">  2  5  1 -1</clus>
<clus scale="   53.495">  1  6  2 -1</clus>
<clus scale="  138.139">  2  3  1 -1</clus>
<clus scale="   38.915">  2  3  1 -1</clus>
</clustering>
</event>
<event>
 6    0  0.4945982E+002  0.1046953E+03  0.7546771E-02  0.1270721E+00
         21   -1    0    0  503  502  0.00000000000E+00  0.00000000000E+00  0.19297666040E+02  0.19297666040E+02  0.00000000000E+00 0.  1.
          1   -1    0    0  504    0 -0.00000000000E+00 -0.00000000000E+00 -0.34563852363E+04  0.34563852363E+04  0.00000000000E+00 0. -1.
         21    1    1    2  503  501 -0.63634262942E+02  0.94070724419E+01 -0.77123881652E+02  0.10042860924E+03  0.00000000000E+00 0.  1.
         21    1    1    2  504  505  0.22786920928E+02  0.58083649582E+02 -0.23607531543E+03  0.24418130287E+03  0.00000000000E+00 0.  1.
         21    1    1    2  505  502 -0.48339491962E+02 -0.51767804631E+01 -0.22725023716E+03  0.23239228866E+03  0.00000000000E+00 0. -1.
          1    1    1    2  501    0  0.89186833975E+02 -0.62313941561E+02 -0.28966381361E+04  0.28986807016E+04  0.00000000000E+00 0. -1.
<scales pt_clust_3="104.69530" pt_clust_4="57.89817" pt_clust_5="48.61590" pt_clust_6="14000.00000"></scales>
<clustering>
<clus scale="   48.616">  1  5  2 -1</clus>
<clus scale="   57.898">  1  4  2 -1</clus>
<clus scale="  104.695">  1  3  2 -1</clus>
<clus scale="   48.616">  1  3  2 -1</clus>
</clustering>
</event>
<event>
 6    0  0.4945982E+002  0.1207266E+03  0.7546771E-02  0.1241903E+00
          2   -1    0    0  504    0 -0.00000000000E+00  0.00000000000E+00  0.90325353600E+03  0.90325353600E+03  0.00000000000E+00 0.  1.
         21   -1    0    0  501  502  0.00000000000E+00 -0.00000000000E+00 -0.53012137376E+02  0.53012137376E+02  0.00000000000E+00 0. -1.
         21    1    1    2  503  505 -0.11444243216E+02  0.11229969065E+03  0.27648784802E+03  0.29864313374E+03  0.00000000000E+00 0. -1.
         21    1    1    2  504  503  0.18916037418E+02  0.33823503300E+02  0.17835880908E+03  0.18252043892E+03  0.00000000000E+00 0.  1.
         21    1    1    2  505  502  0.20268029060E+02 -0.99279087481E+02  0.30001034215E+02  0.10567493680E+03  0.00000000000E+00 0. -1.
          2    1    1    2  501    0 -0.27739823262E+02 -0.46844106471E+02  0.36539370730E+03  0.36942716392E+03  0.00000000000E+00 0.  1.
<scales pt_clust_3="33.27484" pt_clust_4="33.27484" pt_clust_5="106.53555" pt_clust_6="54.44142"></scales>
<clustering>
<clus scale="   33.275">  3  4 -1 -1</clus>
<clus scale="   54.441">  1  6  2 -1</clus>
<clus scale="  106.536">  2  5  1 -1</clus>
<clus scale="  106.536">  2  3  1 -1</clus>
</clustering>
</event>
<event>
 6    0  0.4945982E+002  0.1254042E+03  0.7546771E-02  0.1234439E+00
          1   -1    0    0  502    0 -0.00000000000E+00  0.00000000000E+00  0.27989671325E+03  0.27989671325E+03  0.00000000000E+00 0.  1.
         21   -1    0    0  503  502  0.00000000000E+00 -0.00000000000E+00 -0.17363712357E+03  0.17363712357E+03  0.00000000000E+00 0. -1.
         21    1    1    2  503  504 -0.11725842516E+03  0.12323807122E+02 -0.10010557957E+03  0.15466913575E+03  0.00000000000E+00 0. -1.
         21    1    1    2  504  505  0.74438781216E+02 -0.40467112216E+01  0.31752112009E+02  0.81029035769E+02  0.00000000000E+00 0. -1.
         21    1    1    2  505  501  0.28298513863E+02  0.33454900637E+02  0.68490491522E+01  0.44350261981E+02  0.00000000000E+00 0. -1.
          1    1    1    2  501    0  0.14521130081E+02 -0.41731996538E+02  0.16776400809E+03  0.17348540331E+03  0.00000000000E+00 0.  1.
<scales pt_clust_3="113.64892" pt_clust_4="40.64154" pt_clust_5="40.64154" pt_clust_6="44.18623"></scales>
<clustering>
<clus scale="   40.642">  4  5 -1 -1</clus>
<clus scale="   44.186">  1  6  2 -1</clus>
<clus scale="  113.649">  2  3  1 -1</clus>
<clus scale="  113.649">  2  3  1 -1</clus>
</clustering>
</event>
<event>
 6    0  0.4945982E+002  0.1511788E+03  0.7546771E-02  0.1199032E+00
         21   -1    0    0  504  502  0.00000000000E+00  0.00000000000E+00  0.17760891665E+03  0.17760891665E+03  0.00000000000E+00 0.  1.
          1   -1    0    0  505    0 -0.00000000000E+00 -0.00000000000E+00 -0.29649262626E+04  0.29649262626E+04  0.00000000000E+00 0.  1.
         21    1    1    2  503  501 -0.44011367769E+02  0.83738558715E+00  0.58789171431E+02  0.73442960078E+02  0.00000000000E+00 0.  1.
         21    1    1    2  504  503 -0.84730263757E+02  0.11082452136E+02  0.38407023714E+02  0.93686380079E+02  0.00000000000E+00 0.  1.
         21    1    1    2  505  502 -0.15177903208E+02 -0.33166236851E+02  0.36013556509E+02  0.51257626409E+02  0.00000000000E+00 0.  1.
          1    1    1    2  501    0  0.14391953473E+03  0.21246399128E+02 -0.29205270976E+04  0.29241482126E+04  0.00000000000E+00 0.  1.
<scales pt_clust_3="30.18413" pt_clust_4="30.18413" pt_clust_5="36.47421" pt_clust_6="145.21156"></scales>
<clustering>
<clus scale="   30.184">  3  4 -1 -1</clus>
<clus scale="   36.474">  1  5  2 -1</clus>
<clus scale="  145.212">  2  6  1 -1</clus>
<clus scale="   36.474">  1  3  2 -1</clus>
</clustering>
</event>
<event>
 6    0  0.4945982E+002  0.8271760E+02  0.7546771E-02  0.1321512E+00
          1   -1    0    0  503    0 -0.00000000000E+00  0.00000000000E+00  0.20308928406E+04  0.20308928406E+04  0.00000000000E+00 0. -1.
         21   -1    0    0  505  502  0.00000000000E+00 -0.00000000000E+00 -0.16392234109E+03  0.16392234109E+03  0.00000000000E+00 0.  1.
         21    1    1    2  503  504  0.42948929140E+02 -0.24120589602E+02  0.42285763234E+02  0.64919173818E+02  0.00000000000E+00 0.  1.
         21    1    1    2  504  502  0.25894731078E+02  0.16901136937E+02 -0.43203114999E+01  0.31222597887E+02  0.00000000000E+00 0.  1.
         21    1    1    2  505  501 -0.52631933575E+02  0.88374263026E+02 -0.11420753615E+03  0.15369935625E+03  0.00000000000E+00 0.  1.
          1    1    1    2  501    0 -0.16211726643E+02 -0.81154810361E+02  0.19432125839E+04  0.19449740537E+04  0.00000000000E+00 0. -1.
<scales pt_clust_3="50.41077" pt_clust_4="30.92225" pt_clust_5="82.71760" pt_clust_6="14000.00000"></scales>
<clustering>
<clus scale="   30.922">  2  4  1 -1</clus>
<clus scale="   50.411">  2  3  1 -1</clus>
<clus scale="   82.718">  2  5  1 -1</clus>
<clus scale="   30.922">  2  3  1 -1</clus>
</clustering>
</event>
<event>
 6    0  0.4945982E+002  0.9686795E+02  0.7546771E-02  0.1287024E+00
         -1   -1    0    0    0  501 -0.00000000000E+00  0.00000000000E+00  0.69965626491E+03  0.69965626491E+03  0.00000000000E+00 0.  1.
         21   -1    0    0  505  502  0.00000000000E+00 -0.00000000000E+00 -0.11525026093E+03  0.11525026093E+03  0.00000000000E+00 0.  1.
         21    1    1    2  503  501  0.49952062983E+02 -0.64844112807E+02  0.22312101623E+02  0.84839834045E+02  0.00000000000E+00 0. -1.
         21    1    1    2  504  502 -0.29676636868E+02  0.69144256301E+01  0.12459823081E+02  0.32920498915E+02  0.00000000000E+00 0.  1.
         21    1    1    2  505  503  0.55852771522E+02 -0.53924547716E+01 -0.58466229500E+02  0.81036477262E+02  0.00000000000E+00 0.  1.
         -1    1    1    2    0  504 -0.76128197637E+02  0.63322141948E+02  0.60810030878E+03  0.61610971561E+03  0.00000000000E+00 0.  1.
<scales pt_clust_3="96.86795" pt_clust_4="30.47150" pt_clust_5="36.15122" pt_clust_6="14000.00000"></scales>
<clustering>
<clus scale="   30.471">  2  4  1 -1</clus>
<clus scale="   36.151">  2  5  1 -1</clus>
<clus scale="   96.868">  2  3  1 -1</clus>
<clus scale="   30.471">  2  3  1 -1</clus>
</clustering>
</event>
<event>
 6    0  0.4945982E+002  0.7592744E+02  0.7546771E-02  0.1341023E+00
          2   -1    0    0  505    0 -0.00000000000E+00  0.00000000000E+00  0.29260495289E+03  0.29260495289E+03  0.00000000000E+00 0.  1.
         21   -1    0    0  504  502  0.00000000000E+00 -0.00000000000E+00 -0.11733712133E+03  0.11733712133E+03  0.00000000000E+00 0. -1.
         21    1    1    2  503  501 -0.36662500554E+02  0.52077720242E+02  0.76160458603E+01  0.64142279715E+02  0.00000000000E+00 0. -1.
         21    1    1    2  504  503 -0.82917185681E+02 -0.58178336332E+02 -0.79985268621E+01  0.10160686459E+03  0.00000000000E+00 0. -1.
         21    1    1    2  505  502  0.65557455681E+02 -0.10157302795E+02  0.74178052585E+01  0.66753087047E+02  0.00000000000E+00 0.  1.
          2    1    1    2  501    0  0.54022230555E+02  0.16257918884E+02  0.16823250731E+03  0.17743984286E+03  0.00000000000E+00 0.  1.
<scales pt_clust_3="60.51841" pt_clust_4="14000.00000" pt_clust_5="75.92744" pt_clust_6="56.41561"></scales>
<clustering>
<clus scale="   56.416">  1  6  2 -1</clus>
<clus scale="   60.518">  1  3  2 -1</clus>
<clus scale="   75.927">  2  5  1 -1</clus>
<clus scale="   75.927">  2  3  1 -1</clus>
</clustering>
</event>
<event>
 6    0  0.4945982E+002  0.1422036E+03  0.7546771E-02  0.1210394E+00
         21   -1    0    0  503  502  0.00000000000E+00  0.00000000000E+00  0.10362133681E+03  0.10362133681E+03  0.00000000000E+00 0. -1.
          2   -1    0    0  505    0 -0.00000000000E+00 -0.00000000000E+00 -0.43801457959E+04  0.43801457959E+04  0.00000000000E+00 0. -1.
         21    1    1    2  503  501 -0.33236824154E+02  0.37331551387E+01  0.57574424783E+02  0.66584062029E+02  0.00000000000E+00 0.  1.
         21    1    1    2  504  502 -0.10696305305E+03 -0.50552041447E+02 -0.81599189161E+02  0.14371858364E+03  0.00000000000E+00 0. -1.
         21    1    1    2  505  504  0.12227010122E+03  0.11422575405E+03 -0.67999766320E+03  0.70028160229E+03  0.00000000000E+00 0. -1.
          2    1    1    2  501    0  0.17929775992E+02 -0.67406867746E+02 -0.35725020315E+04  0.35731828847E+04  0.00000000000E+00 0. -1.
<scales pt_clust_3="33.44582" pt_clust_4="14000.00000" pt_clust_5="142.20357" pt_clust_6="69.65161"></scales>
<clustering>
<clus scale="   33.446">  1  3  2 -1</clus>
<clus scale="   69.652">  2  6  1 -1</clus>
<clus scale="  142.204">  2  5  1 -1</clus>
<clus scale="   33.446">  1  3  2 -1</clus>
</clustering>
</event>
<event>
 6    0  0.4945982E+002  0.1448012E+03  0.7546771E-02  0.1207011E+00
          4   -1    0    0  505    0 -0.00000000000E+00  0.00000000000E+00  0.95701006661E+03  0.95701006661E+03  0.00000000000E+00 0.  1.
         21   -1    0    0  504  502  0.00000000000E+00 -0.00000000000E+00 -0.11746434838E+04  0.11746434838E+04  0.00000000000E+00 0. -1.
         21    1    1    2  503  502 -0.54199515801E+02 -0.24531307744E+02 -0.55287923339E+02  0.81216544126E+02  0.00000000000E+00 0.  1.
         21    1    1    2  504  501  0.18980314073E+01 -0.11105566294E+03 -0.10860794705E+04  0.10917442828E+04  0.00000000000E+00 0. -1.
         21    1    1    2  505  503  0.22743128104E+02  0.14958252163E+03  0.31886863359E+03  0.35294388526E+03  0.00000000000E+00 0.  1.
          4    1    1    2  501    0  0.29558356290E+02 -0.13995550942E+02  0.60486534301E+03  0.60574883826E+03  0.00000000000E+00 0.  1.
<scales pt_clust_3="58.71992" pt_clust_4="144.80115" pt_clust_5="14000.00000" pt_clust_6="32.70431"></scales>
<clustering>
<clus scale="   32.704">  1  6  2 -1</clus>
<clus scale="   58.720">  2  3  1 -1</clus>
<clus scale="  144.801">  2  4  1 -1</clus>
<clus scale="   58.720">  2  3  1 -1</clus>
</clustering>
</event>
<event>
 6    0  0.4945982E+002  0.8473330E+02  0.7546771E-02  0.1316131E+00
          3   -1    0    0  505    0 -0.00000000000E+00  0.00000000000E+00  0.27433817416E+02  0.27433817416E+02  0.00000000000E+00 0. -1.
         21   -1    0    0  503  502  0.00000000000E+00 -0.00000000000E+00 -0.32020962209E+04  0.32020962209E+04  0.00000000000E+00 0. -1.
         21    1    1    2  503  501 -0.70612862486E+02 -0.90476912673E+02 -0.61375885087E+03  0.62439744962E+03  0.00000000000E+00 0.  1.
         21    1    1    2  504  502  0.26582716905E+02  0.77088090360E+02 -0.24241002606E+04  0.24254713538E+04  0.00000000000E+00 0. -1.
         21    1    1    2  505  504 -0.88243947126E+01  0.29586018392E+02 -0.11689752004E+03  0.12090588331E+03  0.00000000000E+00 0. -1.
          3    1    1    2  501    0  0.52854540293E+02 -0.16197196079E+02 -0.19905772031E+02  0.58755351676E+02  0.00000000000E+00 0. -1.
<scales pt_clust_3="14000.00000" pt_clust_4="84.73330" pt_clust_5="30.87398" pt_clust_6="46.55624"></scales>
<clustering>
<clus scale="   30.874">  1  5  2 -1</clus>
<clus scale="   46.556">  1  6  2 -1</clus>
<clus scale="   84.733">  2  4  1 -1</clus>
<clus scale="   84.733">  2  3  1 -1</clus>
</clustering>
</event>
<event>
 6    0  0.4945982E+002  0.1204156E+03  0.7546771E-02  0.1242413E+00
         21   -1    0    0  504  502  0.00000000000E+00  0.00000000000E+00  0.80354477871E+02  0.80354477871E+02  0.00000000000E+00 0. -1.
          1   -1    0    0  503    0 -0.00000000000E+00 -0.00000000000E+00 -0.10802820357E+04  0.10802820357E+04  0.00000000000E+00 0. -1.
         21    1    1    2  503  505 -0.11982266572E+03 -0.99221432016E+02 -0.40451715174E+03  0.43340107273E+03  0.00000000000E+00 0. -1.
         21    1    1    2  504  501  0.98799938783E+02 -0.35638087993E+02 -0.66094043179E+02  0.12409642929E+03  0.00000000000E+00 0. -1.
         21    1    1    2  505  502  0.38571268786E+02  0.51429670777E+02  0.26919354563E+01  0.64342834321E+02  0.00000000000E+00 0. -1.
          1    1    1    2  501    0 -0.17548541847E+02  0.83429849232E+02 -0.53200829833E+03  0.53879617719E+03  0.00000000000E+00 0. -1.
<scales pt_clust_3="120.41561" pt_clust_4="14000.00000" pt_clust_5="64.28650" pt_clust_6="88.39648"></scales>
<clustering>
<clus scale="   64.286">  1  5  2 -1</clus>
<clus scale="   88.396">  2  6  1 -1</clus>
<clus scale="  120.416">  2  3  1 -1</clus>
<clus scale="   64.286">  1  3  2 -1</clus>
</clustering>
</event>
<event>
 6    0  0.4945982E+002  0.9011004E+02  0.7546771E-02  0.1302585E+00
         21   -1    0    0  505  502  0.00000000000E+00  0.00000000000E+00  0.34322687712E+03  0.34322687712E+03  0.00000000000E+00 0.  1.
          4   -1    0    0  504    0 -0.00000000000E+00 -0.00000000000E+00 -0.26699655948E+03  0.26699655948E+03  0.00000000000E+00 0.  1.
         21    1    1    2  503  502 -0.44465228812E+02  0.19596644148E+02  0.24964151617E+03  0.25432670255E+03  0.00000000000E+00 0.  1.
         21    1    1    2  504  503 -0.67166346569E+02 -0.41263477801E+02 -0.36980360024E+02  0.87072037642E+02  0.00000000000E+00 0.  1.
         21    1    1    2  505  501 -0.38343953358E+02  0.23373708761E+02  0.22558347484E+02  0.50254035277E+02  0.00000000000E+00 0.  1.
          4    1    1    2  501    0  0.14997552874E+03 -0.17068751076E+01 -0.15898918599E+03  0.21857066113E+03  0.00000000000E+00 0.  1.
<scales pt_clust_3="90.11004" pt_clust_4="80.56323" pt_clust_5="44.90645" pt_clust_6="14000.00000"></scales>
<clustering>
<clus scale="   44.906">  1  5  2 -1</clus>
<clus scale="   80.563">  2  4  1 -1</clus>
<clus scale="   90.110">  1  3  2 -1</clus>
<clus scale="   44.906">  1  3  2 -1</clus>
</clustering>
</event>
<event>
 6    0  0.4945982E+002  0.1123358E+03  0.7546771E-02  0.1256305E+00
          1   -1    0    0  503    0 -0.00000000000E+00  0.00000000000E+00  0.12152606320E+04  0.12152606320E+04  0.00000000000E+00 0. -1.
         21   -1    0    0  501  502  0.00000000000E+00 -0.00000000000E+00 -0.39866679381E+02  0.39866679381E+02  0.00000000000E+00 0.  1.
         21    1    1    2  503  504  0.48486128449E+02 -0.50316820031E+02  0.94630251196E+02  0.11763320735E+03  0.00000000000E+00 0.  1.
         21    1    1    2  504  505  0.31134951100E+02 -0.48825606216E+02  0.29923262913E+02  0.65182257292E+02  0.00000000000E+00 0.  1.
         21    1    1    2  505  502 -0.31861339605E+02  0.84608780586E+01  0.25022339292E+02  0.41386578532E+02  0.00000000000E+00 0.  1.
          1    1    1    2  501    0 -0.47759739944E+02  0.90681548189E+02  0.10258180992E+04  0.10309252682E+04  0.00000000000E+00 0. -1.
<scales pt_clust_3="36.57106" pt_clust_4="36.57106" pt_clust_5="32.96561" pt_clust_6="104.30793"></scales>
<clustering>
<clus scale="   32.966">  2  5  1 -1</clus>
<clus scale="   36.571">  3  4 -1 -1</clus>
<clus scale="  104.308">  1  6  2 -1</clus>
<clus scale="   32.966">  2  3  1 -1</clus>
</clustering>
</event>
<event>
 6    0  0.4945982E+002  0.1248225E+03  0.7546771E-02  0.1235347E+00
         -4   -1    0    0    0  501 -0.00000000000E+00  0.00000000000E+00  0.11841257673E+04  0.11841257673E+04  0.00000000000E+00 0. -1.
         21   -1    0    0  501  502  0.00000000000E+00 -0.00000000000E+00 -0.35050580937E+02  0.35050580937E+02  0.00000000000E+00 0.  1.
         21    1    1    2  503  502  0.30852015668E+02 -0.56849047708E+01  0.27580758170E+02  0.41771560113E+02  0.00000000000E+00 0.  1.
         21    1    1    2  504  505  0.14225217678E+02  0.10613915465E+03  0.60352760360E+03  0.61295468451E+03  0.00000000000E+00 0. -1.
         21    1    1    2  505  503 -0.80594613602E+02 -0.11546081525E+03  0.20254461797E+03  0.24667998271E+03  0.00000000000E+00 0.  1.
         -4    1    1    2    0  504  0.35517380257E+02  0.15006565373E+02  0.31542220661E+03  0.31777012088E+03  0.00000000000E+00 0. -1.
<scales pt_clust_3="31.37140" pt_clust_4="124.82249" pt_clust_5="14000.00000" pt_clust_6="39.66466"></scales>
<clustering>
<clus scale="   31.371">  2  3  1 -1</clus>
<clus scale="   39.665">  1  6  2 -1</clus>
<clus scale="  124.822">  1  4  2 -1</clus>
<clus scale="   31.371">  2  3  1 -1</clus>
</clustering>
</event>
<event>
 6    0  0.4945982E+002  0.6769115E+02  0.7546771E-02  0.1368125E+00
          1   -1    0    0  504    0 -0.00000000000E+00  0.00000000000E+00  0.94369243548E+02  0.94369243548E+02  0.00000000000E+00 0.  1.
         21   -1    0    0  503  502  0.00000000000E+00 -0.00000000000E+00 -0.19158106288E+04  0.19158106288E+04  0.00000000000E+00 0.  1.
         21    1    1    2  503  501  0.79263925371E+02  0.19149591279E+02 -0.19883997781E+02  0.83933605183E+02  0.00000000000E+00 0.  1.
         21    1    1    2  504  505 -0.41864143105E+02  0.67576064981E+02  0.26442999730E+02  0.83775672309E+02  0.00000000000E+00 0.  1.
         21    1    1    2  505  502 -0.95515265262E+01 -0.65403518336E+02 -0.17882004800E+04  0.17894216408E+04  0.00000000000E+00 0.  1.
          1    1    1    2  501    0 -0.27848255740E+02 -0.21322137924E+02 -0.39799907190E+02  0.53048954049E+02  0.00000000000E+00 0.  1.
<scales pt_clust_3="14000.00000" pt_clust_4="67.69115" pt_clust_5="66.27233" pt_clust_6="35.07362"></scales>
<clustering>
<clus scale="   35.074">  1  6  2 -1</clus>
<clus scale="   66.272">  2  5  1 -1</clus>
<clus scale="   67.691">  1  4  2 -1</clus>
<clus scale="   66.272">  2  3  1 -1</clus>
</clustering>
</event>
<event>
 6    0  0.4945982E+002  0.1134299E+03  0.7546771E-02  0.1254347E+00
          2   -1    0    0  505    0 -0.00000000000E+00  0.00000000000E+00  0.38608067972E+03  0.38608067972E+03  0.00000000000E+00 0. -1.
         21   -1    0    0  503  502  0.00000000000E+00 -0.00000000000E+00 -0.27907013859E+03  0.27907013859E+03  0.00000000000E+00 0. -1.
         21    1    1    2  503  501 -0.68776174465E+02  0.32460487445E+02  0.10310938107E+02  0.76747383433E+02  0.00000000000E+00 0. -1.
         21    1    1    2  504  502  0.10761557228E+02  0.44324218447E+02 -0.75069323450E+02  0.87839915632E+02  0.00000000000E+00 0. -1.
         21    1    1    2  505  504  0.43738714336E+02  0.28054749529E+02 -0.15163495021E+03  0.16029130428E+03  0.00000000000E+00 0. -1.
          2    1    1    2  501    0  0.14275902900E+02 -0.10483945542E+03  0.32340387669E+03  0.34027221496E+03  0.00000000000E+00 0. -1.
<scales pt_clust_3="76.05160" pt_clust_4="41.53409" pt_clust_5="41.53409" pt_clust_6="104.40813"></scales>
<clustering>
<clus scale="   41.534">  4  5 -1 -1</clus>
<clus scale="   76.052">  2  3  1 -1</clus>
<clus scale="  104.408">  1  6  2 -1</clus>
<clus scale="   76.052">  2  3  1 -1</clus>
</clustering>
</event>
<event>
 6    0  0.4945982E+002  0.1904351E+03  0.7546771E-02  0.1158070E+00
         21   -1    0    0  504  502  0.00000000000E+00  0.00000000000E+00  0.25317793482E+04  0.25317793482E+04  0.00000000000E+00 0.  1.
         -3   -1    0    0    0  501 -0.00000000000E+00 -0.00000000000E+00 -0.36298471679E+03  0.36298471679E+03  0.00000000000E+00 0. -1.
         21    1    1    2  503  502  0.37648066763E+02 -0.71062526904E+01  0.11335639756E+03  0.11965595943E+03  0.00000000000E+00 0.  1.
         21    1    1    2  504  505 -0.28825727702E+02  0.55976983787E+02  0.26320995910E+03  0.27063596927E+03  0.00000000000E+00 0.  1.
         21    1    1    2  505  501 -0.16786275326E+03  0.56300615213E+02  0.21188692750E+04  0.21262536696E+04  0.00000000000E+00 0.  1.
         -3    1    1    2    0  503  0.15904041420E+03 -0.10517134631E+03 -0.32664100027E+03  0.37821846662E+03  0.00000000000E+00 0. -1.
<scales pt_clust_3="38.31287" pt_clust_4="60.45232" pt_clust_5="190.43506" pt_clust_6="14000.00000"></scales>
<clustering>
<clus scale="   38.313">  1  3  2 -1</clus>
<clus scale="   60.452">  1  4  2 -1</clus>
<clus scale="  190.435">  1  5  2 -1</clus>
<clus scale="   38.313">  1  3  2 -1</clus>
</clustering>
</event>
<event>
 6    0  0.4945982E+002  0.1330253E+03  0.7546771E-02  0.1223035E+00
         21   -1    0    0  503  502  0.00000000000E+00  0.00000000000E+00  0.66103052601E+02  0.66103052601E+02  0.00000000000E+00 0. -1.
          2   -1    0    0  505    0 -0.00000000000E+00 -0.00000000000E+00 -0.94615349524E+03  0.94615349524E+03  0.00000000000E+00 0.  1.
         21    1    1    2  503  501 -0.57998077891E+02 -0.10262568715E+03 -0.20476595279E+03  0.23627294412E+03  0.00000000000E+00 0. -1.
         21    1    1    2  504  502  0.25816130906E+02  0.52797990408E+02 -0.16369674087E+02  0.61008742290E+02  0.00000000000E+00 0. -1.
         21    1    1    2  505  504  0.76479041033E+02  0.14289361859E+02 -0.29819311830E+02  0.83321191408E+02  0.00000000000E+00 0. -1.
          2    1    1    2  501    0 -0.44297094047E+02  0.35538334878E+02 -0.62909550393E+03  0.63165367002E+03  0.00000000000E+00 0.  1.
<scales pt_clust_3="118.16531" pt_clust_4="53.10043" pt_clust_5="53.10043" pt_clust_6="56.79090"></scales>
<clustering>
<clus scale="   53.100">  4  5 -1 -1</clus>
<clus scale="   56.791">  2  6  1 -1</clus>
<clus scale="  118.165">  2  3  1 -1</clus>
<clus scale="  133.025">  1  3  2 -1</clus>
</clustering>
</event>
<event>
 6    0  0.4945982E+002  0.1219035E+03  0.7546771E-02  0.1239990E+00
          2   -1    0    0  504    0 -0.00000000000E+00  0.00000000000E+00  0.34562334167E+03  0.34562334167E+03  0.00000000000E+00 0.  1.
         21   -1    0    0  505  502  0.00000000000E+00 -0.00000000000E+00 -0.16659603690E+04  0.16659603690E+04  0.00000000000E+00 0.  1.
         21    1    1    2  503  502  0.15332463543E+02 -0.27385628291E+02 -0.83357024560E+02  0.89069919831E+02  0.00000000000E+00 0.  1.
         21    1    1    2  504  503 -0.80007129457E+02 -0.84796541057E+02  0.71228648128E+02  0.13662032958E+03  0.00000000000E+00 0. -1.
         21    1    1    2  505  501  0.29781084328E+02 -0.12729055590E+02 -0.15292608036E+04  0.15296037223E+04  0.00000000000E+00 0.  1.
          2    1    1    2  501    0  0.34893581586E+02  0.12491122494E+03  0.22105215263E+03  0.25628973904E+03  0.00000000000E+00 0.  1.
<scales pt_clust_3="31.38562" pt_clust_4="121.90345" pt_clust_5="59.42542" pt_clust_6="14000.00000"></scales>
<clustering>
<clus scale="   31.386">  2  3  1 -1</clus>
<clus scale="   59.425">  2  5  1 -1</clus>
<clus scale="  121.903">  2  4  1 -1</clus>
<clus scale="   31.386">  2  3  1 -1</clus>
</clustering>
</event>
<event>
 6    0  0.4945982E+002  0.1439273E+03  0.7546771E-02  0.1208140E+00
          1   -1    0    0  502    0 -0.00000000000E+00  0.00000000000E+00  0.26466996983E+03  0.26466996983E+03  0.00000000000E+00 0.  1.
         21   -1    0    0  504  502  0.00000000000E+00 -0.00000000000E+00 -0.10429596579E+04  0.10429596579E+04  0.00000000000E+00 0.  1.
         21    1    1    2  503  501  0.26981552312E+02  0.14042097266E+03 -0.93452029957E+02  0.17081959967E+03  0.00000000000E+00 0.  1.
         21    1    1    2  504  505 -0.94053832890E+02 -0.94960051210E+02 -0.59533337550E+03  0.61015191779E+03  0.00000000000E+00 0.  1.
         21    1    1    2  505  503  0.14044154486E+03 -0.10882645181E+03 -0.26916161386E+03  0.32251356330E+03  0.00000000000E+00 0.  1.
          1    1    1    2  501    0 -0.73369264280E+02  0.63365530356E+02  0.17965733126E+03  0.20414454696E+03  0.00000000000E+00 0.  1.
<scales pt_clust_3="143.92728" pt_clust_4="134.68806" pt_clust_5="14000.00000" pt_clust_6="96.94452"></scales>
<clustering>
<clus scale="   96.945">  1  6  2 -1</clus>
<clus scale="  134.688">  2  4  1 -1</clus>
<clus scale="  143.927">  1  3  2 -1</clus>
<clus scale="  134.688">  2  3  1 -1</clus>
</clustering>
</event>
<event>
 6    0  0.4945982E+002  0.1119803E+03  0.7546771E-02  0.1256946E+00
          2   -1    0    0  504    0 -0.00000000000E+00  0.00000000000E+00  0.36018847789E+04  0.36018847789E+04  0.00000000000E+00 0.  1.
         21   -1    0    0  505  502  0.00000000000E+00 -0.00000000000E+00 -0.95817115145E+02  0.95817115145E+02  0.00000000000E+00 0. -1.
         21    1    1    2  503  502 -0.31196882900E+02  0.11095836027E+03 -0.57041320614E+02  0.12860293727E+03  0.00000000000E+00 0. -1.
         21    1    1    2  504  503 -0.87491078118E+01 -0.38462761911E+02  0.12422755441E+04  0.12429016287E+04  0.00000000000E+00 0.  1.
         21    1    1    2  505  501  0.52746753008E+01 -0.69213707483E+02  0.47594944238E+03  0.48098464758E+03  0.00000000000E+00 0.  1.
          2    1    1    2  501    0  0.34671315411E+02 -0.32818908783E+01  0.18448839978E+04  0.18452126805E+04  0.00000000000E+00 0.  1.
<scales pt_clust_3="14000.00000" pt_clust_4="43.72800" pt_clust_5="111.98031" pt_clust_6="34.82630"></scales>
<clustering>
<clus scale="   34.826">  1  6  2 -1</clus>
<clus scale="   43.728">  1  4  2 -1</clus>
<clus scale="  111.980">  1  5  2 -1</clus>
<clus scale="  111.980">  2  3  1 -1</clus>
</clustering>
</event>
<event>
 6    0  0.4945982E+002  0.1747983E+03  0.7546771E-02  0.1172934E+00
         21   -1    0    0  505  502  0.00000000000E+00  0.00000000000E+00  0.58625032000E+03  0.58625032000E+03  0.00000000000E+00 0.  1.
          1   -1    0    0  504    0 -0.00000000000E+00 -0.00000000000E+00 -0.36780042382E+03  0.36780042382E+03  0.00000000000E+00 0. -1.
         21    1    1    2  503  501  0.13072554223E+03 -0.64023509783E+02  0.43242454285E+03  0.45626654760E+03  0.00000000000E+00 0.  1.
         21    1    1    2  504  502  0.67730535579E+02  0.58020021076E+01  0.61806300861E+02  0.91875500023E+02  0.00000000000E+00 0.  1.
         21    1    1    2  505  503 -0.27221556984E+02  0.15475016182E+02  0.35955824062E+02  0.47679246790E+02  0.00000000000E+00 0.  1.
          1    1    1    2  501    0 -0.17123452082E+03  0.42746491493E+02 -0.31173677160E+03  0.35822944941E+03  0.00000000000E+00 0. -1.
<scales pt_clust_3="174.79826" pt_clust_4="64.38571" pt_clust_5="31.31277" pt_clust_6="14000.00000"></scales>
<clustering>
<clus scale="   31.313">  1  5  2 -1</clus>
<clus scale="   64.386">  1  4  2 -1</clus>
<clus scale="  174.798">  1  3  2 -1</clus>
<clus scale="   31.313">  1  3  2 -1</clus>
</clustering>
</event>
<event>
 6    0  0.4945982E+002  0.1252210E+03  0.7546771E-02  0.1234724E+00
         -1   -1    0    0    0  501 -0.00000000000E+00  0.00000000000E+00  0.90931688342E+02  0.90931688342E+02  0.00000000000E+00 0. -1.
         21   -1    0    0  505  502  0.00000000000E+00 -0.00000000000E+00 -0.15380359267E+04  0.15380359267E+04  0.00000000000E+00 0. -1.
         21    1    1    2  503  502 -0.40133264906E+00  0.10938294721E+03 -0.43913830775E+03  0.45255634295E+03  0.00000000000E+00 0. -1.
         21    1    1    2  504  503  0.96747683312E+02 -0.13821112311E+03 -0.56493199670E+03  0.58958509960E+03  0.00000000000E+00 0. -1.
         21    1    1    2  505  501 -0.52166938364E+02 -0.20121839561E+02 -0.49791012435E+03  0.50103968886E+03  0.00000000000E+00 0. -1.
         -1    1    1    2    0  504 -0.44179412298E+02  0.48950015460E+02  0.54876190482E+02  0.85786483588E+02  0.00000000000E+00 0. -1.
<scales pt_clust_3="125.22103" pt_clust_4="14000.00000" pt_clust_5="55.91313" pt_clust_6="66.24119"></scales>
<clustering>
<clus scale="   55.913">  2  5  1 -1</clus>
<clus scale="   66.241">  1  6  2 -1</clus>
<clus scale="  125.221">  2  3  1 -1</clus>
<clus scale="   55.913">  2  3  1 -1</clus>
</clustering>
</event>
<event>
 6    0  0.4945982E+002  0.8592499E+02  0.7546771E-02  0.1313031E+00
          2   -1    0    0  504    0 -0.00000000000E+00  0.00000000000E+00  0.13876321918E+03  0.13876321918E+03  0.00000000000E+00 0.  1.
         21   -1    0    0  503  502  0.00000000000E+00 -0.00000000000E+00 -0.49874124868E+03  0.49874124868E+03  0.00000000000E+00 0. -1.
         21    1    1    2  503  505 -0.10874200940E+02 -0.29119266927E+02 -0.27182818128E+03  0.27359959812E+03  0.00000000000E+00 0. -1.
         21    1    1    2  504  502  0.29828142615E+02  0.74026506351E+02 -0.34993870467E+02  0.87144780134E+02  0.00000000000E+00 0.  1.
         21    1    1    2  505  501  0.64404488097E+02 -0.67925749258E+02 -0.13059542362E+03  0.16067672566E+03  0.00000000000E+00 0. -1.
          2    1    1    2  501    0 -0.83358429772E+02  0.23018509834E+02  0.77439445862E+02  0.11608336394E+03  0.00000000000E+00 0.  1.
<scales pt_clust_3="31.08344" pt_clust_4="71.41482" pt_clust_5="85.92499" pt_clust_6="14000.00000"></scales>
<clustering>
<clus scale="   31.083">  2  3  1 -1</clus>
<clus scale="   71.415">  2  4  1 -1</clus>
<clus scale="   85.925">  2  5  1 -1</clus>
<clus scale="   31.083">  2  3  1 -1</clus>
</clustering>
</event>
<event>
 6    0  0.4945982E+002  0.9739576E+02  0.7546771E-02  0.1285870E+00
          1   -1    0    0  505    0 -0.00000000000E+00  0.00000000000E+00  0.35871354874E+03  0.35871354874E+03  0.00000000000E+00 0.  1.
         21   -1    0    0  503  502  0.00000000000E+00 -0.00000000000E+00 -0.10468504089E+03  0.10468504089E+03  0.00000000000E+00 0.  1.
         21    1    1    2  503  501 -0.29983241891E+02  0.75585168788E+02  0.39096778285E+02  0.90225664903E+02  0.00000000000E+00 0.  1.
         21    1    1    2  504  502 -0.83973621294E+01 -0.30669946018E+02 -0.12179818745E+02  0.34051567719E+02  0.00000000000E+00 0.  1.
         21    1    1    2  505  504  0.73475011075E+02 -0.95830779655E+02  0.19280965640E+02  0.12228602217E+03  0.00000000000E+00 0.  1.
          1    1    1    2  501    0 -0.35094407055E+02  0.50915556885E+02  0.20783058267E+03  0.21683533484E+03  0.00000000000E+00 0.  1.
<scales pt_clust_3="97.39576" pt_clust_4="31.79876" pt_clust_5="14000.00000" pt_clust_6="60.72262"></scales>
<clustering>
<clus scale="   31.799">  2  4  1 -1</clus>
<clus scale="   60.723">  1  6  2 -1</clus>
<clus scale="   97.396">  2  3  1 -1</clus>
<clus scale="   31.799">  2  3  1 -1</clus>
</clustering>
</event>
<event>
 6    0  0.4945982E+002  0.1620298E+03  0.7546771E-02  0.1186424E+00
          2   -1    0    0  505    0 -0.00000000000E+00  0.00000000000E+00  0.24157940936E+04  0.24157940936E+04  0.00000000000E+00 0.  1.
         21   -1    0    0  504  502  0.00000000000E+00 -0.00000000000E+00 -0.26248636165E+03  0.26248636165E+03  0.00000000000E+00 0.  1.
         21    1    1    2  503  501 -0.25619830789E+03  0.52718890070E+02  0.67188473916E+03  0.72100343762E+03  0.00000000000E+00 0.  1.
         21    1    1    2  504  503  0.48497078855E+02 -0.51633128220E+01 -0.22262810853E+03  0.22790765929E+03  0.00000000000E+00 0.  1.
         21    1    1    2  505  502  0.88509610425E+02  0.42689224446E+02  0.26604808909E+03  0.28361577306E+03  0.00000000000E+00 0.  1.
          2    1    1    2  501    0  0.11919161861E+03 -0.90244801694E+02  0.14380030122E+04  0.14457535853E+04  0.00000000000E+00 0.  1.
<scales pt_clust_3="162.02982" pt_clust_4="48.77116" pt_clust_5="108.21679" pt_clust_6="14000.00000"></scales>
<clustering>
<clus scale="   48.771">  2  4  1 -1</clus>
<clus scale="  108.217">  2  5  1 -1</clus>
<clus scale="  162.030">  2  3  1 -1</clus>
<clus scale="   48.771">  2  3  1 -1</clus>
</clustering>
</event>
<event>
 6    0  0.4945982E+002  0.1191243E+03  0.7546771E-02  0.1244549E+00
         21   -1    0    0  504  502  0.00000000000E+00  0.00000000000E+00  0.44079577841E+03  0.44079577841E+03  0.00000000000E+00 0. -1.
          2   -1    0    0  505    0 -0.00000000000E+00 -0.00000000000E+00 -0.54098226493E+03  0.54098226493E+03  0.00000000000E+00 0. -1.
         21    1    1    2  503  501  0.14340255380E+03 -0.63857225010E+02 -0.12151690899E+03  0.19851548250E+03  0.00000000000E+00 0. -1.
         21    1    1    2  504  503 -0.10341089137E+03  0.52215058307E+02  0.36604288610E+03  0.38393699904E+03  0.00000000000E+00 0. -1.
         21    1    1    2  505  502  0.30441744505E+02  0.36241780820E+02 -0.72011803369E+00  0.47335874931E+02  0.00000000000E+00 0. -1.
          2    1    1    2  501    0 -0.70433406934E+02 -0.24599614117E+02 -0.34399234560E+03  0.35198968687E+03  0.00000000000E+00 0. -1.
<scales pt_clust_3="14000.00000" pt_clust_4="119.12429" pt_clust_5="47.33040" pt_clust_6="74.21631"></scales>
<clustering>
<clus scale="   47.330">  1  5  2 -1</clus>
<clus scale="   74.216">  2  6  1 -1</clus>
<clus scale="  119.124">  1  4  2 -1</clus>
<clus scale="   47.330">  1  3  2 -1</clus>
</clustering>
</event>
<event>
 6    0  0.4945982E+002  0.9962133E+02  0.7546771E-02  0.1281094E+00
         -3   -1    0    0    0  501 -0.00000000000E+00  0.00000000000E+00  0.15108635294E+03  0.15108635294E+03  0.00000000000E+00 0. -1.
         21   -1    0    0  505  502  0.00000000000E+00 -0.00000000000E+00 -0.86901801341E+03  0.86901801341E+03  0.00000000000E+00 0.  1.
         21    1    1    2  503  504  0.79457787947E+01 -0.46482874532E+02 -0.39274574856E+03  0.39556670239E+03  0.00000000000E+00 0.  1.
         21    1    1    2  504  501 -0.23164298680E+02 -0.76407026444E+02 -0.37730268158E+03  0.38565779124E+03  0.00000000000E+00 0.  1.
         21    1    1    2  505  503 -0.42257958862E+01  0.36666805998E+02 -0.75269626761E+02  0.83832146136E+02  0.00000000000E+00 0.  1.
         -3    1    1    2    0  502  0.19444315771E+02  0.86223094978E+02  0.12738639642E+03  0.15504772658E+03  0.00000000000E+00 0. -1.
<scales pt_clust_3="34.40051" pt_clust_4="34.40051" pt_clust_5="36.90951" pt_clust_6="88.99897"></scales>
<clustering>
<clus scale="   34.401">  3  4 -1 -1</clus>
<clus scale="   36.910">  2  5  1 -1</clus>
<clus scale="   88.999">  1  6  2 -1</clus>
<clus scale="   36.910">  2  3  1 -1</clus>
</clustering>
</event>
<event>
 6    0  0.4945982E+002  0.9069994E+02  0.7546771E-02  0.1301165E+00
         21   -1    0    0  505  502  0.00000000000E+00  0.00000000000E+00  0.10114857502E+03  0.10114857502E+03  0.00000000000E+00 0. -1.
          2   -1    0    0  504    0 -0.00000000000E+00 -0.00000000000E+00 -0.35981979478E+04  0.35981979478E+04  0.00000000000E+00 0. -1.
         21    1    1    2  503  502  0.30315289709E+02 -0.54018802630E+01  0.92216097037E+02  0.97221425896E+02  0.00000000000E+00 0. -1.
         21    1    1    2  504  503  0.68965962037E+01  0.41099144675E+02 -0.23330777657E+03  0.23700046696E+03  0.00000000000E+00 0. -1.
         21    1    1    2  505  501 -0.12164929569E+03 -0.27628689387E+02 -0.10159554297E+04  0.10235855268E+04  0.00000000000E+00 0. -1.
          2    1    1    2  501    0  0.84437409776E+02 -0.80685750249E+01 -0.23400022636E+04  0.23415391032E+04  0.00000000000E+00 0. -1.
<scales pt_clust_3="30.79281" pt_clust_4="42.51419" pt_clust_5="90.69994" pt_clust_6="14000.00000"></scales>
<clustering>
<clus scale="   30.793">  1  3  2 -1</clus>
<clus scale="   42.514">  1  4  2 -1</clus>
<clus scale="   90.700">  1  5  2 -1</clus>
<clus scale="   30.793">  1  3  2 -1</clus>
</clustering>
</event>
<event>
 6    0  0.4945982E+002  0.1574611E+03  0.7546771E-02  0.1191593E+00
          2   -1    0    0  503    0 -0.00000000000E+00  0.00000000000E+00  0.97310709135E+03  0.97310709135E+03  0.00000000000E+00 0. -1.
         21   -1    0    0  504  502  0.00000000000E+00 -0.00000000000E+00 -0.25092828598E+03  0.25092828598E+03  0.00000000000E+00 0.  1.
         21    1    1    2  503  505  0.20283582302E+02  0.27903337937E+02  0.16787291251E+02  0.38364477406E+02  0.00000000000E+00 0.  1.
         21    1    1    2  504  501  0.10284287285E+03  0.22792860731E+02 -0.20508355296E+03  0.23055462410E+03  0.00000000000E+00 0.  1.
         21    1    1    2  505  502  0.30653086315E+02 -0.98278171890E+01  0.13995124404E+01  0.32220433367E+02  0.00000000000E+00 0.  1.
          2    1    1    2  501    0 -0.15377954147E+03 -0.40868381479E+02  0.90907555465E+03  0.92289584246E+03  0.00000000000E+00 0. -1.
<scales pt_clust_3="34.98619" pt_clust_4="157.46109" pt_clust_5="32.19002" pt_clust_6="14000.00000"></scales>
<clustering>
<clus scale="   32.190">  2  5  1 -1</clus>
<clus scale="   34.986">  2  3  1 -1</clus>
<clus scale="  157.461">  2  4  1 -1</clus>
<clus scale="   32.190">  2  3  1 -1</clus>
</clustering>
</event>
<event>
 6    0  0.4945982E+002  0.1995842E+03  0.7546771E-02  0.1150090E+00
         21   -1    0    0  503  502  0.00000000000E+00  0.00000000000E+00  0.67877711076E+03  0.67877711076E+03  0.00000000000E+00 0. -1.
          2   -1    0    0  505    0 -0.00000000000E+00 -0.00000000000E+00 -0.71600683170E+03  0.71600683170E+03  0.00000000000E+00 0. -1.
         21    1    1    2  503  504 -0.27778439719E+02  0.39594234592E+02  0.46852370211E+02  0.67338619829E+02  0.00000000000E+00 0. -1.
         21    1    1    2  504  501  0.51959432251E+02  0.13768165391E+03  0.12014901887E+03  0.18997843866E+03  0.00000000000E+00 0. -1.
         21    1    1    2  505  502  0.29949013171E+02 -0.18475283578E+03  0.44665853148E+03  0.48428751529E+03  0.00000000000E+00 0. -1.
          2    1    1    2  501    0 -0.54130005704E+02  0.74769472814E+01 -0.65088964149E+03  0.65317936867E+03  0.00000000000E+00 0. -1.
<scales pt_clust_3="45.54419" pt_clust_4="45.54419" pt_clust_5="183.09211" pt_clust_6="54.64396"></scales>
<clustering>
<clus scale="   45.544">  3  4 -1 -1</clus>
<clus scale="   54.644">  2  6  1 -1</clus>
<clus scale="  183.092">  1  5  2 -1</clus>
<clus scale="  183.092">  1  3  2 -1</clus>
</clustering>
</event>
<event>
 6    0  0.4945982E+002  0.8609102E+02  0.7546771E-02  0.1312604E+00
         -4   -1    0    0    0  501 -0.00000000000E+00  0.00000000000E+00  0.10086610404E+04  0.10086610404E+04  0.00000000000E+00 0.  1.
         21   -1    0    0  505  502  0.00000000000E+00 -0.00000000000E+00 -0.12099782937E+03  0.12099782937E+03  0.00000000000E+00 0. -1.
         21    1    1    2  503  502 -0.58219561008E+02 -0.86531035288E+02 -0.27998942880E+02  0.10798647209E+03  0.00000000000E+00 0. -1.
         21    1    1    2  504  501  0.52671895167E+02  0.43982168886E+02  0.14882127615E+02  0.70215649557E+02  0.00000000000E+00 0. -1.
         21    1    1    2  505  504 -0.42567879644E+02  0.11140021137E+02 -0.46127138502E+01  0.44242531318E+02  0.00000000000E+00 0. -1.
         -4    1    1    2    0  503  0.48115545485E+02  0.31408845264E+02  0.90539274015E+03  0.90721421681E+03  0.00000000000E+00 0.  1.
<scales pt_clust_3="14000.00000" pt_clust_4="86.09102" pt_clust_5="44.00141" pt_clust_6="57.18182"></scales>
<clustering>
<clus scale="   44.001">  2  5  1 -1</clus>
<clus scale="   57.182">  1  6  2 -1</clus>
<clus scale="   86.091">  2  4  1 -1</clus>
<clus scale="   44.001">  2  3  1 -1</clus>
</clustering>
</event>
<event>
 6    0  0.4945982E+002  0.8692627E+02  0.7546771E-02  0.1310471E+00
          2   -1    0    0  505    0 -0.00000000000E+00  0.00000000000E+00  0.11666594577E+04  0.11666594577E+04  0.00000000000E+00 0. -1.
         21   -1    0    0  503  502  0.00000000000E+00 -0.00000000000E+00 -0.15899471955E+03  0.15899471955E+03  0.00000000000E+00 0.  1.
         21    1    1    2  503  504 -0.35131314965E+02 -0.16770962014E+02 -0.12760665152E+03  0.13341263797E+03  0.00000000000E+00 0.  1.
         21    1    1    2  504  501 -0.51178033200E+02  0.10249394151E+03  0.14002535343E+03  0.18091793369E+03  0.00000000000E+00 0.  1.
         21    1    1    2  505  502  0.36358024905E+02 -0.17583403966E+02  0.60344611094E+02  0.72612355409E+02  0.00000000000E+00 0. -1.
          2    1    1    2  501    0  0.49951323260E+02 -0.68139575535E+02  0.93490142517E+03  0.93871125020E+03  0.00000000000E+00 0. -1.
<scales pt_clust_3="38.92910" pt_clust_4="86.92627" pt_clust_5="35.75269" pt_clust_6="14000.00000"></scales>
<clustering>
<clus scale="   38.929">  2  3  1 -1</clus>
<clus scale="   35.753">  2  5  1 -1</clus>
<clus scale="   86.926">  2  4  1 -1</clus>
<clus scale="   38.929">  2  3  1 -1</clus>
</clustering>
</event>
<event>
 6    0  0.4945982E+002  0.8368736E+02  0.7546771E-02  0.1318901E+00
         21   -1    0    0  505  502  0.00000000000E+00  0.00000000000E+00  0.14948417355E+03  0.14948417355E+03  0.00000000000E+00 0. -1.
          2   -1    0    0  503    0 -0.00000000000E+00 -0.00000000000E+00 -0.24312056098E+03  0.24312056098E+03  0.00000000000E+00 0. -1.
         21    1    1    2  503  502  0.29107936852E+02  0.87796340826E+02 -0.32330273172E+02  0.97983243535E+02  0.00000000000E+00 0. -1.
         21    1    1    2  504  501 -0.71451269965E+02 -0.70254000749E+02  0.15450467419E+02  0.10138848822E+03  0.00000000000E+00 0.  1.
         21    1    1    2  505  504  0.75146515748E+02  0.31274942486E+01  0.28987910962E+02  0.80604460368E+02  0.00000000000E+00 0. -1.
          2    1    1    2  501    0 -0.32803182634E+02 -0.20669834325E+02 -0.10574449263E+03  0.11262854240E+03  0.00000000000E+00 0. -1.
<scales pt_clust_3="14000.00000" pt_clust_4="83.68736" pt_clust_5="68.83086" pt_clust_6="38.77229"></scales>
<clustering>
<clus scale="   38.772">  2  6  1 -1</clus>
<clus scale="   68.831">  1  5  2 -1</clus>
<clus scale="   83.687">  1  4  2 -1</clus>
<clus scale="   68.831">  1  3  2 -1</clus>
</clustering>
</event>
<event>
 6    0  0.4945982E+002  0.1359419E+03  0.7546771E-02  0.1218896E+00
          2   -1    0    0  505    0 -0.00000000000E+00  0.00000000000E+00  0.17076011588E+04  0.17076011588E+04  0.00000000000E+00 0. -1.
         21   -1    0    0  504  502  0.00000000000E+00 -0.00000000000E+00 -0.10752663681E+03  0.10752663681E+03  0.00000000000E+00 0. -1.
         21    1    1    2  503  501 -0.51418858802E+02 -0.12197642871E+03  0.17745006096E+03  0.22138354125E+03  0.00000000000E+00 0.  1.
         21    1    1    2  504  503 -0.63593282367E+02 -0.23679530082E+02  0.56394068299E+02  0.88233308033E+02  0.00000000000E+00 0. -1.
         21    1    1    2  505  502  0.25799352452E+02  0.90465938173E+02 -0.34989907292E+02  0.10036924912E+03  0.00000000000E+00 0. -1.
          2    1    1    2  501    0  0.89212788717E+02  0.55190020622E+02  0.14012203001E+04  0.14051416972E+04  0.00000000000E+00 0. -1.
<scales pt_clust_3="58.76377" pt_clust_4="58.76377" pt_clust_5="94.07280" pt_clust_6="108.37039"></scales>
<clustering>
<clus scale="   58.764">  3  4 -1 -1</clus>
<clus scale="   94.073">  2  5  1 -1</clus>
<clus scale="  108.370">  1  6  2 -1</clus>
<clus scale="   94.073">  2  3  1 -1</clus>
</clustering>
</event>
<event>
 6    0  0.4945982E+002  0.1137771E+03  0.7546771E-02  0.1253731E+00
          2   -1    0    0  504    0 -0.00000000000E+00  0.00000000000E+00  0.71087139089E+03  0.71087139089E+03  0.00000000000E+00 0.  1.
         21   -1    0    0  503  502  0.00000000000E+00 -0.00000000000E+00 -0.77284543575E+02  0.77284543575E+02  0.00000000000E+00 0.  1.
         21    1    1    2  503  501 -0.40051580350E+02 -0.15481915550E+02  0.13005320712E+02  0.44865991178E+02  0.00000000000E+00 0. -1.
         21    1    1    2  504  505 -0.84579121383E+01 -0.37792723168E+02 -0.71382890710E+01  0.39379961567E+02  0.00000000000E+00 0.  1.
         21    1    1    2  505  502  0.35270931137E+02 -0.54080449284E+02 -0.23638194358E+01  0.64608987148E+02  0.00000000000E+00 0.  1.
          2    1    1    2  501    0  0.13238561351E+02  0.10735508800E+03  0.63008363511E+03  0.63930099457E+03  0.00000000000E+00 0.  1.
<scales pt_clust_3="42.93971" pt_clust_4="30.62661" pt_clust_5="30.62661" pt_clust_6="106.68377"></scales>
<clustering>
<clus scale="   30.627">  4  5 -1 -1</clus>
<clus scale="   42.940">  2  3  1 -1</clus>
<clus scale="  106.684">  1  6  2 -1</clus>
<clus scale="   42.940">  2  3  1 -1</clus>
</clustering>
</event>
<event>
 6    0  0.4945982E+002  0.7528653E+02  0.7546771E-02  0.1342986E+00
          2   -1    0    0  504    0 -0.00000000000E+00  0.00000000000E+00  0.31856589475E+04  0.31856589475E+04  0.00000000000E+00 0. -1.
         21   -1    0    0  503  502  0.00000000000E+00 -0.00000000000E+00 -0.12123601220E+02  0.12123601220E+02  0.00000000000E+00 0. -1.
         21    1    1    2  503  501  0.21388296057E+02  0.81294300603E+02  0.24402851031E+03  0.25810101969E+03  0.00000000000E+00 0. -1.
         21    1    1    2  504  505  0.33493479196E+02 -0.51975539344E+02  0.16980126950E+04  0.16991381292E+04  0.00000000000E+00 0. -1.
         21    1    1    2  505  502  0.22247007568E+02 -0.61847942954E+02  0.51600803981E+03  0.52017727223E+03  0.00000000000E+00 0.  1.
          2    1    1    2  501    0 -0.77128782821E+02  0.32529181695E+02  0.71548610119E+03  0.72036612760E+03  0.00000000000E+00 0. -1.
<scales pt_clust_3="75.28653" pt_clust_4="61.83260" pt_clust_5="14000.00000" pt_clust_6="61.41093"></scales>
<clustering>
<clus scale="   61.833">  1  4  2 -1</clus>
<clus scale="   61.411">  1  6  2 -1</clus>
<clus scale="   75.287">  2  3  1 -1</clus>
<clus scale="   75.287">  2  3  1 -1</clus>
</clustering>
</event>
<event>
 6    0  0.4945982E+002  0.1651707E+03  0.7546771E-02  0.1182980E+00
          2   -1    0    0  504    0 -0.00000000000E+00  0.00000000000E+00  0.14466947862E+03  0.14466947862E+03  0.00000000000E+00 0. -1.
         21   -1    0    0  503  502  0.00000000000E+00 -0.00000000000E+00 -0.51963908319E+03  0.51963908319E+03  0.00000000000E+00 0.  1.
         21    1    1    2  503  505 -0.11576957553E+03  0.11168251824E+03 -0.24285858097E+03  0.29130030870E+03  0.00000000000E+00 0.  1.
         21    1    1    2  504  502  0.26375817061E+02  0.54138267388E+02 -0.10394671528E+03  0.12013140863E+03  0.00000000000E+00 0.  1.
         21    1    1    2  505  501  0.89985801862E+02 -0.13163184312E+03 -0.89354820410E+02  0.18278038897E+03  0.00000000000E+00 0.  1.
          2    1    1    2  501    0 -0.59204339713E+00 -0.34188942512E+02  0.61190512095E+02  0.70096455516E+02  0.00000000000E+00 0. -1.
<scales pt_clust_3="165.17071" pt_clust_4="57.06684" pt_clust_5="14000.00000" pt_clust_6="34.19407"></scales>
<clustering>
<clus scale="   34.194">  1  6  2 -1</clus>
<clus scale="   57.067">  2  4  1 -1</clus>
<clus scale="  165.171">  2  3  1 -1</clus>
<clus scale="   57.067">  2  3  1 -1</clus>
</clustering>
</event>
<event>
 6    0  0.4945982E+002  0.2831678E+03  0.7546771E-02  0.1093971E+00
         21   -1    0    0  504  502  0.00000000000E+00  0.00000000000E+00  0.14285835048E+04  0.14285835048E+04  0.00000000000E+00 0.  1.
          1   -1    0    0  505    0 -0.00000000000E+00 -0.00000000000E+00 -0.53905239278E+03  0.53905239278E+03  0.00000000000E+00 0. -1.
         21    1    1    2  503  501  0.95456595275E+02 -0.65325577015E+01  0.16616021495E+02  0.97111935734E+02  0.00000000000E+00 0.  1.
         21    1    1    2  504  503  0.40240422656E+02 -0.28081621363E+03  0.12812433870E+04  0.13122734677E+04  0.00000000000E+00 0.  1.
         21    1    1    2  505  502 -0.80895241090E+02  0.26516444636E+03 -0.20039011250E+03  0.34207078337E+03  0.00000000000E+00 0. -1.
          1    1    1    2  501    0 -0.54801776842E+02  0.22184324973E+02 -0.20793818391E+03  0.21617971077E+03  0.00000000000E+00 0. -1.
<scales pt_clust_3="88.79276" pt_clust_4="283.16779" pt_clust_5="14000.00000" pt_clust_6="59.12173"></scales>
<clustering>
<clus scale="   59.122">  2  6  1 -1</clus>
<clus scale="   88.793">  2  3  1 -1</clus>
<clus scale="  283.168">  1  4  2 -1</clus>
<clus scale="  283.168">  1  3  2 -1</clus>
</clustering>
</event>
<event>
 6    0  0.4945982E+002  0.1097530E+03  0.7546771E-02  0.1261028E+00
         21   -1    0    0  505  502  0.00000000000E+00  0.00000000000E+00  0.27156107626E+03  0.27156107626E+03  0.00000000000E+00 0.  1.
          3   -1    0    0  503    0 -0.00000000000E+00 -0.00000000000E+00 -0.20489477295E+03  0.20489477295E+03  0.00000000000E+00 0.  1.
         21    1    1    2  503  502 -0.90665865185E+02  0.47621869292E+01  0.18808739392E+03  0.20885364561E+03  0.00000000000E+00 0.  1.
         21    1    1    2  504  501  0.18057419213E+02  0.34918479089E+02  0.19644268371E+02  0.43946192672E+02  0.00000000000E+00 0.  1.
         21    1    1    2  505  504 -0.30951246225E+02  0.27900880835E+01  0.12611081402E+02  0.33538091904E+02  0.00000000000E+00 0. -1.
          3    1    1    2  501    0  0.10355969220E+03 -0.42470754102E+02 -0.15367644038E+03  0.19011791901E+03  0.00000000000E+00 0.  1.
<scales pt_clust_3="14000.00000" pt_clust_4="37.98798" pt_clust_5="31.07675" pt_clust_6="109.75298"></scales>
<clustering>
<clus scale="   31.077">  1  5  2 -1</clus>
<clus scale="   37.988">  1  4  2 -1</clus>
<clus scale="  109.753">  2  6  1 -1</clus>
<clus scale="   31.077">  1  3  2 -1</clus>
</clustering>
</event>
<event>
 6    0  0.4945982E+002  0.8545052E+02  0.7546771E-02  0.1314259E+00
          1   -1    0    0  504    0 -0.00000000000E+00  0.00000000000E+00  0.34072775287E+03  0.34072775287E+03  0.00000000000E+00 0.  1.
         21   -1    0    0  503  502  0.00000000000E+00 -0.00000000000E+00 -0.37828677256E+03  0.37828677256E+03  0.00000000000E+00 0.  1.
         21    1    1    2  503  501  0.75669851233E+02 -0.90021425600E+02 -0.27354217375E+03  0.29775007015E+03  0.00000000000E+00 0.  1.
         21    1    1    2  504  505 -0.42758911147E+02  0.11514649696E+02  0.10738199347E+02  0.45565563371E+02  0.00000000000E+00 0.  1.
         21    1    1    2  505  502 -0.32334993429E+02  0.46696972155E+02 -0.63505851787E+02  0.85200658564E+02  0.00000000000E+00 0.  1.
          1    1    1    2  501    0 -0.57594665688E+00  0.31809803749E+02  0.28875080649E+03  0.29049823335E+03  0.00000000000E+00 0.  1.
<scales pt_clust_3="14000.00000" pt_clust_4="51.94969" pt_clust_5="85.45052" pt_clust_6="31.81502"></scales>
<clustering>
<clus scale="   31.815">  1  6  2 -1</clus>
<clus scale="   51.950">  1  4  2 -1</clus>
<clus scale="   85.451">  2  5  1 -1</clus>
<clus scale="   85.451">  2  3  1 -1</clus>
</clustering>
</event>
<event>
 6    0  0.4945982E+002  0.1777814E+03  0.7546771E-02  0.1169968E+00
         21   -1    0    0  505  502  0.00000000000E+00  0.00000000000E+00  0.70608472702E+03  0.70608472702E+03  0.00000000000E+00 0.  1.
          2   -1    0    0  503    0 -0.00000000000E+00 -0.00000000000E+00 -0.12494674080E+04  0.12494674080E+04  0.00000000000E+00 0.  1.
         21    1    1    2  503  502 -0.22628010682E+02  0.31625059713E+02  0.59558704730E+03  0.59685517689E+03  0.00000000000E+00 0.  1.
         21    1    1    2  504  501  0.61450064263E+02  0.23519535800E+02 -0.18241127209E+02  0.68278969559E+02  0.00000000000E+00 0.  1.
         21    1    1    2  505  504  0.49590330778E+02  0.76437253864E+02  0.53417512449E+02  0.10561858417E+03  0.00000000000E+00 0.  1.
          2    1    1    2  501    0 -0.88412384359E+02 -0.13158184938E+03 -0.11741461135E+04  0.11847994044E+04  0.00000000000E+00 0.  1.
<scales pt_clust_3="38.88665" pt_clust_4="63.96534" pt_clust_5="63.96534" pt_clust_6="157.87517"></scales>
<clustering>
<clus scale="   38.887">  1  3  2 -1</clus>
<clus scale="   63.965">  4  5 -1 -1</clus>
<clus scale="  157.875">  2  6  1 -1</clus>
<clus scale="   38.887">  1  3  2 -1</clus>
</clustering>
</event>
<event>
 6    0  0.4945982E+002  0.1643931E+03  0.7546771E-02  0.1183824E+00
         21   -1    0    0  503  502  0.00000000000E+00  0.00000000000E+00  0.11938536249E+03  0.11938536249E+03  0.00000000000E+00 0.  1.
         -3   -1    0    0    0  501 -0.00000000000E+00 -0.00000000000E+00 -0.14312698675E+04  0.14312698675E+04  0.00000000000E+00 0.  1.
         21    1    1    2  503  504 -0.15927515729E+03  0.43873200254E+02 -0.23236682408E+03  0.28511010919E+03  0.00000000000E+00 0.  1.
         21    1    1    2  504  501 -0.33047543466E+02  0.32419673422E+02 -0.16693785884E+03  0.17323805606E+03  0.00000000000E+00 0.  1.
         21    1    1    2  505  502  0.13690892409E+03 -0.94365715821E+02  0.11231707964E+02  0.16665861239E+03  0.00000000000E+00 0.  1.
         -3    1    1    2    0  505  0.55413776665E+02  0.18072842145E+02 -0.92381153004E+03  0.92564845233E+03  0.00000000000E+00 0.  1.
<scales pt_clust_3="14000.00000" pt_clust_4="46.29444" pt_clust_5="164.39315" pt_clust_6="52.18475"></scales>
<clustering>
<clus scale="   46.294">  2  4  1 -1</clus>
<clus scale="   52.185">  2  6  1 -1</clus>
<clus scale="  164.393">  1  5  2 -1</clus>
<clus scale="  164.393">  1  3  2 -1</clus>
</clustering>
</event>
<event>
 6    0  0.4945982E+002  0.1002851E+03  0.7546771E-02  0.1279697E+00
          2   -1    0    0  503    0 -0.00000000000E+00  0.00000000000E+00  0.75424421854E+03  0.75424421854E+03  0.00000000000E+00 0.  1.
         21   -1    0    0  501  502  0.00000000000E+00 -0.00000000000E+00 -0.12768124422E+03  0.12768124422E+03  0.00000000000E+00 0. -1.
         21    1    1    2  503  505  0.45035408992E+02  0.24066198362E+02  0.31968153409E+02  0.60243944086E+02  0.00000000000E+00 0.  1.
         21    1    1    2  504  502 -0.42703190592E+01 -0.51325056653E+02 -0.66101205835E+02  0.83796577962E+02  0.00000000000E+00 0. -1.
         21    1    1    2  505  504  0.28237110936E+02  0.72513276360E+02  0.60426727120E+01  0.78051416234E+02  0.00000000000E+00 0.  1.
          2    1    1    2  501    0 -0.69002200869E+02 -0.45254418069E+02  0.65465335403E+03  0.65983352448E+03  0.00000000000E+00 0.  1.
<scales pt_clust_3="44.25233" pt_clust_4="51.50240" pt_clust_5="44.25233" pt_clust_6="84.09983"></scales>
<clustering>
<clus scale="   44.252">  3  5 -1 -1</clus>
<clus scale="   51.502">  2  4  1 -1</clus>
<clus scale="   84.100">  1  6  2 -1</clus>
<clus scale="   51.502">  2  3  1 -1</clus>
</clustering>
</event>
<event>
 6    0  0.4945982E+002  0.7350604E+02  0.7546771E-02  0.1348561E+00
         21   -1    0    0  505  502  0.00000000000E+00  0.00000000000E+00  0.15082311892E+04  0.15082311892E+04  0.00000000000E+00 0. -1.
          3   -1    0    0  504    0 -0.00000000000E+00 -0.00000000000E+00 -0.22872497645E+03  0.22872497645E+03  0.00000000000E+00 0.  1.
         21    1    1    2  503  502  0.34243179419E+02 -0.66921102538E+02  0.12961943749E+04  0.12983723991E+04  0.00000000000E+00 0. -1.
         21    1    1    2  504  503  0.26459812072E+02  0.38615268351E+02  0.82217059774E+02  0.94609225357E+02  0.00000000000E+00 0.  1.
         21    1    1    2  505  501 -0.91430820685E+02  0.30573924198E+01  0.10324822658E+03  0.13794614497E+03  0.00000000000E+00 0. -1.
          3    1    1    2  501    0  0.30727829194E+02  0.25248441767E+02 -0.20215344850E+03  0.20602839620E+03  0.00000000000E+00 0.  1.
<scales pt_clust_3="14000.00000" pt_clust_4="56.48711" pt_clust_5="73.50604" pt_clust_6="39.77038"></scales>
<clustering>
<clus scale="   39.770">  2  6  1 -1</clus>
<clus scale="   56.487">  2  4  1 -1</clus>
<clus scale="   73.506">  2  5  1 -1</clus>
<clus scale="   73.506">  1  3  2 -1</clus>
</clustering>
</event>
<event>
 6    0  0.4945982E+002  0.1672862E+03  0.7546771E-02  0.1180708E+00
          1   -1    0    0  504    0 -0.00000000000E+00  0.00000000000E+00  0.11600329194E+04  0.11600329194E+04  0.00000000000E+00 0.  1.
         21   -1    0    0  503  502  0.00000000000E+00 -0.00000000000E+00 -0.30625306940E+03  0.30625306940E+03  0.00000000000E+00 0. -1.
         21    1    1    2  503  501  0.59166578280E+02 -0.71527547039E+02  0.12703036594E+03  0.15733272972E+03  0.00000000000E+00 0. -1.
         21    1    1    2  504  505 -0.31606145156E+02 -0.13829760507E+03  0.58358826734E+03  0.60058341782E+03  0.00000000000E+00 0. -1.
         21    1    1    2  505  502 -0.46900370027E+02  0.16248356999E+03 -0.25552311879E+03  0.30641902595E+03  0.00000000000E+00 0. -1.
          1    1    1    2  501    0  0.19339936904E+02  0.47341582118E+02  0.39868433552E+03  0.40195081533E+03  0.00000000000E+00 0.  1.
<scales pt_clust_3="88.70912" pt_clust_4="14000.00000" pt_clust_5="167.28618" pt_clust_6="51.13960"></scales>
<clustering>
<clus scale="   51.140">  1  6  2 -1</clus>
<clus scale="   88.709">  1  3  2 -1</clus>
<clus scale="  167.286">  2  5  1 -1</clus>
<clus scale="  167.286">  2  3  1 -1</clus>
</clustering>
</event>
<event>
 6    0  0.4945982E+002  0.1139535E+03  0.7546771E-02  0.1253419E+00
         21   -1    0    0  505  502  0.00000000000E+00  0.00000000000E+00  0.62777578177E+02  0.62777578177E+02  0.00000000000E+00 0. -1.
          1   -1    0    0  503    0 -0.00000000000E+00 -0.00000000000E+00 -0.23127004294E+04  0.23127004294E+04  0.00000000000E+00 0. -1.
         21    1    1    2  503  504  0.21306900452E+02  0.11970481209E+03 -0.64630079838E+02  0.13769630810E+03  0.00000000000E+00 0. -1.
         21    1    1    2  504  502  0.24092325046E+02  0.31293098879E+02 -0.75880838145E+02  0.85542970262E+02  0.00000000000E+00 0.  1.
         21    1    1    2  505  501  0.86372176643E+00 -0.47052577998E+02 -0.79839182431E+01  0.47732945249E+02  0.00000000000E+00 0. -1.
          1    1    1    2  501    0 -0.46262947264E+02 -0.10394533297E+03 -0.21014280150E+04  0.21045057840E+04  0.00000000000E+00 0. -1.
<scales pt_clust_3="14000.00000" pt_clust_4="39.49301" pt_clust_5="37.44888" pt_clust_6="113.95354"></scales>
<clustering>
<clus scale="   39.493">  1  4  2 -1</clus>
<clus scale="   37.449">  1  5  2 -1</clus>
<clus scale="  113.954">  2  6  1 -1</clus>
<clus scale="   39.493">  1  3  2 -1</clus>
</clustering>
</event>
<event>
 6    0  0.4945982E+002  0.1205258E+03  0.7546771E-02  0.1242232E+00
          2   -1    0    0  505    0 -0.00000000000E+00  0.00000000000E+00  0.30581722891E+04  0.30581722891E+04  0.00000000000E+00 0. -1.
         21   -1    0    0  504  502  0.00000000000E+00 -0.00000000000E+00 -0.56607501418E+02  0.56607501418E+02  0.00000000000E+00 0.  1.
         21    1    1    2  503  501 -0.87444225501E+02 -0.46837964982E+02  0.10893301112E+03  0.14733189895E+03  0.00000000000E+00 0. -1.
         21    1    1    2  504  503  0.39895808855E+02 -0.24420810324E+02 -0.14821211858E+02  0.49068522110E+02  0.00000000000E+00 0.  1.
         21    1    1    2  505  502 -0.20559480448E+01 -0.41796468471E+02  0.10253469127E+03  0.11074535933E+03  0.00000000000E+00 0. -1.
          2    1    1    2  501    0  0.49604364691E+02  0.11305524378E+03  0.28049182972E+04  0.28076340101E+04  0.00000000000E+00 0. -1.
<scales pt_clust_3="14000.00000" pt_clust_4="63.07637" pt_clust_5="41.84700" pt_clust_6="120.52576"></scales>
<clustering>
<clus scale="   41.847">  2  5  1 -1</clus>
<clus scale="   63.076">  2  4  1 -1</clus>
<clus scale="  120.526">  1  6  2 -1</clus>
<clus scale="   41.847">  2  3  1 -1</clus>
</clustering>
</event>
<event>
 6    0  0.4945982E+002  0.1052145E+03  0.7546771E-02  0.1269698E+00
         21   -1    0    0  503  502  0.00000000000E+00  0.00000000000E+00  0.45143028752E+02  0.45143028752E+02  0.00000000000E+00 0.  1.
          2   -1    0    0  505    0 -0.00000000000E+00 -0.00000000000E+00 -0.22822129709E+04  0.22822129709E+04  0.00000000000E+00 0.  1.
         21    1    1    2  503  501 -0.34412960734E+02 -0.77845860026E+02 -0.16974557743E+03  0.18988889079E+03  0.00000000000E+00 0.  1.
         21    1    1    2  504  502  0.30745717145E+02  0.10634524201E+02 -0.10537058899E+02  0.34196810348E+02  0.00000000000E+00 0.  1.
         21    1    1    2  505  504  0.48511542064E+02  0.11843964046E+03 -0.15832750335E+03  0.20359006966E+03  0.00000000000E+00 0.  1.
          2    1    1    2  501    0 -0.44844298476E+02 -0.51228304637E+02 -0.18984598025E+04  0.18996802289E+04  0.00000000000E+00 0.  1.
<scales pt_clust_3="14000.00000" pt_clust_4="32.53294" pt_clust_5="105.21453" pt_clust_6="67.56653"></scales>
<clustering>
<clus scale="   32.533">  1  4  2 -1</clus>
<clus scale="   67.567">  2  6  1 -1</clus>
<clus scale="  105.215">  2  5  1 -1</clus>
<clus scale="   32.533">  1  3  2 -1</clus>
</clustering>
</event>
<event>
 6    0  0.4945982E+002  0.1762617E+03  0.7546771E-02  0.1171471E+00
          1   -1    0    0  503    0 -0.00000000000E+00  0.00000000000E+00  0.19430130177E+04  0.19430130177E+04  0.00000000000E+00 0.  1.
         21   -1    0    0  504  502  0.00000000000E+00 -0.00000000000E+00 -0.27903063790E+03  0.27903063790E+03  0.00000000000E+00 0.  1.
         21    1    1    2  503  505  0.41794124840E+02  0.39538440967E+02  0.17759637822E+03  0.18668291497E+03  0.00000000000E+00 0. -1.
         21    1    1    2  504  501 -0.22719076247E+03 -0.20995746796E+02  0.60775801165E+03  0.64917352431E+03  0.00000000000E+00 0. -1.
         21    1    1    2  505  502  0.17226472820E+03  0.23115237423E+02 -0.22353669128E+03  0.28315738226E+03  0.00000000000E+00 0.  1.
          1    1    1    2  501    0  0.13131909439E+02 -0.41657931594E+02  0.11021646812E+04  0.11030298341E+04  0.00000000000E+00 0.  1.
<scales pt_clust_3="54.07041" pt_clust_4="176.26167" pt_clust_5="14000.00000" pt_clust_6="43.67872"></scales>
<clustering>
<clus scale="   43.679">  1  6  2 -1</clus>
<clus scale="   54.070">  1  3  2 -1</clus>
<clus scale="  176.262">  1  4  2 -1</clus>
<clus scale="  176.262">  2  3  1 -1</clus>
</clustering>
</event>
<event>
 6    0  0.4945982E+002  0.1603851E+03  0.7546771E-02  0.1188263E+00
         21   -1    0    0  501  502  0.00000000000E+00  0.00000000000E+00  0.12601604774E+04  0.12601604774E+04  0.00000000000E+00 0. -1.
          3   -1    0    0  503    0 -0.00000000000E+00 -0.00000000000E+00 -0.23551537311E+03  0.23551537311E+03  0.00000000000E+00 0. -1.
         21    1    1    2  503  504  0.10398649917E+03  0.12666344428E+03  0.59018119323E+02  0.17418369194E+03  0.00000000000E+00 0.  1.
         21    1    1    2  504  505 -0.13518381346E+03 -0.27531227019E+02  0.54027719395E+03  0.55761283897E+03  0.00000000000E+00 0. -1.
         21    1    1    2  505  502 -0.41936569509E+02  0.44436405403E+01  0.56998116495E+03  0.57153910645E+03  0.00000000000E+00 0. -1.
          3    1    1    2  501    0  0.73133883799E+02 -0.10357585781E+03 -0.14463137391E+03  0.19234021316E+03  0.00000000000E+00 0. -1.
<scales pt_clust_3="14000.00000" pt_clust_4="160.38511" pt_clust_5="42.17134" pt_clust_6="125.83543"></scales>
<clustering>
<clus scale="   42.171">  1  5  2 -1</clus>
<clus scale="  125.835">  2  6  1 -1</clus>
<clus scale="  160.385">  1  4  2 -1</clus>
<clus scale="   42.171">  1  3  2 -1</clus>
</clustering>
</event>
<event>
 6    0  0.4945982E+002  0.1875340E+03  0.7546771E-02  0.1160705E+00
         21   -1    0    0  503  502  0.00000000000E+00  0.00000000000E+00  0.73574212068E+02  0.73574212068E+02  0.00000000000E+00 0. -1.
          2   -1    0    0  504    0 -0.00000000000E+00 -0.00000000000E+00 -0.27188413833E+04  0.27188413833E+04  0.00000000000E+00 0. -1.
         21    1    1    2  503  501  0.18559111831E+02  0.31152265007E+02 -0.89073752768E+02  0.96171917310E+02  0.00000000000E+00 0.  1.
         21    1    1    2  504  505 -0.12544418535E+03 -0.57349862582E+02 -0.35700884982E+03  0.38272780044E+03  0.00000000000E+00 0. -1.
         21    1    1    2  505  502  0.22270918579E+03 -0.15606379460E+02 -0.17003355357E+03  0.28063205422E+03  0.00000000000E+00 0. -1.
          2    1    1    2  501    0 -0.11582411227E+03  0.41803977036E+02 -0.20291510151E+04  0.20328838234E+04  0.00000000000E+00 0. -1.
<scales pt_clust_3="36.26161" pt_clust_4="14000.00000" pt_clust_5="187.53397" pt_clust_6="122.95757"></scales>
<clustering>
<clus scale="   36.262">  1  3  2 -1</clus>
<clus scale="  122.958">  2  6  1 -1</clus>
<clus scale="  187.534">  1  5  2 -1</clus>
<clus scale="   36.262">  1  3  2 -1</clus>
</clustering>
</event>
<event>
 6    0  0.4945982E+002  0.1169459E+03  0.7546771E-02  0.1248222E+00
          2   -1    0    0  505    0 -0.00000000000E+00  0.00000000000E+00  0.11089338318E+04  0.11089338318E+04  0.00000000000E+00 0. -1.
         21   -1    0    0  501  502  0.00000000000E+00 -0.00000000000E+00 -0.13435294876E+03  0.13435294876E+03  0.00000000000E+00 0. -1.
         21    1    1    2  503  502 -0.46996964805E+02  0.31255929475E+01 -0.75727201145E+02  0.89180115639E+02  0.00000000000E+00 0. -1.
         21    1    1    2  504  503  0.29352770834E+02 -0.34646602205E+02  0.34098650532E+02  0.56786355475E+02  0.00000000000E+00 0. -1.
         21    1    1    2  505  504  0.16090925868E+02 -0.73907135997E+02 -0.17022336339E-01  0.75638501680E+02  0.00000000000E+00 0. -1.
          2    1    1    2  501    0  0.15532681034E+01  0.10542814526E+03  0.10162264560E+04  0.10216818077E+04  0.00000000000E+00 0. -1.
<scales pt_clust_3="47.10079" pt_clust_4="38.93980" pt_clust_5="38.93980" pt_clust_6="105.59640"></scales>
<clustering>
<clus scale="   38.940">  4  5 -1 -1</clus>
<clus scale="   47.101">  2  3  1 -1</clus>
<clus scale="  105.596">  1  6  2 -1</clus>
<clus scale="   47.101">  2  3  1 -1</clus>
</clustering>
</event>
<event>
 6    0  0.4945982E+002  0.6282454E+02  0.7546771E-02  0.1386347E+00
         21   -1    0    0  503  502  0.00000000000E+00  0.00000000000E+00  0.71937319451E+03  0.71937319451E+03  0.00000000000E+00 0. -1.
          2   -1    0    0  504    0 -0.00000000000E+00 -0.00000000000E+00 -0.13230364546E+04  0.13230364546E+04  0.00000000000E+00 0. -1.
         21    1    1    2  503  505 -0.72974597396E+01 -0.63211434441E+02  0.44691578920E+03  0.45142292919E+03  0.00000000000E+00 0. -1.
         21    1    1    2  504  502 -0.23236777246E+02  0.19911016682E+02  0.26098386542E+02  0.40218430877E+02  0.00000000000E+00 0.  1.
         21    1    1    2  505  501  0.10923386646E+02  0.10287965898E+03  0.22496565531E+03  0.24761480302E+03  0.00000000000E+00 0.  1.
          2    1    1    2  501    0  0.19610850339E+02 -0.59579241223E+02 -0.13016430912E+04  0.13031534861E+04  0.00000000000E+00 0. -1.
<scales pt_clust_3="54.99508" pt_clust_4="30.60059" pt_clust_5="14000.00000" pt_clust_6="62.82454"></scales>
<clustering>
<clus scale="   30.601">  1  4  2 -1</clus>
<clus scale="   54.995">  1  3  2 -1</clus>
<clus scale="   62.825">  2  6  1 -1</clus>
<clus scale="   30.601">  1  3  2 -1</clus>
</clustering>
</event>
<event>
 6    0  0.4945982E+002  0.1896343E+03  0.7546771E-02  0.1158792E+00
         -1   -1    0    0    0  501 -0.00000000000E+00  0.00000000000E+00  0.14875965819E+04  0.14875965819E+04  0.00000000000E+00 0.  1.
         21   -1    0    0  503  502  0.00000000000E+00 -0.00000000000E+00 -0.99649132366E+03  0.99649132366E+03  0.00000000000E+00 0.  1.
         21    1    1    2  503  501 -0.17329902334E+03 -0.37615540899E+02 -0.72357408640E+02  0.19152826160E+03  0.00000000000E+00 0.  1.
         21    1    1    2  504  505  0.18389270961E+03  0.10006918759E+03 -0.11529437751E+03  0.23900452807E+03  0.00000000000E+00 0.  1.
         21    1    1    2  505  502 -0.39119848319E+02  0.20367668384E+02 -0.68528526431E+03  0.68670306387E+03  0.00000000000E+00 0.  1.
         -1    1    1    2    0  504  0.28526162045E+02 -0.82821315072E+02  0.13640423087E+04  0.13668520520E+04  0.00000000000E+00 0.  1.
<scales pt_clust_3="189.63426" pt_clust_4="14000.00000" pt_clust_5="44.10447" pt_clust_6="87.45164"></scales>
<clustering>
<clus scale="   44.104">  2  5  1 -1</clus>
<clus scale="   87.452">  1  6  2 -1</clus>
<clus scale="  189.634">  1  3  2 -1</clus>
<clus scale="   44.104">  2  3  1 -1</clus>
</clustering>
</event>
<event>
 6    0  0.4945982E+002  0.8828525E+02  0.7546771E-02  0.1307058E+00
          2   -1    0    0  505    0 -0.00000000000E+00  0.00000000000E+00  0.11180649292E+04  0.11180649292E+04  0.00000000000E+00 0.  1.
         21   -1    0    0  503  502  0.00000000000E+00 -0.00000000000E+00 -0.18897340834E+03  0.18897340834E+03  0.00000000000E+00 0.  1.
         21    1    1    2  503  501  0.27346262370E+02 -0.82345778664E+02 -0.15046531144E+03  0.17369068851E+03  0.00000000000E+00 0.  1.
         21    1    1    2  504  502 -0.56460947730E+02  0.12333106119E+03  0.34366201936E+03  0.36946173391E+03  0.00000000000E+00 0.  1.
         21    1    1    2  505  504 -0.30195195608E+02 -0.16314472280E+02  0.67336994315E+03  0.67424401531E+03  0.00000000000E+00 0.  1.
          2    1    1    2  501    0  0.59309880968E+02 -0.24670810247E+02  0.62524869783E+02  0.89641899802E+02  0.00000000000E+00 0.  1.
<scales pt_clust_3="14000.00000" pt_clust_4="88.28525" pt_clust_5="34.32072" pt_clust_6="60.70677"></scales>
<clustering>
<clus scale="   34.321">  1  5  2 -1</clus>
<clus scale="   60.707">  1  6  2 -1</clus>
<clus scale="   88.285">  1  4  2 -1</clus>
<clus scale="   88.285">  2  3  1 -1</clus>
</clustering>
</event>
<event>
 6    0  0.4945982E+002  0.9062236E+02  0.7546771E-02  0.1301352E+00
         21   -1    0    0  504  502  0.00000000000E+00  0.00000000000E+00  0.12927696559E+03  0.12927696559E+03  0.00000000000E+00 0. -1.
          1   -1    0    0  505    0 -0.00000000000E+00 -0.00000000000E+00 -0.31936657543E+04  0.31936657543E+04  0.00000000000E+00 0. -1.
         21    1    1    2  503  502 -0.26403019702E+02 -0.34541362541E+02 -0.74272095898E+01  0.44106559805E+02  0.00000000000E+00 0.  1.
         21    1    1    2  504  501 -0.57848410805E+02  0.67579234209E+02  0.89940592469E+02  0.12650178537E+03  0.00000000000E+00 0. -1.
         21    1    1    2  505  503  0.78347805251E+02 -0.74356301882E+02 -0.11659701123E+04  0.11709626556E+04  0.00000000000E+00 0. -1.
          1    1    1    2  501    0  0.59036252558E+01  0.41318430214E+02 -0.19809320593E+04  0.19813717191E+04  0.00000000000E+00 0. -1.
<scales pt_clust_3="42.70514" pt_clust_4="14000.00000" pt_clust_5="90.62236" pt_clust_6="41.73806"></scales>
<clustering>
<clus scale="   41.738">  2  6  1 -1</clus>
<clus scale="   42.705">  1  3  2 -1</clus>
<clus scale="   90.622">  2  5  1 -1</clus>
<clus scale="   42.705">  1  3  2 -1</clus>
</clustering>
</event>
<event>
 6    0  0.4945982E+002  0.8450393E+02  0.7546771E-02  0.1316735E+00
         21   -1    0    0  505  502  0.00000000000E+00  0.00000000000E+00  0.50577196899E+02  0.50577196899E+02  0.00000000000E+00 0. -1.
          3   -1    0    0  503    0 -0.00000000000E+00 -0.00000000000E+00 -0.69417592693E+03  0.69417592693E+03  0.00000000000E+00 0. -1.
         21    1    1    2  503  504 -0.22154114187E+02  0.11030420977E+03 -0.30013008436E+03  0.32052440002E+03  0.00000000000E+00 0. -1.
         21    1    1    2  504  502  0.48091938602E+01 -0.79782405213E+02 -0.21818852269E+02  0.82851812542E+02  0.00000000000E+00 0. -1.
         21    1    1    2  505  501  0.56229934031E+02  0.77818746604E+01 -0.12486795032E+03  0.13716547696E+03  0.00000000000E+00 0. -1.
          3    1    1    2  501    0 -0.38885013705E+02 -0.38303679222E+02 -0.19678184308E+03  0.20421143430E+03  0.00000000000E+00 0. -1.
<scales pt_clust_3="14000.00000" pt_clust_4="84.50393" pt_clust_5="45.97213" pt_clust_6="54.58220"></scales>
<clustering>
<clus scale="   54.582">  2  6  1 -1</clus>
<clus scale="   45.972">  2  5  1 -1</clus>
<clus scale="   84.504">  1  4  2 -1</clus>
<clus scale="   84.504">  1  3  2 -1</clus>
</clustering>
</event>
<event>
 6    0  0.4945982E+002  0.8533030E+02  0.7546771E-02  0.1314571E+00
          2   -1    0    0  503    0 -0.00000000000E+00  0.00000000000E+00  0.94873211149E+03  0.94873211149E+03  0.00000000000E+00 0.  1.
         21   -1    0    0  505  502  0.00000000000E+00 -0.00000000000E+00 -0.12576993912E+03  0.12576993912E+03  0.00000000000E+00 0.  1.
         21    1    1    2  503  504 -0.49947484695E+02 -0.17300672150E+02  0.63808583881E+02  0.82858915399E+02  0.00000000000E+00 0.  1.
         21    1    1    2  504  502 -0.28841433770E+02  0.53826317842E+02 -0.45505866270E+02  0.76156973806E+02  0.00000000000E+00 0.  1.
         21    1    1    2  505  501  0.10411287703E+03 -0.83021312456E+02  0.26806017320E+02  0.13583295642E+03  0.00000000000E+00 0.  1.
          2    1    1    2  501    0 -0.25323958567E+02  0.46495666765E+02  0.77785343744E+03  0.77965320499E+03  0.00000000000E+00 0.  1.
<scales pt_clust_3="52.85891" pt_clust_4="61.21920" pt_clust_5="85.33030" pt_clust_6="14000.00000"></scales>
<clustering>
<clus scale="   52.859">  1  3  2 -1</clus>
<clus scale="   61.219">  2  4  1 -1</clus>
<clus scale="   85.330">  2  5  1 -1</clus>
<clus scale="   61.219">  2  3  1 -1</clus>
</clustering>
</event>
<event>
 6    0  0.4945982E+002  0.2201472E+03  0.7546771E-02  0.1133773E+00
         21   -1    0    0  505  502  0.00000000000E+00  0.00000000000E+00  0.27546529981E+03  0.27546529981E+03  0.00000000000E+00 0. -1.
          1   -1    0    0  503    0 -0.00000000000E+00 -0.00000000000E+00 -0.15096220585E+04  0.15096220585E+04  0.00000000000E+00 0. -1.
         21    1    1    2  503  504  0.11518572329E+02 -0.92573636340E+02  0.75180184992E+02  0.11981075022E+03  0.00000000000E+00 0. -1.
         21    1    1    2  504  502 -0.46670513309E+02 -0.61039152614E+02  0.12059956491E+03  0.14299709794E+03  0.00000000000E+00 0. -1.
         21    1    1    2  505  501 -0.91967784979E+02 -0.11516618851E+02 -0.17215659476E+02  0.94271336656E+02  0.00000000000E+00 0. -1.
          1    1    1    2  501    0  0.12711972596E+03  0.16512940781E+03 -0.14127208491E+04  0.14280081735E+04  0.00000000000E+00 0. -1.
<scales pt_clust_3="69.74439" pt_clust_4="69.74439" pt_clust_5="92.68606" pt_clust_6="206.29853"></scales>
<clustering>
<clus scale="   69.744">  3  4 -1 -1</clus>
<clus scale="   92.686">  1  5  2 -1</clus>
<clus scale="  206.299">  2  6  1 -1</clus>
<clus scale="   92.686">  1  3  2 -1</clus>
</clustering>
</event>
<event>
 6    0  0.4945982E+002  0.9963698E+02  0.7546771E-02  0.1281061E+00
         -4   -1    0    0    0  501 -0.00000000000E+00  0.00000000000E+00  0.17621036449E+03  0.17621036449E+03  0.00000000000E+00 0.  1.
         21   -1    0    0  504  502  0.00000000000E+00 -0.00000000000E+00 -0.22386901719E+04  0.22386901719E+04  0.00000000000E+00 0. -1.
         21    1    1    2  503  505 -0.71242539448E+02 -0.10627805340E+03 -0.89901451678E+02  0.15637389512E+03  0.00000000000E+00 0. -1.
         21    1    1    2  504  501 -0.14413856127E+02  0.36823017752E+02 -0.17493152871E+04  0.17497621746E+04  0.00000000000E+00 0. -1.
         21    1    1    2  505  502 -0.16434883205E+02  0.65022696844E+02 -0.34406387656E+03  0.35053959497E+03  0.00000000000E+00 0. -1.
         -4    1    1    2    0  503  0.10209127878E+03  0.44323388019E+01  0.12080080794E+03  0.15822487171E+03  0.00000000000E+00 0.  1.
<scales pt_clust_3="14000.00000" pt_clust_4="39.54357" pt_clust_5="94.98797" pt_clust_6="99.63698"></scales>
<clustering>
<clus scale="   39.544">  2  4  1 -1</clus>
<clus scale="   94.988">  2  5  1 -1</clus>
<clus scale="   99.637">  1  6  2 -1</clus>
<clus scale="   39.544">  2  3  1 -1</clus>
</clustering>
</event>
<event>
 6    0  0.4945982E+002  0.7322689E+02  0.7546771E-02  0.1349451E+00
         21   -1    0    0  505  502  0.00000000000E+00  0.00000000000E+00  0.20614731560E+03  0.20614731560E+03  0.00000000000E+00 0. -1.
          2   -1    0    0  503    0 -0.00000000000E+00 -0.00000000000E+00 -0.48740421970E+03  0.48740421970E+03  0.00000000000E+00 0. -1.
         21    1    1    2  503  502 -0.36006191888E+02  0.97517951179E+02 -0.34914302687E+02  0.10965949657E+03  0.00000000000E+00 0. -1.
         21    1    1    2  504  501  0.31491974562E+01 -0.65988324485E+02 -0.83882811423E+02  0.10677407206E+03  0.00000000000E+00 0. -1.
         21    1    1    2  505  504  0.31631204631E+02 -0.62410455981E+02  0.14874642878E+03  0.16438095449E+03  0.00000000000E+00 0. -1.
          2    1    1    2  501    0  0.12257898013E+01  0.30880829286E+02 -0.31120621878E+03  0.31273701217E+03  0.00000000000E+00 0. -1.
<scales pt_clust_3="14000.00000" pt_clust_4="49.35565" pt_clust_5="73.22689" pt_clust_6="30.90515"></scales>
<clustering>
<clus scale="   30.905">  2  6  1 -1</clus>
<clus scale="   49.356">  2  4  1 -1</clus>
<clus scale="   73.227">  1  5  2 -1</clus>
<clus scale="   73.227">  1  3  2 -1</clus>
</clustering>
</event>
<event>
 6    0  0.4945982E+002  0.8946142E+02  0.7546771E-02  0.1304161E+00
          2   -1    0    0  504    0 -0.00000000000E+00  0.00000000000E+00  0.12972988228E+04  0.12972988228E+04  0.00000000000E+00 0.  1.
         21   -1    0    0  505  502  0.00000000000E+00 -0.00000000000E+00 -0.67143965964E+02  0.67143965964E+02  0.00000000000E+00 0. -1.
         21    1    1    2  503  502 -0.21587213145E+02  0.73029712842E+02  0.31302611557E+02  0.82335898729E+02  0.00000000000E+00 0. -1.
         21    1    1    2  504  503  0.34759323998E+02  0.16517063204E+02  0.38431052359E+02  0.54387220622E+02  0.00000000000E+00 0. -1.
         21    1    1    2  505  501  0.60140816171E+01 -0.11365572179E+03  0.63431102761E+02  0.13029695726E+03  0.00000000000E+00 0. -1.
          2    1    1    2  501    0 -0.19186192470E+02  0.24108945743E+02  0.10969900901E+04  0.10974227121E+04  0.00000000000E+00 0.  1.
<scales pt_clust_3="14000.00000" pt_clust_4="37.51607" pt_clust_5="89.46142" pt_clust_6="30.81154"></scales>
<clustering>
<clus scale="   30.812">  1  6  2 -1</clus>
<clus scale="   37.516">  1  4  2 -1</clus>
<clus scale="   89.461">  1  5  2 -1</clus>
<clus scale="   89.461">  2  3  1 -1</clus>
</clustering>
</event>
<event>
 6    0  0.4945982E+002  0.2447339E+03  0.7546771E-02  0.1116679E+00
          2   -1    0    0  505    0 -0.00000000000E+00  0.00000000000E+00  0.34854725980E+03  0.34854725980E+03  0.00000000000E+00 0.  1.
         21   -1    0    0  504  502  0.00000000000E+00 -0.00000000000E+00 -0.11309086956E+04  0.11309086956E+04  0.00000000000E+00 0. -1.
         21    1    1    2  503  501 -0.20766239612E+03 -0.77047879040E+02 -0.30440905792E+03  0.37646370472E+03  0.00000000000E+00 0. -1.
         21    1    1    2  504  503  0.23823714658E+02 -0.11937269885E+03 -0.34519443146E+03  0.36602814936E+03  0.00000000000E+00 0. -1.
         21    1    1    2  505  502  0.21696372640E+03  0.17456867673E+03 -0.38859216796E+03  0.47807044927E+03  0.00000000000E+00 0. -1.
          2    1    1    2  501    0 -0.33125044944E+02  0.21851901161E+02  0.25583422152E+03  0.25889365208E+03  0.00000000000E+00 0.  1.
<scales pt_clust_3="244.73389" pt_clust_4="118.58185" pt_clust_5="14000.00000" pt_clust_6="39.68342"></scales>
<clustering>
<clus scale="   39.683">  1  6  2 -1</clus>
<clus scale="  118.582">  2  4  1 -1</clus>
<clus scale="  244.734">  1  3  2 -1</clus>
<clus scale="  118.582">  2  3  1 -1</clus>
</clustering>
</event>
<event>
 6    0  0.4945982E+002  0.1975829E+03  0.7546771E-02  0.1151794E+00
         21   -1    0    0  504  502  0.00000000000E+00  0.00000000000E+00  0.46738840785E+03  0.46738840785E+03  0.00000000000E+00 0. -1.
          2   -1    0    0  505    0 -0.00000000000E+00 -0.00000000000E+00 -0.94871631787E+02  0.94871631787E+02  0.00000000000E+00 0. -1.
         21    1    1    2  503  502  0.74599426895E+02  0.83214524456E+02  0.19689051607E+03  0.22639701167E+03  0.00000000000E+00 0. -1.
         21    1    1    2  504  501 -0.36584832130E+02 -0.46652703899E+02  0.47240363902E+02  0.75806178539E+02  0.00000000000E+00 0. -1.
         21    1    1    2  505  503  0.77553609869E+02  0.27775477181E+02  0.90694637206E+02  0.12252165831E+03  0.00000000000E+00 0. -1.
          2    1    1    2  501    0 -0.11556820463E+03 -0.64337297737E+02  0.37691258889E+02  0.13753519113E+03  0.00000000000E+00 0. -1.
<scales pt_clust_3="51.29572" pt_clust_4="35.62726" pt_clust_5="51.29572" pt_clust_6="195.70682"></scales>
<clustering>
<clus scale="   35.627">  4  6 -1 -1</clus>
<clus scale="   51.296">  3  5 -1 -1</clus>
<clus scale="  195.707">  2  4  1 -1</clus>
<clus scale="  197.583">  1  3  2 -1</clus>
</clustering>
</event>
<event>
 6    0  0.4945982E+002  0.1736929E+03  0.7546771E-02  0.1174051E+00
          1   -1    0    0  504    0 -0.00000000000E+00  0.00000000000E+00  0.24219182455E+04  0.24219182455E+04  0.00000000000E+00 0.  1.
         21   -1    0    0  503  502  0.00000000000E+00 -0.00000000000E+00 -0.14679226630E+03  0.14679226630E+03  0.00000000000E+00 0.  1.
         21    1    1    2  503  501 -0.13917168190E+03  0.40912663472E+02  0.42524943478E+02  0.15116538589E+03  0.00000000000E+00 0.  1.
         21    1    1    2  504  505  0.84073186882E+02 -0.42295617874E+02  0.18373774594E+02  0.95889601296E+02  0.00000000000E+00 0.  1.
         21    1    1    2  505  502  0.10321651619E+03 -0.10810000450E+02 -0.30469299524E+01  0.10382576321E+03  0.00000000000E+00 0.  1.
          1    1    1    2  501    0 -0.48118021177E+02  0.12192954852E+02  0.22172741911E+04  0.22178297614E+04  0.00000000000E+00 0.  1.
<scales pt_clust_3="168.56913" pt_clust_4="39.87860" pt_clust_5="39.87860" pt_clust_6="49.63882"></scales>
<clustering>
<clus scale="   39.879">  4  5 -1 -1</clus>
<clus scale="   49.639">  1  6  2 -1</clus>
<clus scale="  168.569">  2  3  1 -1</clus>
<clus scale="  168.569">  2  3  1 -1</clus>
</clustering>
</event>
<event>
 6    0  0.4945982E+002  0.3049981E+03  0.7546771E-02  0.1082768E+00
         -1   -1    0    0    0  501 -0.00000000000E+00  0.00000000000E+00  0.56301305275E+03  0.56301305275E+03  0.00000000000E+00 0. -1.
         21   -1    0    0  504  502  0.00000000000E+00 -0.00000000000E+00 -0.81721349200E+03  0.81721349200E+03  0.00000000000E+00 0. -1.
         21    1    1    2  503  502 -0.55080641447E+02 -0.73318805165E+02 -0.62837916897E+03  0.63503535669E+03  0.00000000000E+00 0. -1.
         21    1    1    2  504  505 -0.23283867650E+02 -0.50221042002E+02 -0.27808675552E+02  0.61948478500E+02  0.00000000000E+00 0. -1.
         21    1    1    2  505  501 -0.89825344787E+02 -0.15851346394E+03  0.26010045461E+02  0.18404247684E+03  0.00000000000E+00 0. -1.
         -1    1    1    2    0  503  0.16818985388E+03  0.28205331111E+03  0.37597735981E+03  0.49920023272E+03  0.00000000000E+00 0. -1.
<scales pt_clust_3="91.70346" pt_clust_4="35.48555" pt_clust_5="35.48555" pt_clust_6="298.12631"></scales>
<clustering>
<clus scale="   35.486">  4  5 -1 -1</clus>
<clus scale="   91.703">  2  3  1 -1</clus>
<clus scale="  298.126">  1  6  2 -1</clus>
<clus scale="   91.703">  2  3  1 -1</clus>
</clustering>
</event>
<event>
 6    0  0.4945982E+002  0.9817868E+02  0.7546771E-02  0.1284173E+00
          1   -1    0    0  503    0 -0.00000000000E+00  0.00000000000E+00  0.18415711367E+04  0.18415711367E+04  0.00000000000E+00 0. -1.
         21   -1    0    0  504  502  0.00000000000E+00 -0.00000000000E+00 -0.13459834232E+03  0.13459834232E+03  0.00000000000E+00 0. -1.
         21    1    1    2  503  502 -0.44764748273E+02 -0.44577701132E+02 -0.68524199519E+02  0.93202038850E+02  0.00000000000E+00 0. -1.
         21    1    1    2  504  505  0.85501737484E+02  0.29310370198E+02 -0.56258990224E+00  0.90387838902E+02  0.00000000000E+00 0. -1.
         21    1    1    2  505  501  0.37107294377E+02  0.89679264386E+01  0.41980543795E+02  0.56742762163E+02  0.00000000000E+00 0.  1.
          1    1    1    2  501    0 -0.77844283588E+02  0.62994044951E+01  0.17340790400E+04  0.17358368391E+04  0.00000000000E+00 0. -1.
<scales pt_clust_3="63.17479" pt_clust_4="38.08266" pt_clust_5="38.08266" pt_clust_6="78.77365"></scales>
<clustering>
<clus scale="   38.083">  4  5 -1 -1</clus>
<clus scale="   63.175">  2  3  1 -1</clus>
<clus scale="   78.774">  1  6  2 -1</clus>
<clus scale="   63.175">  2  3  1 -1</clus>
</clustering>
</event>
<event>
 6    0  0.4945982E+002  0.1074197E+03  0.7546771E-02  0.1265424E+00
         21   -1    0    0  504  502  0.00000000000E+00  0.00000000000E+00  0.43851254218E+02  0.43851254218E+02  0.00000000000E+00 0. -1.
          2   -1    0    0  505    0 -0.00000000000E+00 -0.00000000000E+00 -0.14270500229E+04  0.14270500229E+04  0.00000000000E+00 0. -1.
         21    1    1    2  503  502 -0.81905742912E+02 -0.91605366643E+02 -0.30798286809E+03  0.33159243199E+03  0.00000000000E+00 0. -1.
         21    1    1    2  504  501  0.23604831711E+02  0.10227190257E+03 -0.12666121587E+03  0.16449861319E+03  0.00000000000E+00 0. -1.
         21    1    1    2  505  503 -0.79029787024E+02  0.23356215409E+02 -0.39040650556E+03  0.39900934779E+03  0.00000000000E+00 0. -1.
          2    1    1    2  501    0  0.13733069822E+03 -0.34022751339E+02 -0.55814817915E+03  0.57580088414E+03  0.00000000000E+00 0. -1.
<scales pt_clust_3="107.41970" pt_clust_4="14000.00000" pt_clust_5="82.40886" pt_clust_6="96.28834"></scales>
<clustering>
<clus scale="   82.409">  2  5  1 -1</clus>
<clus scale="   96.288">  2  6  1 -1</clus>
<clus scale="  107.420">  2  3  1 -1</clus>
<clus scale="  107.420">  1  3  2 -1</clus>
</clustering>
</event>
<event>
 6    0  0.4945982E+002  0.1265351E+03  0.7546771E-02  0.1232690E+00
          1   -1    0    0  503    0 -0.00000000000E+00  0.00000000000E+00  0.82449706351E+03  0.82449706351E+03  0.00000000000E+00 0. -1.
         21   -1    0    0  504  502  0.00000000000E+00 -0.00000000000E+00 -0.84695431070E+02  0.84695431070E+02  0.00000000000E+00 0. -1.
         21    1    1    2  503  505  0.33124717358E+02  0.32747953105E+02 -0.18786923597E+02  0.50225728773E+02  0.00000000000E+00 0. -1.
         21    1    1    2  504  501 -0.28761505329E+02 -0.88172919857E+02  0.12374402468E+03  0.15464239920E+03  0.00000000000E+00 0. -1.
         21    1    1    2  505  502  0.38571792366E+02  0.77666050179E+02  0.21851976413E+02  0.89427665685E+02  0.00000000000E+00 0. -1.
          1    1    1    2  501    0 -0.42935004394E+02 -0.22241083427E+02  0.61299255494E+03  0.61489670092E+03  0.00000000000E+00 0. -1.
<scales pt_clust_3="34.07834" pt_clust_4="117.68214" pt_clust_5="34.07834" pt_clust_6="48.35370"></scales>
<clustering>
<clus scale="   34.078">  3  5 -1 -1</clus>
<clus scale="   48.354">  1  6  2 -1</clus>
<clus scale="  117.682">  1  4  2 -1</clus>
<clus scale="  126.535">  2  3  1 -1</clus>
</clustering>
</event>
<event>
 6    0  0.4945982E+002  0.1934343E+03  0.7546771E-02  0.1155400E+00
         21   -1    0    0  501  502  0.00000000000E+00  0.00000000000E+00  0.18310606862E+03  0.18310606862E+03  0.00000000000E+00 0. -1.
          2   -1    0    0  504    0 -0.00000000000E+00 -0.00000000000E+00 -0.91299290610E+03  0.91299290610E+03  0.00000000000E+00 0. -1.
         21    1    1    2  503  502  0.99054664174E+01  0.31843388243E+02  0.71805766729E+02  0.79171887531E+02  0.00000000000E+00 0. -1.
         21    1    1    2  504  505  0.84171068998E+02 -0.33010292297E+02 -0.17139029019E+03  0.19377584944E+03  0.00000000000E+00 0. -1.
         21    1    1    2  505  503 -0.11686723439E+03  0.14807501344E+03 -0.13982922463E+02  0.18915518021E+03  0.00000000000E+00 0. -1.
          2    1    1    2  501    0  0.22790698972E+02 -0.14690810939E+03 -0.61631939156E+03  0.63399605754E+03  0.00000000000E+00 0. -1.
<scales pt_clust_3="33.34846" pt_clust_4="90.22891" pt_clust_5="14000.00000" pt_clust_6="193.43426"></scales>
<clustering>
<clus scale="   33.348">  1  3  2 -1</clus>
<clus scale="   90.229">  2  4  1 -1</clus>
<clus scale="  193.434">  2  6  1 -1</clus>
<clus scale="   33.348">  1  3  2 -1</clus>
</clustering>
</event>
<event>
 6    0  0.4945982E+002  0.1406390E+03  0.7546771E-02  0.1212472E+00
          1   -1    0    0  504    0 -0.00000000000E+00  0.00000000000E+00  0.12741973423E+04  0.12741973423E+04  0.00000000000E+00 0.  1.
         21   -1    0    0  505  502  0.00000000000E+00 -0.00000000000E+00 -0.42330963307E+02  0.42330963307E+02  0.00000000000E+00 0.  1.
         21    1    1    2  503  501  0.10851009824E+02 -0.13891959934E+03  0.37074852536E+03  0.39606927241E+03  0.00000000000E+00 0.  1.
         21    1    1    2  504  502 -0.55466021472E+02  0.14576419462E+03  0.32796316588E+03  0.36315770423E+03  0.00000000000E+00 0.  1.
         21    1    1    2  505  503  0.62318940897E+01 -0.37969396944E+02  0.23142915746E+02  0.44901070783E+02  0.00000000000E+00 0.  1.
          1    1    1    2  501    0  0.38383117558E+02  0.31124801660E+02  0.51001177201E+03  0.51240025818E+03  0.00000000000E+00 0.  1.
<scales pt_clust_3="140.63902" pt_clust_4="14000.00000" pt_clust_5="38.47742" pt_clust_6="48.70904"></scales>
<clustering>
<clus scale="   38.477">  2  5  1 -1</clus>
<clus scale="   48.709">  1  6  2 -1</clus>
<clus scale="  140.639">  1  3  2 -1</clus>
<clus scale="   38.477">  2  3  1 -1</clus>
</clustering>
</event>
<event>
 6    0  0.4945982E+002  0.1312687E+03  0.7546771E-02  0.1225585E+00
          2   -1    0    0  505    0 -0.00000000000E+00  0.00000000000E+00  0.65000125915E+03  0.65000125915E+03  0.00000000000E+00 0. -1.
         21   -1    0    0  503  502  0.00000000000E+00 -0.00000000000E+00 -0.23858818302E+03  0.23858818302E+03  0.00000000000E+00 0. -1.
         21    1    1    2  503  501  0.11486784659E+03 -0.10438374646E+03  0.68028715284E+02  0.16946532037E+03  0.00000000000E+00 0. -1.
         21    1    1    2  504  502  0.23572364159E+02  0.70649406774E+02 -0.15024502418E+03  0.16769186719E+03  0.00000000000E+00 0. -1.
         21    1    1    2  505  504 -0.98972952658E+02  0.53910746315E+02  0.86953561952E+02  0.14234793944E+03  0.00000000000E+00 0. -1.
          2    1    1    2  501    0 -0.39467258087E+02 -0.20176406634E+02  0.40667582308E+03  0.40908431517E+03  0.00000000000E+00 0. -1.
<scales pt_clust_3="14000.00000" pt_clust_4="73.34706" pt_clust_5="131.26869" pt_clust_6="44.32552"></scales>
<clustering>
<clus scale="   44.326">  1  6  2 -1</clus>
<clus scale="   73.347">  2  4  1 -1</clus>
<clus scale="  131.269">  1  5  2 -1</clus>
<clus scale="   73.347">  2  3  1 -1</clus>
</clustering>
</event>
<event>
 6    0  0.4945982E+002  0.1860180E+03  0.7546771E-02  0.1162103E+00
          2   -1    0    0  502    0 -0.00000000000E+00  0.00000000000E+00  0.46513616101E+03  0.46513616101E+03  0.00000000000E+00 0.  1.
         21   -1    0    0  503  502  0.00000000000E+00 -0.00000000000E+00 -0.23902047940E+03  0.23902047940E+03  0.00000000000E+00 0. -1.
         21    1    1    2  503  505 -0.38180591384E+02 -0.31998147235E+02 -0.10752737741E+03  0.11850643813E+03  0.00000000000E+00 0.  1.
         21    1    1    2  504  501 -0.55458237963E+02  0.43521118818E+02 -0.14247200735E+02  0.71921392296E+02  0.00000000000E+00 0. -1.
         21    1    1    2  505  504 -0.31378610895E+02  0.11380998785E+03 -0.58126367866E+01  0.11819948097E+03  0.00000000000E+00 0. -1.
          2    1    1    2  501    0  0.12501744024E+03 -0.12533295943E+03  0.35370289654E+03  0.39552932901E+03  0.00000000000E+00 0.  1.
<scales pt_clust_3="49.81605" pt_clust_4="45.38756" pt_clust_5="45.38756" pt_clust_6="176.50172"></scales>
<clustering>
<clus scale="   45.388">  4  5 -1 -1</clus>
<clus scale="   49.816">  2  3  1 -1</clus>
<clus scale="  176.502">  1  6  2 -1</clus>
<clus scale="   49.816">  2  3  1 -1</clus>
</clustering>
</event>
<event>
 6    0  0.4945982E+002  0.1103676E+03  0.7546771E-02  0.1259891E+00
         -2   -1    0    0    0  501 -0.00000000000E+00  0.00000000000E+00  0.23721546080E+03  0.23721546080E+03  0.00000000000E+00 0. -1.
         21   -1    0    0  501  502  0.00000000000E+00 -0.00000000000E+00 -0.92475740122E+03  0.92475740122E+03  0.00000000000E+00 0.  1.
         21    1    1    2  503  502 -0.86462379909E+02  0.54245739348E+02 -0.70823925225E+03  0.71555655388E+03  0.00000000000E+00 0.  1.
         21    1    1    2  504  503  0.34428436131E+02 -0.87475855530E+00 -0.10733044459E+03  0.11272048063E+03  0.00000000000E+00 0.  1.
         21    1    1    2  505  504  0.73499701330E+02  0.86018465837E+01 -0.83887972600E+02  0.11186326389E+03  0.00000000000E+00 0.  1.
         -2    1    1    2    0  505 -0.21465757553E+02 -0.61972827377E+02  0.21191572902E+03  0.22183256363E+03  0.00000000000E+00 0. -1.
<scales pt_clust_3="100.07911" pt_clust_4="31.74362" pt_clust_5="31.74362" pt_clust_6="65.58514"></scales>
<clustering>
<clus scale="   31.744">  4  5 -1 -1</clus>
<clus scale="   65.585">  1  6  2 -1</clus>
<clus scale="  100.079">  2  3  1 -1</clus>
<clus scale="  100.079">  2  3  1 -1</clus>
</clustering>
</event>
<event>
 6    0  0.4945982E+002  0.1393836E+03  0.7546771E-02  0.1214161E+00
         21   -1    0    0  504  502  0.00000000000E+00  0.00000000000E+00  0.16713178745E+04  0.16713178745E+04  0.00000000000E+00 0.  1.
          2   -1    0    0  503    0 -0.00000000000E+00 -0.00000000000E+00 -0.69991891347E+03  0.69991891347E+03  0.00000000000E+00 0. -1.
         21    1    1    2  503  502  0.25781738235E+02 -0.27880695831E+02  0.86108355445E+03  0.86192048298E+03  0.00000000000E+00 0.  1.
         21    1    1    2  504  505 -0.29347104806E+02 -0.54465170774E+02  0.73305638548E+03  0.73566253927E+03  0.00000000000E+00 0.  1.
         21    1    1    2  505  501 -0.90475781272E+02 -0.29660000315E+02  0.33789347329E+02  0.10103119621E+03  0.00000000000E+00 0.  1.
          2    1    1    2  501    0  0.94041147842E+02  0.11200586692E+03 -0.65653032625E+03  0.67262256949E+03  0.00000000000E+00 0. -1.
<scales pt_clust_3="37.97409" pt_clust_4="79.97099" pt_clust_5="139.38363" pt_clust_6="14000.00000"></scales>
<clustering>
<clus scale="   37.974">  1  3  2 -1</clus>
<clus scale="   79.971">  1  4  2 -1</clus>
<clus scale="  139.384">  1  5  2 -1</clus>
<clus scale="   37.974">  1  3  2 -1</clus>
</clustering>
</event>
<event>
 6    0  0.4945982E+002  0.8003983E+02  0.7546771E-02  0.1328938E+00
         21   -1    0    0  505  502  0.00000000000E+00  0.00000000000E+00  0.63143072405E+03  0.63143072405E+03  0.00000000000E+00 0.  1.
          1   -1    0    0  503    0 -0.00000000000E+00 -0.00000000000E+00 -0.75140970338E+03  0.75140970338E+03  0.00000000000E+00 0. -1.
         21    1    1    2  503  504  0.27089453803E+02 -0.11981679413E+03 -0.70119712985E+02  0.14144496036E+03  0.00000000000E+00 0. -1.
         21    1    1    2  504  502 -0.33312788400E+02  0.25911414519E+01  0.31140123819E+02  0.45674535536E+02  0.00000000000E+00 0. -1.
         21    1    1    2  505  501 -0.30094520488E+01  0.40146022692E+02  0.55426783934E+03  0.55572798892E+03  0.00000000000E+00 0.  1.
          1    1    1    2  501    0  0.92327866452E+01  0.77079629986E+02 -0.63526722951E+03  0.63999294261E+03  0.00000000000E+00 0. -1.
<scales pt_clust_3="80.03983" pt_clust_4="33.41341" pt_clust_5="54.59841" pt_clust_6="14000.00000"></scales>
<clustering>
<clus scale="   33.413">  1  4  2 -1</clus>
<clus scale="   54.598">  1  5  2 -1</clus>
<clus scale="   80.040">  1  3  2 -1</clus>
<clus scale="   33.413">  1  3  2 -1</clus>
</clustering>
</event>
<event>
 6    0  0.4945982E+002  0.1952909E+03  0.7546771E-02  0.1153774E+00
         21   -1    0    0  503  502  0.00000000000E+00  0.00000000000E+00  0.25513475981E+03  0.25513475981E+03  0.00000000000E+00 0.  1.
          2   -1    0    0  505    0 -0.00000000000E+00 -0.00000000000E+00 -0.11508364358E+04  0.11508364358E+04  0.00000000000E+00 0. -1.
         21    1    1    2  503  501 -0.13332616357E+03 -0.11405062251E+03  0.54220149872E+02  0.18363887127E+03  0.00000000000E+00 0.  1.
         21    1    1    2  504  502  0.14262640712E+02 -0.30410285836E+02  0.65948657138E+02  0.74009687089E+02  0.00000000000E+00 0.  1.
         21    1    1    2  505  504  0.22648737413E+03  0.11667374976E+03 -0.19722314428E+03  0.32218979370E+03  0.00000000000E+00 0.  1.
          2    1    1    2  501    0 -0.10742385127E+03  0.27787158589E+02 -0.81864733869E+03  0.82613284352E+03  0.00000000000E+00 0. -1.
<scales pt_clust_3="14000.00000" pt_clust_4="33.58881" pt_clust_5="195.29088" pt_clust_6="110.52767"></scales>
<clustering>
<clus scale="   33.589">  1  4  2 -1</clus>
<clus scale="  110.528">  2  6  1 -1</clus>
<clus scale="  195.291">  2  5  1 -1</clus>
<clus scale="   33.589">  1  3  2 -1</clus>
</clustering>
</event>
<event>
 6    0  0.4945982E+002  0.1273279E+03  0.7546771E-02  0.1231475E+00
          1   -1    0    0  504    0 -0.00000000000E+00  0.00000000000E+00  0.15380804830E+04  0.15380804830E+04  0.00000000000E+00 0. -1.
         21   -1    0    0  505  502  0.00000000000E+00 -0.00000000000E+00 -0.26353593721E+03  0.26353593721E+03  0.00000000000E+00 0.  1.
         21    1    1    2  503  502 -0.27775315403E+02 -0.17487327726E+02 -0.29135107719E+02  0.43887689373E+02  0.00000000000E+00 0. -1.
         21    1    1    2  504  503  0.72009694366E+02 -0.44674155194E+02  0.38617719124E+02  0.93126282302E+02  0.00000000000E+00 0. -1.
         21    1    1    2  505  501  0.82760884594E+02  0.76867402337E+02 -0.18075522131E+03  0.21314410992E+03  0.00000000000E+00 0.  1.
          1    1    1    2  501    0 -0.12699526356E+03 -0.14705919417E+02  0.14458171557E+04  0.14514583386E+04  0.00000000000E+00 0. -1.
<scales pt_clust_3="32.82186" pt_clust_4="83.09064" pt_clust_5="127.32794" pt_clust_6="14000.00000"></scales>
<clustering>
<clus scale="   32.822">  2  3  1 -1</clus>
<clus scale="   83.091">  2  4  1 -1</clus>
<clus scale="  127.328">  2  5  1 -1</clus>
<clus scale="   32.822">  2  3  1 -1</clus>
</clustering>
</event>
<event>
 6    0  0.4945982E+002  0.1591710E+03  0.7546771E-02  0.1189636E+00
          2   -1    0    0  504    0 -0.00000000000E+00  0.00000000000E+00  0.56571766979E+03  0.56571766979E+03  0.00000000000E+00 0.  1.
         21   -1    0    0  505  502  0.00000000000E+00 -0.00000000000E+00 -0.11839253043E+03  0.11839253043E+03  0.00000000000E+00 0.  1.
         21    1    1    2  503  502 -0.14096383904E+02 -0.62270560958E+02 -0.11077730189E+02  0.64800053297E+02  0.00000000000E+00 0.  1.
         21    1    1    2  504  503  0.43326517313E+00 -0.14314891928E+03  0.85218925196E+02  0.16659551621E+03  0.00000000000E+00 0.  1.
         21    1    1    2  505  501 -0.43093066138E+02  0.87181509535E+02  0.62817345971E+02  0.11577412020E+03  0.00000000000E+00 0.  1.
          2    1    1    2  501    0  0.56756184869E+02  0.11823797070E+03  0.31036659838E+03  0.33694051052E+03  0.00000000000E+00 0.  1.
<scales pt_clust_3="50.25755" pt_clust_4="50.25755" pt_clust_5="97.25034" pt_clust_6="140.25784"></scales>
<clustering>
<clus scale="   50.258">  3  4 -1 -1</clus>
<clus scale="   97.250">  2  5  1 -1</clus>
<clus scale="  140.258">  1  6  2 -1</clus>
<clus scale="   97.250">  2  3  1 -1</clus>
</clustering>
</event>
<event>
 6    0  0.4945982E+002  0.1104352E+03  0.7546771E-02  0.1259766E+00
          2   -1    0    0  504    0 -0.00000000000E+00  0.00000000000E+00  0.28295697110E+04  0.28295697110E+04  0.00000000000E+00 0.  1.
         21   -1    0    0  501  502  0.00000000000E+00 -0.00000000000E+00 -0.33848489069E+02  0.33848489069E+02  0.00000000000E+00 0.  1.
         21    1    1    2  503  505 -0.11820448874E+03  0.53727300128E+02  0.11046665035E+04  0.11122711036E+04  0.00000000000E+00 0.  1.
         21    1    1    2  504  503  0.10029043572E+03 -0.40859929976E+00  0.88014085593E+03  0.88583647742E+03  0.00000000000E+00 0.  1.
         21    1    1    2  505  502  0.41012875634E+02  0.55159170872E+02  0.27415834807E+02  0.74001473615E+02  0.00000000000E+00 0.  1.
          2    1    1    2  501    0 -0.23098822617E+02 -0.10847787170E+03  0.78349802762E+03  0.79130914536E+03  0.00000000000E+00 0.  1.
<scales pt_clust_3="14000.00000" pt_clust_4="110.43520" pt_clust_5="68.73565" pt_clust_6="88.42496"></scales>
<clustering>
<clus scale="   68.736">  2  5  1 -1</clus>
<clus scale="   88.425">  2  6  1 -1</clus>
<clus scale="  110.435">  1  4  2 -1</clus>
<clus scale="   68.736">  2  3  1 -1</clus>
</clustering>
</event>
<event>
 6    0  0.4945982E+002  0.1283957E+03  0.7546771E-02  0.1229856E+00
         21   -1    0    0  504  502  0.00000000000E+00  0.00000000000E+00  0.52339395442E+03  0.52339395442E+03  0.00000000000E+00 0.  1.
         -1   -1    0    0    0  501 -0.00000000000E+00 -0.00000000000E+00 -0.15384787357E+03  0.15384787357E+03  0.00000000000E+00 0. -1.
         21    1    1    2  503  502 -0.61318872271E+02 -0.11898431131E+03  0.45568549745E+03  0.47493846235E+03  0.00000000000E+00 0.  1.
         21    1    1    2  504  501  0.61698713666E+01  0.29450945480E+02  0.11860008914E+02  0.32343242166E+02  0.00000000000E+00 0. -1.
         21    1    1    2  505  503  0.75299923395E+02  0.57036741038E+02 -0.45070872708E+02  0.10466447276E+03  0.00000000000E+00 0. -1.
         -1    1    1    2    0  505 -0.20150922491E+02  0.32496624787E+02 -0.52928552803E+02  0.65295650710E+02  0.00000000000E+00 0. -1.
<scales pt_clust_3="14000.00000" pt_clust_4="30.09029" pt_clust_5="128.39566" pt_clust_6="47.96923"></scales>
<clustering>
<clus scale="   30.090">  2  4  1 -1</clus>
<clus scale="   47.969">  2  6  1 -1</clus>
<clus scale="  128.396">  2  5  1 -1</clus>
<clus scale="  128.396">  1  3  2 -1</clus>
</clustering>
</event>
<event>
 6    0  0.4945982E+002  0.8227848E+02  0.7546771E-02  0.1322707E+00
         21   -1    0    0  503  502  0.00000000000E+00  0.00000000000E+00  0.56106181990E+02  0.56106181990E+02  0.00000000000E+00 0.  1.
         -4   -1    0    0    0  501 -0.00000000000E+00 -0.00000000000E+00 -0.13583467253E+04  0.13583467253E+04  0.00000000000E+00 0. -1.
         21    1    1    2  503  505  0.26818948339E+02 -0.44406158891E+02 -0.11805857911E+02  0.53202830926E+02  0.00000000000E+00 0.  1.
         21    1    1    2  504  502 -0.32712903046E+02 -0.43284111304E+02 -0.53446435882E+02  0.76158846010E+02  0.00000000000E+00 0.  1.
         21    1    1    2  505  501  0.32874147339E+02  0.12573061960E+03 -0.15574774728E+03  0.20284540678E+03  0.00000000000E+00 0.  1.
         -4    1    1    2    0  504 -0.26980192632E+02 -0.38040349402E+02 -0.10812405022E+04  0.10822458236E+04  0.00000000000E+00 0. -1.
<scales pt_clust_3="54.29685" pt_clust_4="82.27848" pt_clust_5="14000.00000" pt_clust_6="46.63688"></scales>
<clustering>
<clus scale="   46.637">  2  6  1 -1</clus>
<clus scale="   54.297">  1  3  2 -1</clus>
<clus scale="   82.278">  1  4  2 -1</clus>
<clus scale="   54.297">  1  3  2 -1</clus>
</clustering>
</event>
<event>
 6    0  0.4945982E+002  0.1465485E+03  0.7546771E-02  0.1204779E+00
         21   -1    0    0  504  502  0.00000000000E+00  0.00000000000E+00  0.38654135334E+03  0.38654135334E+03  0.00000000000E+00 0. -1.
         -2   -1    0    0    0  501 -0.00000000000E+00 -0.00000000000E+00 -0.17600719382E+03  0.17600719382E+03  0.00000000000E+00 0. -1.
         21    1    1    2  503  505 -0.18707589124E+02  0.52183295189E+02  0.52366866465E+00  0.55437752628E+02  0.00000000000E+00 0.  1.
         21    1    1    2  504  501  0.15210086305E+03 -0.62705208992E+02  0.71359365995E+02  0.17932867838E+03  0.00000000000E+00 0. -1.
         21    1    1    2  505  502 -0.12914737190E+03  0.52540885705E+02  0.20572462803E+03  0.24852004128E+03  0.00000000000E+00 0. -1.
         -2    1    1    2    0  503 -0.42459020267E+01 -0.42018971902E+02 -0.67073503178E+02  0.79262074867E+02  0.00000000000E+00 0. -1.
<scales pt_clust_3="45.51678" pt_clust_4="14000.00000" pt_clust_5="146.54849" pt_clust_6="42.23295"></scales>
<clustering>
<clus scale="   42.233">  2  6  1 -1</clus>
<clus scale="   45.517">  2  3  1 -1</clus>
<clus scale="  146.548">  1  5  2 -1</clus>
<clus scale="  146.548">  1  3  2 -1</clus>
</clustering>
</event>
<event>
 6    0  0.4945982E+002  0.1097137E+03  0.7546771E-02  0.1261101E+00
          2   -1    0    0  504    0 -0.00000000000E+00  0.00000000000E+00  0.29340390636E+04  0.29340390636E+04  0.00000000000E+00 0.  1.
         21   -1    0    0  503  502  0.00000000000E+00 -0.00000000000E+00 -0.23420823323E+02  0.23420823323E+02  0.00000000000E+00 0. -1.
         21    1    1    2  503  505  0.29401100224E+02  0.15936414820E+02  0.26790508613E+02  0.42850033413E+02  0.00000000000E+00 0.  1.
         21    1    1    2  504  502 -0.15018632813E+03  0.31006476446E+01  0.49556358988E+03  0.51783087855E+03  0.00000000000E+00 0. -1.
         21    1    1    2  505  501  0.78030788259E+02 -0.10995741219E+02  0.38200005810E+03  0.39004327276E+03  0.00000000000E+00 0.  1.
          2    1    1    2  501    0  0.42754439645E+02 -0.80413212457E+01  0.20062640837E+04  0.20067357022E+04  0.00000000000E+00 0.  1.
<scales pt_clust_3="33.44240" pt_clust_4="109.71370" pt_clust_5="14000.00000" pt_clust_6="43.90284"></scales>
<clustering>
<clus scale="   33.442">  2  3  1 -1</clus>
<clus scale="   43.903">  1  6  2 -1</clus>
<clus scale="  109.714">  2  4  1 -1</clus>
<clus scale="   33.442">  2  3  1 -1</clus>
</clustering>
</event>
<event>
 6    0  0.4945982E+002  0.1193235E+03  0.7546771E-02  0.1244217E+00
         21   -1    0    0  503  502  0.00000000000E+00  0.00000000000E+00  0.75079588542E+03  0.75079588542E+03  0.00000000000E+00 0.  1.
          2   -1    0    0  504    0 -0.00000000000E+00 -0.00000000000E+00 -0.21247291608E+04  0.21247291608E+04  0.00000000000E+00 0.  1.
         21    1    1    2  503  501  0.45129309218E+01  0.35829985776E+02  0.48622244635E+03  0.48756171073E+03  0.00000000000E+00 0.  1.
         21    1    1    2  504  505  0.40114879503E+02 -0.43112828681E+02  0.73962777649E+02  0.94543175491E+02  0.00000000000E+00 0.  1.
         21    1    1    2  505  502  0.56215799129E+02 -0.43730354786E+02  0.17101620453E+03  0.18525415573E+03  0.00000000000E+00 0.  1.
          2    1    1    2  501    0 -0.10084360955E+03  0.51013197691E+02 -0.21051347039E+04  0.21081660043E+04  0.00000000000E+00 0.  1.
<scales pt_clust_3="36.11308" pt_clust_4="34.63142" pt_clust_5="34.63142" pt_clust_6="113.08223"></scales>
<clustering>
<clus scale="   34.631">  4  5 -1 -1</clus>
<clus scale="   36.113">  1  3  2 -1</clus>
<clus scale="  113.082">  2  6  1 -1</clus>
<clus scale="   36.113">  1  3  2 -1</clus>
</clustering>
</event>
<event>
 6    0  0.4945982E+002  0.1317230E+03  0.7546771E-02  0.1224921E+00
         21   -1    0    0  503  502  0.00000000000E+00  0.00000000000E+00  0.32068834186E+03  0.32068834186E+03  0.00000000000E+00 0. -1.
         -1   -1    0    0    0  501 -0.00000000000E+00 -0.00000000000E+00 -0.10254421003E+03  0.10254421003E+03  0.00000000000E+00 0.  1.
         21    1    1    2  503  504 -0.11924233680E+03 -0.76009210786E+02  0.21067752542E+03  0.25373441771E+03  0.00000000000E+00 0. -1.
         21    1    1    2  504  505  0.22856262986E+02  0.52274855754E+02  0.90449443078E+01  0.57765736552E+02  0.00000000000E+00 0.  1.
         21    1    1    2  505  501  0.43610940510E+02  0.20787019548E+02  0.22921114469E+02  0.53473281201E+02  0.00000000000E+00 0.  1.
         -1    1    1    2    0  502  0.52775133301E+02  0.29473354835E+01 -0.24499452362E+02  0.58259116432E+02  0.00000000000E+00 0.  1.
<scales pt_clust_3="125.51731" pt_clust_4="36.76645" pt_clust_5="36.76645" pt_clust_6="52.85737"></scales>
<clustering>
<clus scale="   36.766">  4  5 -1 -1</clus>
<clus scale="   52.857">  2  6  1 -1</clus>
<clus scale="  125.517">  1  3  2 -1</clus>
<clus scale="  125.517">  1  3  2 -1</clus>
</clustering>
</event>
<event>
 6    0  0.4945982E+002  0.3140871E+03  0.7546771E-02  0.1078403E+00
         21   -1    0    0  503  502  0.00000000000E+00  0.00000000000E+00  0.40192519522E+03  0.40192519522E+03  0.00000000000E+00 0.  1.
          2   -1    0    0  504    0 -0.00000000000E+00 -0.00000000000E+00 -0.15640430955E+04  0.15640430955E+04  0.00000000000E+00 0. -1.
         21    1    1    2  503  501 -0.72721970314E+02 -0.24774995001E+02  0.11302270594E+02  0.77653246322E+02  0.00000000000E+00 0.  1.
         21    1    1    2  504  505  0.46578021266E+02 -0.17879981140E+02 -0.47590772569E+02  0.68949890677E+02  0.00000000000E+00 0. -1.
         21    1    1    2  505  502 -0.14608802698E+03 -0.20922997500E+03  0.28114286270E+03  0.37968434694E+03  0.00000000000E+00 0.  1.
          2    1    1    2  501    0  0.17223197603E+03  0.25188495115E+03 -0.14069722610E+04  0.14396808068E+04  0.00000000000E+00 0. -1.
<scales pt_clust_3="75.98524" pt_clust_4="49.89194" pt_clust_5="14000.00000" pt_clust_6="314.08706"></scales>
<clustering>
<clus scale="   49.892">  2  4  1 -1</clus>
<clus scale="   75.985">  1  3  2 -1</clus>
<clus scale="  314.087">  2  6  1 -1</clus>
<clus scale="   75.985">  1  3  2 -1</clus>
</clustering>
</event>
<event>
 6    0  0.4945982E+002  0.7478030E+02  0.7546771E-02  0.1344553E+00
         21   -1    0    0  505  502  0.00000000000E+00  0.00000000000E+00  0.12016375131E+04  0.12016375131E+04  0.00000000000E+00 0.  1.
         -1   -1    0    0    0  501 -0.00000000000E+00 -0.00000000000E+00 -0.56495544101E+03  0.56495544101E+03  0.00000000000E+00 0. -1.
         21    1    1    2  503  502 -0.35204764296E+02  0.32030319437E+02  0.87100875879E+03  0.87230818791E+03  0.00000000000E+00 0.  1.
         21    1    1    2  504  503  0.97249529085E+02  0.56715431473E+02  0.21588847343E+03  0.24347883693E+03  0.00000000000E+00 0.  1.
         21    1    1    2  505  501 -0.30538205914E+02 -0.21146531055E+02  0.94224427411E+02  0.10128178769E+03  0.00000000000E+00 0.  1.
         -1    1    1    2    0  504 -0.31506558875E+02 -0.67599219856E+02 -0.54443958750E+03  0.54952414162E+03  0.00000000000E+00 0. -1.
<scales pt_clust_3="61.26809" pt_clust_4="14000.00000" pt_clust_5="37.14509" pt_clust_6="74.78030"></scales>
<clustering>
<clus scale="   37.145">  1  5  2 -1</clus>
<clus scale="   61.268">  1  3  2 -1</clus>
<clus scale="   74.780">  2  6  1 -1</clus>
<clus scale="   37.145">  1  3  2 -1</clus>
</clustering>
</event>
<event>
 6    0  0.4945982E+002  0.1137452E+03  0.7546771E-02  0.1253787E+00
         21   -1    0    0  505  502  0.00000000000E+00  0.00000000000E+00  0.35120777964E+03  0.35120777964E+03  0.00000000000E+00 0. -1.
         -3   -1    0    0    0  501 -0.00000000000E+00 -0.00000000000E+00 -0.63143403366E+03  0.63143403366E+03  0.00000000000E+00 0. -1.
         21    1    1    2  503  502  0.15400406079E+03  0.83411522509E+02  0.93720282229E+01  0.17539261028E+03  0.00000000000E+00 0. -1.
         21    1    1    2  504  501 -0.67260180776E+02 -0.40644304108E+02 -0.65194357498E+02  0.10210874411E+03  0.00000000000E+00 0. -1.
         21    1    1    2  505  504 -0.43783919401E+02 -0.45937122345E+02  0.23515477286E+03  0.24356727614E+03  0.00000000000E+00 0. -1.
         -3    1    1    2    0  503 -0.42959960613E+02  0.31699039437E+01 -0.45955869761E+03  0.46157318277E+03  0.00000000000E+00 0. -1.
<scales pt_clust_3="14000.00000" pt_clust_4="113.74516" pt_clust_5="64.13901" pt_clust_6="43.07675"></scales>
<clustering>
<clus scale="   43.077">  2  6  1 -1</clus>
<clus scale="   64.139">  1  5  2 -1</clus>
<clus scale="  113.745">  2  4  1 -1</clus>
<clus scale="   64.139">  1  3  2 -1</clus>
</clustering>
</event>
<event>
 6    0  0.4945982E+002  0.1670180E+03  0.7546771E-02  0.1180994E+00
         21   -1    0    0  505  502  0.00000000000E+00  0.00000000000E+00  0.17047425086E+03  0.17047425086E+03  0.00000000000E+00 0. -1.
         -2   -1    0    0    0  501 -0.00000000000E+00 -0.00000000000E+00 -0.45781728345E+03  0.45781728345E+03  0.00000000000E+00 0.  1.
         21    1    1    2  503  501  0.38947337330E+02 -0.31866253426E+02 -0.12082827975E+03  0.13088860294E+03  0.00000000000E+00 0.  1.
         21    1    1    2  504  502 -0.43561024162E+02  0.26220624894E+02  0.10206838757E+03  0.11403087186E+03  0.00000000000E+00 0. -1.
         21    1    1    2  505  503  0.12917723612E+03 -0.30187732114E+02 -0.19022240079E+03  0.23191080023E+03  0.00000000000E+00 0. -1.
         -2    1    1    2    0  504 -0.12456354929E+03  0.35833360646E+02 -0.78360739633E+02  0.15146125928E+03  0.00000000000E+00 0.  1.
<scales pt_clust_3="32.32373" pt_clust_4="50.84372" pt_clust_5="32.32373" pt_clust_6="158.55814"></scales>
<clustering>
<clus scale="   32.324">  3  5 -1 -1</clus>
<clus scale="   50.844">  1  4  2 -1</clus>
<clus scale="  158.558">  1  6  2 -1</clus>
<clus scale="   50.844">  1  3  2 -1</clus>
</clustering>
</event>
<event>
 6    0  0.4945982E+002  0.8464878E+02  0.7546771E-02  0.1316354E+00
         21   -1    0    0  505  502  0.00000000000E+00  0.00000000000E+00  0.14071271318E+02  0.14071271318E+02  0.00000000000E+00 0. -1.
          2   -1    0    0  504    0 -0.00000000000E+00 -0.00000000000E+00 -0.28146408719E+04  0.28146408719E+04  0.00000000000E+00 0.  1.
         21    1    1    2  503  501  0.81822776058E+02  0.22018336177E+02 -0.80978308629E+03  0.81420416398E+03  0.00000000000E+00 0. -1.
         21    1    1    2  504  502 -0.10830675579E+03 -0.34846344577E+02 -0.35482801429E+03  0.37262251784E+03  0.00000000000E+00 0. -1.
         21    1    1    2  505  503  0.47746616202E+02 -0.10028901781E+02 -0.21029830699E+03  0.21588352451E+03  0.00000000000E+00 0. -1.
          2    1    1    2  501    0 -0.21262636468E+02  0.22856910182E+02 -0.14256601930E+04  0.14260019369E+04  0.00000000000E+00 0.  1.
<scales pt_clust_3="84.64878" pt_clust_4="14000.00000" pt_clust_5="44.95975" pt_clust_6="31.21759"></scales>
<clustering>
<clus scale="   31.218">  2  6  1 -1</clus>
<clus scale="   44.960">  1  5  2 -1</clus>
<clus scale="   84.649">  2  3  1 -1</clus>
<clus scale="   44.960">  1  3  2 -1</clus>
</clustering>
</event>
<event>
 6    0  0.4945982E+002  0.1303640E+03  0.7546771E-02  0.1226917E+00
          1   -1    0    0  504    0 -0.00000000000E+00  0.00000000000E+00  0.32783825560E+03  0.32783825560E+03  0.00000000000E+00 0.  1.
         21   -1    0    0  503  502  0.00000000000E+00 -0.00000000000E+00 -0.99339247011E+02  0.99339247011E+02  0.00000000000E+00 0.  1.
         21    1    1    2  503  501 -0.10251593067E+03  0.99073512604E+01  0.12060925490E+03  0.15860095844E+03  0.00000000000E+00 0.  1.
         21    1    1    2  504  505  0.90813629315E+02  0.35908374115E+02  0.48948767863E+01  0.97777739899E+02  0.00000000000E+00 0.  1.
         21    1    1    2  505  502  0.34163463056E+02 -0.11393418368E+02 -0.19946850365E+02  0.41168301271E+02  0.00000000000E+00 0.  1.
          1    1    1    2  501    0 -0.22461161701E+02 -0.34422307007E+02  0.12294172727E+03  0.12963050300E+03  0.00000000000E+00 0.  1.
<scales pt_clust_3="118.89314" pt_clust_4="32.47166" pt_clust_5="32.47166" pt_clust_6="41.10230"></scales>
<clustering>
<clus scale="   32.472">  4  5 -1 -1</clus>
<clus scale="   41.102">  1  6  2 -1</clus>
<clus scale="  118.893">  1  3  2 -1</clus>
<clus scale="  130.364">  2  3  1 -1</clus>
</clustering>
</event>
<event>
 6    0  0.4945982E+002  0.3060293E+03  0.7546771E-02  0.1082265E+00
          3   -1    0    0  503    0 -0.00000000000E+00  0.00000000000E+00  0.20556894562E+03  0.20556894562E+03  0.00000000000E+00 0. -1.
         21   -1    0    0  501  502  0.00000000000E+00 -0.00000000000E+00 -0.20103512287E+04  0.20103512287E+04  0.00000000000E+00 0. -1.
         21    1    1    2  503  504  0.30523490907E+02  0.36779522523E+02 -0.34418336057E+02  0.58898545237E+02  0.00000000000E+00 0. -1.
         21    1    1    2  504  505 -0.98103068599E+02  0.96643963154E+02 -0.69172284735E+03  0.70529764301E+03  0.00000000000E+00 0. -1.
         21    1    1    2  505  502 -0.14919615450E+03  0.70355621091E+02 -0.11366886732E+04  0.11485950313E+04  0.00000000000E+00 0. -1.
          3    1    1    2  501    0  0.21677573220E+03 -0.20377910677E+03  0.58047573622E+02  0.30312895478E+03  0.00000000000E+00 0. -1.
<scales pt_clust_3="47.79557" pt_clust_4="63.29916" pt_clust_5="63.29916" pt_clust_6="298.11129"></scales>
<clustering>
<clus scale="   47.796">  1  3  2 -1</clus>
<clus scale="   63.299">  4  5 -1 -1</clus>
<clus scale="  298.111">  1  6  2 -1</clus>
<clus scale="  306.029">  2  3  1 -1</clus>
</clustering>
</event>
<event>
 6    0  0.4945982E+002  0.1887716E+03  0.7546771E-02  0.1159574E+00
          2   -1    0    0  505    0 -0.00000000000E+00  0.00000000000E+00  0.38859303785E+03  0.38859303785E+03  0.00000000000E+00 0.  1.
         21   -1    0    0  501  502  0.00000000000E+00 -0.00000000000E+00 -0.46507893662E+03  0.46507893662E+03  0.00000000000E+00 0.  1.
         21    1    1    2  503  504 -0.10262998025E+02  0.90376297762E+02 -0.74113676033E+02  0.11732877439E+03  0.00000000000E+00 0. -1.
         21    1    1    2  504  502  0.40285494064E+02 -0.58686591586E+02 -0.17332292090E+03  0.18737094752E+03  0.00000000000E+00 0.  1.
         21    1    1    2  505  503  0.44068657907E+02  0.13087741703E+03 -0.13599590388E+03  0.19381906710E+03  0.00000000000E+00 0.  1.
          2    1    1    2  501    0 -0.74091153946E+02 -0.16256712320E+03  0.30694660204E+03  0.35515318546E+03  0.00000000000E+00 0.  1.
<scales pt_clust_3="41.14994" pt_clust_4="71.18312" pt_clust_5="41.14994" pt_clust_6="181.83453"></scales>
<clustering>
<clus scale="   41.150">  3  5 -1 -1</clus>
<clus scale="   71.183">  2  4  1 -1</clus>
<clus scale="  181.835">  1  6  2 -1</clus>
<clus scale="   71.183">  2  3  1 -1</clus>
</clustering>
</event>
<event>
 6    0  0.4945982E+002  0.8015716E+02  0.7546771E-02  0.1328606E+00
         -1   -1    0    0    0  501 -0.00000000000E+00  0.00000000000E+00  0.10336540908E+03  0.10336540908E+03  0.00000000000E+00 0. -1.
         21   -1    0    0  503  502  0.00000000000E+00 -0.00000000000E+00 -0.45249396497E+03  0.45249396497E+03  0.00000000000E+00 0. -1.
         21    1    1    2  503  501  0.68424403386E+01 -0.93354474409E+02 -0.14944709549E+03  0.17634146204E+03  0.00000000000E+00 0. -1.
         21    1    1    2  504  502  0.36310139555E+02  0.37439709184E+02 -0.17883389252E+03  0.18628397454E+03  0.00000000000E+00 0. -1.
         21    1    1    2  505  504 -0.24813575083E+01  0.79873215756E+02 -0.82981448634E+02  0.11520333566E+03  0.00000000000E+00 0. -1.
         -1    1    1    2    0  505 -0.40671222385E+02 -0.23958450531E+02  0.62133880755E+02  0.78030601816E+02  0.00000000000E+00 0. -1.
<scales pt_clust_3="14000.00000" pt_clust_4="47.08210" pt_clust_5="80.15716" pt_clust_6="47.20334"></scales>
<clustering>
<clus scale="   47.203">  1  6  2 -1</clus>
<clus scale="   47.082">  2  4  1 -1</clus>
<clus scale="   80.157">  1  5  2 -1</clus>
<clus scale="   47.082">  2  3  1 -1</clus>
</clustering>
</event>
<event>
 6    0  0.4945982E+002  0.2014198E+03  0.7546771E-02  0.1148547E+00
         21   -1    0    0  505  502  0.00000000000E+00  0.00000000000E+00  0.21462672507E+03  0.21462672507E+03  0.00000000000E+00 0.  1.
          2   -1    0    0  504    0 -0.00000000000E+00 -0.00000000000E+00 -0.44113386032E+03  0.44113386032E+03  0.00000000000E+00 0.  1.
         21    1    1    2  503  502 -0.14598218013E+03  0.75648996107E+02 -0.63510750188E+02  0.17625885202E+03  0.00000000000E+00 0.  1.
         21    1    1    2  504  503 -0.49497826995E+02 -0.18539901109E+02 -0.20046205999E+02  0.56529754867E+02  0.00000000000E+00 0.  1.
         21    1    1    2  505  501  0.12564768515E+03 -0.14048370856E+03  0.55670531975E+02  0.19652537059E+03  0.00000000000E+00 0.  1.
          2    1    1    2  501    0  0.69832321971E+02  0.83374613565E+02 -0.19862071104E+03  0.22644660791E+03  0.00000000000E+00 0.  1.
<scales pt_clust_3="42.93723" pt_clust_4="42.93723" pt_clust_5="186.64150" pt_clust_6="108.75605"></scales>
<clustering>
<clus scale="   42.937">  3  4 -1 -1</clus>
<clus scale="  108.756">  2  6  1 -1</clus>
<clus scale="  186.641">  1  5  2 -1</clus>
<clus scale="  186.641">  1  3  2 -1</clus>
</clustering>
</event>
<event>
 6    0  0.4945982E+002  0.5831243E+02  0.7546771E-02  0.1405053E+00
          2   -1    0    0  503    0 -0.00000000000E+00  0.00000000000E+00  0.12486517890E+04  0.12486517890E+04  0.00000000000E+00 0. -1.
         21   -1    0    0  505  502  0.00000000000E+00 -0.00000000000E+00 -0.68635760351E+02  0.68635760351E+02  0.00000000000E+00 0. -1.
         21    1    1    2  503  502  0.24836511444E+02 -0.66973952232E+02  0.15701397783E+03  0.17249855597E+03  0.00000000000E+00 0. -1.
         21    1    1    2  504  501 -0.77806314294E+02  0.35971598649E+02  0.14350765703E+03  0.16715928356E+03  0.00000000000E+00 0. -1.
         21    1    1    2  505  504  0.54850052125E+02 -0.99119117455E+01 -0.32629424318E+02  0.64586790785E+02  0.00000000000E+00 0. -1.
          2    1    1    2  501    0 -0.18802492751E+01  0.40914265329E+02  0.91212381810E+03  0.91304291903E+03  0.00000000000E+00 0. -1.
<scales pt_clust_3="52.65942" pt_clust_4="58.31243" pt_clust_5="14000.00000" pt_clust_6="40.95745"></scales>
<clustering>
<clus scale="   40.957">  1  6  2 -1</clus>
<clus scale="   52.659">  1  3  2 -1</clus>
<clus scale="   58.312">  1  4  2 -1</clus>
<clus scale="   58.312">  2  3  1 -1</clus>
</clustering>
</event>
<event>
 6    0  0.4945982E+002  0.1210132E+03  0.7546771E-02  0.1241435E+00
          2   -1    0    0  505    0 -0.00000000000E+00  0.00000000000E+00  0.20038907629E+03  0.20038907629E+03  0.00000000000E+00 0.  1.
         21   -1    0    0  504  502  0.00000000000E+00 -0.00000000000E+00 -0.27564363479E+03  0.27564363479E+03  0.00000000000E+00 0. -1.
         21    1    1    2  503  502  0.14145203112E+03 -0.33224348051E+02 -0.86248156897E+02  0.16897123713E+03  0.00000000000E+00 0. -1.
         21    1    1    2  504  501 -0.35438157942E+02  0.22256141830E+02 -0.99919990064E+02  0.10832914336E+03  0.00000000000E+00 0. -1.
         21    1    1    2  505  503  0.25747605805E+02 -0.16120697725E+02  0.19727246761E+02  0.36221269505E+02  0.00000000000E+00 0. -1.
          2    1    1    2  501    0 -0.13176147898E+03  0.27088903946E+02  0.91186341695E+02  0.16251106107E+03  0.00000000000E+00 0.  1.
<scales pt_clust_3="14000.00000" pt_clust_4="41.10652" pt_clust_5="30.37789" pt_clust_6="121.01324"></scales>
<clustering>
<clus scale="   30.378">  1  5  2 -1</clus>
<clus scale="   41.107">  2  4  1 -1</clus>
<clus scale="  121.013">  1  6  2 -1</clus>
<clus scale="   41.107">  2  3  1 -1</clus>
</clustering>
</event>
<event>
 6    0  0.4945982E+002  0.1609011E+03  0.7546771E-02  0.1187683E+00
          4   -1    0    0  505    0 -0.00000000000E+00  0.00000000000E+00  0.10405062683E+04  0.10405062683E+04  0.00000000000E+00 0. -1.
         21   -1    0    0  504  502  0.00000000000E+00 -0.00000000000E+00 -0.13248290897E+04  0.13248290897E+04  0.00000000000E+00 0.  1.
         21    1    1    2  503  502 -0.77648461198E+02 -0.79121055156E+01 -0.67003546519E+03  0.67456608983E+03  0.00000000000E+00 0.  1.
         21    1    1    2  504  501  0.11975939746E+02 -0.43806109630E+02 -0.22226237077E+03  0.22685449044E+03  0.00000000000E+00 0.  1.
         21    1    1    2  505  503 -0.67234716477E+02 -0.30105752842E+02 -0.41885860464E+03  0.42528742532E+03  0.00000000000E+00 0.  1.
          4    1    1    2  501    0  0.13290723793E+03  0.81823967987E+02  0.10268336192E+04  0.10386273524E+04  0.00000000000E+00 0. -1.
<scales pt_clust_3="38.26049" pt_clust_4="45.41364" pt_clust_5="38.26049" pt_clust_6="156.00704"></scales>
<clustering>
<clus scale="   38.260">  3  5 -1 -1</clus>
<clus scale="   45.414">  2  4  1 -1</clus>
<clus scale="  156.007">  1  6  2 -1</clus>
<clus scale="   45.414">  2  3  1 -1</clus>
</clustering>
</event>
<event>
 6    0  0.4945982E+002  0.1008110E+03  0.7546771E-02  0.1278600E+00
          1   -1    0    0  504    0 -0.00000000000E+00  0.00000000000E+00  0.17588457537E+04  0.17588457537E+04  0.00000000000E+00 0.  1.
         21   -1    0    0  505  502  0.00000000000E+00 -0.00000000000E+00 -0.41632587899E+03  0.41632587899E+03  0.00000000000E+00 0.  1.
         21    1    1    2  503  501  0.48778229036E+02  0.77787178890E+02  0.31925590971E+03  0.33219647306E+03  0.00000000000E+00 0. -1.
         21    1    1    2  504  502 -0.10591238682E+03 -0.76379329807E+02 -0.39064982734E+03  0.41189625309E+03  0.00000000000E+00 0.  1.
         21    1    1    2  505  503  0.28260934532E+02  0.10805881624E+02  0.18818083279E+02  0.35630994324E+02  0.00000000000E+00 0.  1.
          1    1    1    2  501    0  0.28873223257E+02 -0.12213730707E+02  0.13950957091E+04  0.13954479122E+04  0.00000000000E+00 0.  1.
<scales pt_clust_3="14000.00000" pt_clust_4="100.81105" pt_clust_5="30.25636" pt_clust_6="31.35967"></scales>
<clustering>
<clus scale="   30.256">  2  5  1 -1</clus>
<clus scale="   31.360">  1  6  2 -1</clus>
<clus scale="  100.811">  2  4  1 -1</clus>
<clus scale="   30.256">  2  3  1 -1</clus>
</clustering>
</event>
<event>
 6    0  0.4945982E+002  0.1327775E+03  0.7546771E-02  0.1223392E+00
          3   -1    0    0  503    0 -0.00000000000E+00  0.00000000000E+00  0.13178073641E+03  0.13178073641E+03  0.00000000000E+00 0. -1.
         21   -1    0    0  505  502  0.00000000000E+00 -0.00000000000E+00 -0.18127333223E+04  0.18127333223E+04  0.00000000000E+00 0.  1.
         21    1    1    2  503  502 -0.33902653961E+02 -0.18026013250E+02 -0.12183793273E+03  0.12774509365E+03  0.00000000000E+00 0.  1.
         21    1    1    2  504  501  0.29724414305E+02 -0.83171426591E+02 -0.70569051019E+03  0.71119626207E+03  0.00000000000E+00 0.  1.
         21    1    1    2  505  504  0.22289457197E+01 -0.34128950883E+02 -0.94277687635E+03  0.94339704900E+03  0.00000000000E+00 0.  1.
          3    1    1    2  501    0  0.19492939363E+01  0.13532639072E+03  0.89352733401E+02  0.16217565397E+03  0.00000000000E+00 0. -1.
<scales pt_clust_3="40.66064" pt_clust_4="132.77745" pt_clust_5="34.20166" pt_clust_6="14000.00000"></scales>
<clustering>
<clus scale="   34.202">  2  5  1 -1</clus>
<clus scale="   40.661">  2  3  1 -1</clus>
<clus scale="  132.777">  2  4  1 -1</clus>
<clus scale="   34.202">  2  3  1 -1</clus>
</clustering>
</event>
<event>
 6    0  0.4945982E+002  0.1026917E+03  0.7546771E-02  0.1274735E+00
          1   -1    0    0  504    0 -0.00000000000E+00  0.00000000000E+00  0.52500475574E+03  0.52500475574E+03  0.00000000000E+00 0.  1.
         21   -1    0    0  505  502  0.00000000000E+00 -0.00000000000E+00 -0.69863240368E+03  0.69863240368E+03  0.00000000000E+00 0. -1.
         21    1    1    2  503  501 -0.38980039647E+02  0.81773263905E+02 -0.10264816465E+03  0.13690491550E+03  0.00000000000E+00 0. -1.
         21    1    1    2  504  502  0.40122583189E+02 -0.13213391406E+02 -0.54711491217E+03  0.54874323915E+03  0.00000000000E+00 0. -1.
         21    1    1    2  505  503 -0.32743390182E+02  0.13789503286E+02 -0.15312866781E+02  0.38688032911E+02  0.00000000000E+00 0.  1.
          1    1    1    2  501    0  0.31600846640E+02 -0.82349375785E+02  0.49144829566E+03  0.49930097187E+03  0.00000000000E+00 0.  1.
<scales pt_clust_3="32.18728" pt_clust_4="42.24234" pt_clust_5="32.18728" pt_clust_6="88.90450"></scales>
<clustering>
<clus scale="   32.187">  3  5 -1 -1</clus>
<clus scale="   42.242">  2  4  1 -1</clus>
<clus scale="   88.904">  1  6  2 -1</clus>
<clus scale="   42.242">  2  3  1 -1</clus>
</clustering>
</event>
<event>
 6    0  0.4945982E+002  0.8555980E+02  0.7546771E-02  0.1313975E+00
         21   -1    0    0  501  502  0.00000000000E+00  0.00000000000E+00  0.13406093734E+03  0.13406093734E+03  0.00000000000E+00 0. -1.
          2   -1    0    0  504    0 -0.00000000000E+00 -0.00000000000E+00 -0.28504869959E+04  0.28504869959E+04  0.00000000000E+00 0.  1.
         21    1    1    2  503  505 -0.47487743797E+02  0.66559683360E+02 -0.27156035277E+02  0.86155252376E+02  0.00000000000E+00 0. -1.
         21    1    1    2  504  503 -0.28521217211E+02  0.74328488990E+02 -0.12811564197E+03  0.15083700416E+03  0.00000000000E+00 0. -1.
         21    1    1    2  505  502  0.38199658123E+02 -0.78433739559E+02  0.72167485235E+02  0.11322195594E+03  0.00000000000E+00 0. -1.
          2    1    1    2  501    0  0.37809302885E+02 -0.62454432791E+02 -0.26333218666E+04  0.26343337208E+04  0.00000000000E+00 0.  1.
<scales pt_clust_3="14000.00000" pt_clust_4="34.37809" pt_clust_5="85.55980" pt_clust_6="73.00753"></scales>
<clustering>
<clus scale="   73.008">  2  6  1 -1</clus>
<clus scale="   34.378">  2  4  1 -1</clus>
<clus scale="   85.560">  1  5  2 -1</clus>
<clus scale="   85.560">  1  3  2 -1</clus>
</clustering>
</event>
<event>
 6    0  0.4945982E+002  0.1765568E+03  0.7546771E-02  0.1171178E+00
          2   -1    0    0  505    0 -0.00000000000E+00  0.00000000000E+00  0.77787908092E+03  0.77787908092E+03  0.00000000000E+00 0.  1.
         21   -1    0    0  504  502  0.00000000000E+00 -0.00000000000E+00 -0.69845875605E+03  0.69845875605E+03  0.00000000000E+00 0.  1.
         21    1    1    2  503  502 -0.33844715423E+02  0.20973900039E+02 -0.55469970043E+03  0.55612689820E+03  0.00000000000E+00 0.  1.
         21    1    1    2  504  501  0.39258245571E+02  0.15998428172E+03 -0.73831958269E+02  0.18051963412E+03  0.00000000000E+00 0. -1.
         21    1    1    2  505  503 -0.44373435076E+02 -0.20950855381E+02  0.14030581065E+03  0.14863936418E+03  0.00000000000E+00 0.  1.
          2    1    1    2  501    0  0.38959904928E+02 -0.16000732638E+03  0.56764617292E+03  0.59105194046E+03  0.00000000000E+00 0.  1.
<scales pt_clust_3="39.81670" pt_clust_4="14000.00000" pt_clust_5="49.71094" pt_clust_6="176.55682"></scales>
<clustering>
<clus scale="   39.817">  2  3  1 -1</clus>
<clus scale="   49.711">  1  5  2 -1</clus>
<clus scale="  176.557">  1  6  2 -1</clus>
<clus scale="   39.817">  2  3  1 -1</clus>
</clustering>
</event>
<event>
 6    0  0.4945982E+002  0.1182833E+03  0.7546771E-02  0.1245956E+00
         21   -1    0    0  505  502  0.00000000000E+00  0.00000000000E+00  0.11833733394E+02  0.11833733394E+02  0.00000000000E+00 0.  1.
          2   -1    0    0  504    0 -0.00000000000E+00 -0.00000000000E+00 -0.20759053088E+04  0.20759053088E+04  0.00000000000E+00 0.  1.
         21    1    1    2  503  501 -0.59418397686E+02 -0.56441831678E+01 -0.40635744650E+03  0.41071739325E+03  0.00000000000E+00 0.  1.
         21    1    1    2  504  502  0.34096438576E+02 -0.10082747614E+02 -0.13167292648E+03  0.13638910694E+03  0.00000000000E+00 0.  1.
         21    1    1    2  505  503 -0.76253396700E+02  0.12166826812E+02 -0.27998267860E+03  0.29043572869E+03  0.00000000000E+00 0.  1.
          2    1    1    2  501    0  0.10157535581E+03  0.35601039697E+01 -0.12460585238E+04  0.12501968133E+04  0.00000000000E+00 0.  1.
<scales pt_clust_3="43.57051" pt_clust_4="35.55600" pt_clust_5="43.57051" pt_clust_6="109.02927"></scales>
<clustering>
<clus scale="   35.556">  1  4  2 -1</clus>
<clus scale="   43.571">  3  5 -1 -1</clus>
<clus scale="  109.029">  2  6  1 -1</clus>
<clus scale="   35.556">  1  3  2 -1</clus>
</clustering>
</event>
<event>
 6    0  0.4945982E+002  0.7696752E+02  0.7546771E-02  0.1337884E+00
         -3   -1    0    0    0  501 -0.00000000000E+00  0.00000000000E+00  0.42261157465E+03  0.42261157465E+03  0.00000000000E+00 0. -1.
         21   -1    0    0  503  502  0.00000000000E+00 -0.00000000000E+00 -0.43732399448E+03  0.43732399448E+03  0.00000000000E+00 0.  1.
         21    1    1    2  503  505  0.63175283013E+02  0.60706810747E+02 -0.28988891439E+03  0.30283991801E+03  0.00000000000E+00 0.  1.
         21    1    1    2  504  502 -0.72582434513E+02  0.66086965677E+00 -0.10252211008E+03  0.12561619961E+03  0.00000000000E+00 0.  1.
         21    1    1    2  505  501  0.20688761867E+02  0.42247332590E+02  0.84389476021E+01  0.47792026691E+02  0.00000000000E+00 0. -1.
         -3    1    1    2    0  504 -0.11281610367E+02 -0.10361501299E+03  0.36925965703E+03  0.38368742482E+03  0.00000000000E+00 0. -1.
<scales pt_clust_3="76.96752" pt_clust_4="14000.00000" pt_clust_5="47.04107" pt_clust_6="63.86087"></scales>
<clustering>
<clus scale="   47.041">  1  5  2 -1</clus>
<clus scale="   63.861">  1  6  2 -1</clus>
<clus scale="   76.968">  2  3  1 -1</clus>
<clus scale="   76.968">  2  3  1 -1</clus>
</clustering>
</event>
<event>
 6    0  0.4945982E+002  0.1235193E+03  0.7546771E-02  0.1237402E+00
         21   -1    0    0  504  502  0.00000000000E+00  0.00000000000E+00  0.13111598065E+03  0.13111598065E+03  0.00000000000E+00 0.  1.
          2   -1    0    0  505    0 -0.00000000000E+00 -0.00000000000E+00 -0.12818443519E+04  0.12818443519E+04  0.00000000000E+00 0.  1.
         21    1    1    2  503  502 -0.54971415263E+02  0.39134441831E+01 -0.18150617011E+03  0.18968832681E+03  0.00000000000E+00 0.  1.
         21    1    1    2  504  501  0.32412982113E+02  0.16109095100E+01  0.11278880769E+03  0.11736486519E+03  0.00000000000E+00 0.  1.
         21    1    1    2  505  503 -0.64937119968E+02 -0.59739362913E+02 -0.20918685756E+03  0.22703471630E+03  0.00000000000E+00 0.  1.
          2    1    1    2  501    0  0.87495553118E+02  0.54215009220E+02 -0.87282415131E+03  0.87887242428E+03  0.00000000000E+00 0.  1.
<scales pt_clust_3="46.85720" pt_clust_4="32.45299" pt_clust_5="46.85720" pt_clust_6="108.32613"></scales>
<clustering>
<clus scale="   32.453">  1  4  2 -1</clus>
<clus scale="   46.857">  3  5 -1 -1</clus>
<clus scale="  108.326">  2  6  1 -1</clus>
<clus scale="   32.453">  1  3  2 -1</clus>
</clustering>
</event>
<event>
 6    0  0.4945982E+002  0.1429290E+03  0.7546771E-02  0.1209441E+00
          1   -1    0    0  505    0 -0.00000000000E+00  0.00000000000E+00  0.82010479745E+03  0.82010479745E+03  0.00000000000E+00 0. -1.
         21   -1    0    0  504  502  0.00000000000E+00 -0.00000000000E+00 -0.27532360185E+03  0.27532360185E+03  0.00000000000E+00 0.  1.
         21    1    1    2  503  501  0.54890295234E+02 -0.17323245893E+03 -0.13326502387E+03  0.22534860977E+03  0.00000000000E+00 0.  1.
         21    1    1    2  504  503  0.38587863458E+02 -0.14789669638E+02 -0.46106990621E+02  0.61916170088E+02  0.00000000000E+00 0.  1.
         21    1    1    2  505  502 -0.62536937796E+02  0.74958660823E+02  0.27084627202E+02  0.10130768210E+03  0.00000000000E+00 0.  1.
          1    1    1    2  501    0 -0.30941220897E+02  0.11306346775E+03  0.69706858290E+03  0.70685593734E+03  0.00000000000E+00 0. -1.
<scales pt_clust_3="37.71909" pt_clust_4="37.71909" pt_clust_5="97.62003" pt_clust_6="119.04807"></scales>
<clustering>
<clus scale="   37.719">  3  4 -1 -1</clus>
<clus scale="   97.620">  2  5  1 -1</clus>
<clus scale="  119.048">  1  6  2 -1</clus>
<clus scale="   97.620">  2  3  1 -1</clus>
</clustering>
</event>
<event>
 6    0  0.4945982E+002  0.8802434E+02  0.7546771E-02  0.1307708E+00
         21   -1    0    0  505  502  0.00000000000E+00  0.00000000000E+00  0.66344469722E+03  0.66344469722E+03  0.00000000000E+00 0. -1.
          2   -1    0    0  503    0 -0.00000000000E+00 -0.00000000000E+00 -0.13435727606E+03  0.13435727606E+03  0.00000000000E+00 0.  1.
         21    1    1    2  503  504  0.55001939989E+02  0.13844435512E+03  0.13464686399E+03  0.20080296524E+03  0.00000000000E+00 0. -1.
         21    1    1    2  504  502 -0.73064170131E+02 -0.25171191889E+02  0.27663282477E+03  0.28722409648E+03  0.00000000000E+00 0. -1.
         21    1    1    2  505  501  0.49856942805E+02 -0.38331766726E+02  0.19051473320E+03  0.20062627608E+03  0.00000000000E+00 0. -1.
          2    1    1    2  501    0 -0.31794712663E+02 -0.74941396503E+02 -0.72707000795E+02  0.10914863548E+03  0.00000000000E+00 0.  1.
<scales pt_clust_3="88.02434" pt_clust_4="64.65874" pt_clust_5="62.88910" pt_clust_6="14000.00000"></scales>
<clustering>
<clus scale="   62.889">  1  5  2 -1</clus>
<clus scale="   64.659">  1  4  2 -1</clus>
<clus scale="   88.024">  1  3  2 -1</clus>
<clus scale="   62.889">  1  3  2 -1</clus>
</clustering>
</event>
<event>
 6    0  0.4945982E+002  0.1062326E+03  0.7546771E-02  0.1267710E+00
         21   -1    0    0  504  502  0.00000000000E+00  0.00000000000E+00  0.62606517040E+03  0.62606517040E+03  0.00000000000E+00 0. -1.
          2   -1    0    0  505    0 -0.00000000000E+00 -0.00000000000E+00 -0.27289538101E+04  0.27289538101E+04  0.00000000000E+00 0.  1.
         21    1    1    2  503  501  0.71097667512E+02  0.57561193785E+02  0.70964880774E+02  0.11577643827E+03  0.00000000000E+00 0. -1.
         21    1    1    2  504  503  0.32736451094E+02 -0.94882565095E+00  0.14355298317E+03  0.14724141563E+03  0.00000000000E+00 0.  1.
         21    1    1    2  505  502 -0.85578582372E+02 -0.94338997505E+02  0.37665763131E+03  0.39761100518E+03  0.00000000000E+00 0. -1.
          2    1    1    2  501    0 -0.18255536235E+02  0.37726629371E+02 -0.26940641349E+04  0.26943901214E+04  0.00000000000E+00 0.  1.
<scales pt_clust_3="106.23264" pt_clust_4="32.75020" pt_clust_5="14000.00000" pt_clust_6="41.90625"></scales>
<clustering>
<clus scale="   32.750">  1  4  2 -1</clus>
<clus scale="   41.906">  2  6  1 -1</clus>
<clus scale="  106.233">  2  3  1 -1</clus>
<clus scale="   32.750">  1  3  2 -1</clus>
</clustering>
</event>
<event>
 6    0  0.4945982E+002  0.1164419E+03  0.7546771E-02  0.1249085E+00
         21   -1    0    0  505  502  0.00000000000E+00  0.00000000000E+00  0.55820974935E+02  0.55820974935E+02  0.00000000000E+00 0. -1.
          2   -1    0    0  503    0 -0.00000000000E+00 -0.00000000000E+00 -0.51709165598E+04  0.51709165598E+04  0.00000000000E+00 0.  1.
         21    1    1    2  503  504  0.27136758515E+02 -0.10641464685E+03 -0.87526530342E+02  0.14043281042E+03  0.00000000000E+00 0. -1.
         21    1    1    2  504  502 -0.13206173339E+02  0.33694759275E+02  0.13996022948E+02  0.38802428728E+02  0.00000000000E+00 0. -1.
         21    1    1    2  505  501 -0.97089191355E+01 -0.43887216841E+02 -0.22096817101E+03  0.22549342232E+03  0.00000000000E+00 0.  1.
          2    1    1    2  501    0 -0.42216660401E+01  0.11660710442E+03 -0.48205969065E+04  0.48220088733E+04  0.00000000000E+00 0.  1.
<scales pt_clust_3="14000.00000" pt_clust_4="36.19033" pt_clust_5="42.66583" pt_clust_6="116.44185"></scales>
<clustering>
<clus scale="   36.190">  1  4  2 -1</clus>
<clus scale="   42.666">  1  5  2 -1</clus>
<clus scale="  116.442">  2  6  1 -1</clus>
<clus scale="   36.190">  1  3  2 -1</clus>
</clustering>
</event>
<event>
 6    0  0.4945982E+002  0.1041010E+03  0.7546771E-02  0.1271901E+00
          1   -1    0    0  502    0 -0.00000000000E+00  0.00000000000E+00  0.25405907429E+03  0.25405907429E+03  0.00000000000E+00 0.  1.
         21   -1    0    0  505  502  0.00000000000E+00 -0.00000000000E+00 -0.37079822509E+03  0.37079822509E+03  0.00000000000E+00 0. -1.
         21    1    1    2  503  504 -0.57557974486E+02 -0.48918726196E+02 -0.12071695599E+03  0.14240275862E+03  0.00000000000E+00 0. -1.
         21    1    1    2  504  501  0.72143724092E+02  0.12100541307E+03 -0.69850547967E+02  0.15724543227E+03  0.00000000000E+00 0. -1.
         21    1    1    2  505  503  0.58578994963E+02 -0.74125745976E+02 -0.99409556770E+02  0.13714366498E+03  0.00000000000E+00 0. -1.
          1    1    1    2  501    0 -0.73164744569E+02  0.20390591005E+01  0.17323790993E+03  0.18806544352E+03  0.00000000000E+00 0.  1.
<scales pt_clust_3="14000.00000" pt_clust_4="104.10102" pt_clust_5="83.66123" pt_clust_6="73.19315"></scales>
<clustering>
<clus scale="   73.193">  1  6  2 -1</clus>
<clus scale="   83.661">  2  5  1 -1</clus>
<clus scale="  104.101">  1  4  2 -1</clus>
<clus scale="   83.661">  2  3  1 -1</clus>
</clustering>
</event>
<event>
 6    0  0.4945982E+002  0.4889366E+03  0.7546771E-02  0.1016708E+00
          2   -1    0    0  503    0 -0.00000000000E+00  0.00000000000E+00  0.84886459840E+03  0.84886459840E+03  0.00000000000E+00 0.  1.
         21   -1    0    0  504  502  0.00000000000E+00 -0.00000000000E+00 -0.10283133401E+04  0.10283133401E+04  0.00000000000E+00 0. -1.
         21    1    1    2  503  502  0.39817584334E+03 -0.27846767234E+03 -0.35993967203E+03  0.60468571528E+03  0.00000000000E+00 0.  1.
         21    1    1    2  504  505 -0.51334530742E+02  0.38130274481E+02 -0.22762111425E+02  0.67876841375E+02  0.00000000000E+00 0. -1.
         21    1    1    2  505  501 -0.36543818812E+03  0.19317866357E+03 -0.41414966808E+03  0.58513503823E+03  0.00000000000E+00 0. -1.
          2    1    1    2  501    0  0.18596875525E+02  0.47158734292E+02  0.61740270984E+03  0.61948034361E+03  0.00000000000E+00 0.  1.
<scales pt_clust_3="480.34329" pt_clust_4="35.89634" pt_clust_5="35.89634" pt_clust_6="50.69310"></scales>
<clustering>
<clus scale="   35.896">  4  5 -1 -1</clus>
<clus scale="   50.693">  1  6  2 -1</clus>
<clus scale="  480.343">  1  3  2 -1</clus>
<clus scale="  488.937">  2  3  1 -1</clus>
</clustering>
</event>
<event>
 6    0  0.4945982E+002  0.2311699E+03  0.7546771E-02  0.1125819E+00
         21   -1    0    0  505  502  0.00000000000E+00  0.00000000000E+00  0.42410422386E+03  0.42410422386E+03  0.00000000000E+00 0.  1.
          2   -1    0    0  503    0 -0.00000000000E+00 -0.00000000000E+00 -0.22615629704E+04  0.22615629704E+04  0.00000000000E+00 0.  1.
         21    1    1    2  503  502 -0.91622373790E+02 -0.21381412140E+03  0.30198427566E+03  0.38118976984E+03  0.00000000000E+00 0.  1.
         21    1    1    2  504  501  0.18865560219E+03  0.17473343939E+03 -0.35500709137E+03  0.43835230808E+03  0.00000000000E+00 0. -1.
         21    1    1    2  505  504 -0.51364231169E+02  0.36225647667E+02  0.16200061410E+02  0.64907809871E+02  0.00000000000E+00 0. -1.
          2    1    1    2  501    0 -0.45668997231E+02  0.28550343421E+01 -0.18006359922E+04  0.18012173064E+04  0.00000000000E+00 0.  1.
<scales pt_clust_3="14000.00000" pt_clust_4="231.16994" pt_clust_5="64.92620" pt_clust_6="45.75815"></scales>
<clustering>
<clus scale="   45.758">  2  6  1 -1</clus>
<clus scale="   64.926">  1  5  2 -1</clus>
<clus scale="  231.170">  2  4  1 -1</clus>
<clus scale="   64.926">  1  3  2 -1</clus>
</clustering>
</event>
<event>
 6    0  0.4945982E+002  0.1147698E+03  0.7546771E-02  0.1251983E+00
         21   -1    0    0  503  502  0.00000000000E+00  0.00000000000E+00  0.27231384716E+03  0.27231384716E+03  0.00000000000E+00 0. -1.
          2   -1    0    0  505    0 -0.00000000000E+00 -0.00000000000E+00 -0.19386987879E+03  0.19386987879E+03  0.00000000000E+00 0. -1.
         21    1    1    2  503  504  0.14383388375E+02  0.42753130339E+02  0.44526221847E+02  0.63382146121E+02  0.00000000000E+00 0. -1.
         21    1    1    2  504  501  0.75787861824E+02  0.49502064245E+02  0.14204888156E+03  0.16844031322E+03  0.00000000000E+00 0. -1.
         21    1    1    2  505  502 -0.32920928507E+01 -0.37547504893E+02  0.39462340307E+02  0.54570406829E+02  0.00000000000E+00 0. -1.
          2    1    1    2  501    0 -0.86879157348E+02 -0.54707689691E+02 -0.14759347535E+03  0.17979085978E+03  0.00000000000E+00 0. -1.
<scales pt_clust_3="33.77688" pt_clust_4="33.77688" pt_clust_5="37.69155" pt_clust_6="104.31973"></scales>
<clustering>
<clus scale="   33.777">  3  4 -1 -1</clus>
<clus scale="   37.692">  1  5  2 -1</clus>
<clus scale="  104.320">  2  6  1 -1</clus>
<clus scale="   37.692">  1  3  2 -1</clus>
</clustering>
</event>
<event>
 6    0  0.4945982E+002  0.1721719E+03  0.7546771E-02  0.1175602E+00
          1   -1    0    0  505    0 -0.00000000000E+00  0.00000000000E+00  0.40404696235E+03  0.40404696235E+03  0.00000000000E+00 0. -1.
         21   -1    0    0  504  502  0.00000000000E+00 -0.00000000000E+00 -0.29961905348E+03  0.29961905348E+03  0.00000000000E+00 0.  1.
         21    1    1    2  503  501  0.93145243397E+02 -0.54546408585E+02 -0.13390113201E+03  0.17199087247E+03  0.00000000000E+00 0.  1.
         21    1    1    2  504  503  0.69396271753E+02 -0.36920970709E+01 -0.11159889102E+03  0.13146781580E+03  0.00000000000E+00 0.  1.
         21    1    1    2  505  502 -0.12231659968E+03  0.32992771356E+02  0.15814581512E+03  0.20263260438E+03  0.00000000000E+00 0.  1.
          1    1    1    2  501    0 -0.40224915466E+02  0.25245734300E+02  0.19178211679E+03  0.19757472319E+03  0.00000000000E+00 0. -1.
<scales pt_clust_3="35.93242" pt_clust_4="35.93242" pt_clust_5="166.24595" pt_clust_6="47.49096"></scales>
<clustering>
<clus scale="   35.932">  3  4 -1 -1</clus>
<clus scale="   47.491">  1  6  2 -1</clus>
<clus scale="  166.246">  1  5  2 -1</clus>
<clus scale="  172.172">  2  3  1 -1</clus>
</clustering>
</event>
<event>
 6    0  0.4945982E+002  0.1286149E+03  0.7546771E-02  0.1229526E+00
         21   -1    0    0  505  502  0.00000000000E+00  0.00000000000E+00  0.97437307223E+01  0.97437307223E+01  0.00000000000E+00 0.  1.
         -1   -1    0    0    0  501 -0.00000000000E+00 -0.00000000000E+00 -0.30598811049E+04  0.30598811049E+04  0.00000000000E+00 0.  1.
         21    1    1    2  503  504  0.18932277700E+01  0.88544873212E+02 -0.65205607597E+03  0.65804323953E+03  0.00000000000E+00 0.  1.
         21    1    1    2  504  502  0.19110230823E+02  0.38737605534E+02 -0.14089874355E+03  0.14737116047E+03  0.00000000000E+00 0.  1.
         21    1    1    2  505  501 -0.38237250707E+02 -0.15623338703E+02 -0.21665081483E+03  0.22055328522E+03  0.00000000000E+00 0.  1.
         -1    1    1    2    0  503  0.17233792114E+02 -0.11165914004E+03 -0.20405317398E+04  0.20436571504E+04  0.00000000000E+00 0.  1.
<scales pt_clust_3="39.95402" pt_clust_4="39.95402" pt_clust_5="41.30588" pt_clust_6="115.19011"></scales>
<clustering>
<clus scale="   39.954">  3  4 -1 -1</clus>
<clus scale="   41.306">  1  5  2 -1</clus>
<clus scale="  115.190">  2  6  1 -1</clus>
<clus scale="   41.306">  1  3  2 -1</clus>
</clustering>
</event>
<event>
 6    0  0.4945982E+002  0.2872985E+03  0.7546771E-02  0.1091768E+00
         21   -1    0    0  501  502  0.00000000000E+00  0.00000000000E+00  0.13588646081E+04  0.13588646081E+04  0.00000000000E+00 0.  1.
          1   -1    0    0  505    0 -0.00000000000E+00 -0.00000000000E+00 -0.30632500182E+03  0.30632500182E+03  0.00000000000E+00 0.  1.
         21    1    1    2  503  504 -0.59641993358E+02 -0.87628427858E+02  0.34782947784E+03  0.36362240634E+03  0.00000000000E+00 0. -1.
         21    1    1    2  504  502  0.65021606309E+02 -0.64618801626E+02  0.74662045305E+03  0.75222702672E+03  0.00000000000E+00 0.  1.
         21    1    1    2  505  503 -0.30345991998E+02 -0.12081052639E+03  0.16435394255E+03  0.20622386125E+03  0.00000000000E+00 0. -1.
          1    1    1    2  501    0  0.24966379047E+02  0.27305775587E+03 -0.20626426716E+03  0.34311631560E+03  0.00000000000E+00 0.  1.
<scales pt_clust_3="98.98138" pt_clust_4="91.67005" pt_clust_5="98.98138" pt_clust_6="267.75390"></scales>
<clustering>
<clus scale="   91.670">  1  4  2 -1</clus>
<clus scale="   98.981">  3  5 -1 -1</clus>
<clus scale="  267.754">  2  6  1 -1</clus>
<clus scale="   91.670">  1  3  2 -1</clus>
</clustering>
</event>
<event>
 6    0  0.4945982E+002  0.8814202E+02  0.7546771E-02  0.1307414E+00
         21   -1    0    0  503  502  0.00000000000E+00  0.00000000000E+00  0.11714654535E+03  0.11714654535E+03  0.00000000000E+00 0.  1.
          2   -1    0    0  504    0 -0.00000000000E+00 -0.00000000000E+00 -0.46900232971E+03  0.46900232971E+03  0.00000000000E+00 0.  1.
         21    1    1    2  503  501 -0.38783447248E+02 -0.55828831113E+02 -0.26904354468E+02  0.73108538853E+02  0.00000000000E+00 0.  1.
         21    1    1    2  504  505 -0.35508713723E+02  0.15823994273E+01 -0.10646310725E+03  0.11223976988E+03  0.00000000000E+00 0.  1.
         21    1    1    2  505  502  0.42169444369E+02  0.90475918590E+02  0.61109822711E+02  0.11704086600E+03  0.00000000000E+00 0.  1.
          2    1    1    2  501    0  0.32122716601E+02 -0.36229486904E+02 -0.27959814535E+03  0.28375970032E+03  0.00000000000E+00 0.  1.
<scales pt_clust_3="14000.00000" pt_clust_4="35.54396" pt_clust_5="88.14202" pt_clust_6="35.25487"></scales>
<clustering>
<clus scale="   35.544">  2  4  1 -1</clus>
<clus scale="   35.255">  2  6  1 -1</clus>
<clus scale="   88.142">  1  5  2 -1</clus>
<clus scale="   88.142">  1  3  2 -1</clus>
</clustering>
</event>
<event>
 6    0  0.4945982E+002  0.1746727E+03  0.7546771E-02  0.1173061E+00
         -1   -1    0    0    0  501 -0.00000000000E+00  0.00000000000E+00  0.12082424328E+04  0.12082424328E+04  0.00000000000E+00 0. -1.
         21   -1    0    0  501  502  0.00000000000E+00 -0.00000000000E+00 -0.28178882347E+03  0.28178882347E+03  0.00000000000E+00 0. -1.
         21    1    1    2  503  502 -0.80972107872E+02 -0.64264642345E+02 -0.10360777181E+03  0.14635913668E+03  0.00000000000E+00 0. -1.
         21    1    1    2  504  505  0.82888622620E+02  0.60556334962E+02  0.51148354339E+02  0.11468978863E+03  0.00000000000E+00 0.  1.
         21    1    1    2  505  503 -0.10287622943E+03 -0.12135936844E+02 -0.10074385128E+03  0.14449956095E+03  0.00000000000E+00 0. -1.
         -1    1    1    2    0  504  0.10095971468E+03  0.15844244227E+02  0.10796568781E+04  0.10844827700E+04  0.00000000000E+00 0. -1.
<scales pt_clust_3="56.52707" pt_clust_4="165.25315" pt_clust_5="56.52707" pt_clust_6="102.19542"></scales>
<clustering>
<clus scale="   56.527">  3  5 -1 -1</clus>
<clus scale="  102.195">  1  6  2 -1</clus>
<clus scale="  165.253">  1  4  2 -1</clus>
<clus scale="  174.673">  2  3  1 -1</clus>
</clustering>
</event>
<event>
 6    0  0.4945982E+002  0.6671223E+02  0.7546771E-02  0.1371644E+00
         21   -1    0    0  505  502  0.00000000000E+00  0.00000000000E+00  0.41852394698E+03  0.41852394698E+03  0.00000000000E+00 0. -1.
          2   -1    0    0  504    0 -0.00000000000E+00 -0.00000000000E+00 -0.24818781293E+04  0.24818781293E+04  0.00000000000E+00 0.  1.
         21    1    1    2  503  502 -0.10380088941E+02  0.64982118960E+02  0.34918777875E+03  0.35533438739E+03  0.00000000000E+00 0. -1.
         21    1    1    2  504  503  0.17897514481E+02 -0.90290446096E+02 -0.60991931504E+02  0.11042056597E+03  0.00000000000E+00 0.  1.
         21    1    1    2  505  501  0.13393935045E+02  0.59139166871E+02  0.19168828761E+02  0.63594673914E+02  0.00000000000E+00 0. -1.
          2    1    1    2  501    0 -0.20911360585E+02 -0.33830839735E+02 -0.23707188584E+04  0.23710524491E+04  0.00000000000E+00 0.  1.
<scales pt_clust_3="14000.00000" pt_clust_4="66.71223" pt_clust_5="53.17213" pt_clust_6="39.77198"></scales>
<clustering>
<clus scale="   39.772">  2  6  1 -1</clus>
<clus scale="   53.172">  2  5  1 -1</clus>
<clus scale="   66.712">  2  4  1 -1</clus>
<clus scale="   66.712">  1  3  2 -1</clus>
</clustering>
</event>
<event>
 6    0  0.4945982E+002  0.1049461E+03  0.7546771E-02  0.1270226E+00
         21   -1    0    0  505  502  0.00000000000E+00  0.00000000000E+00  0.45949218863E+03  0.45949218863E+03  0.00000000000E+00 0.  1.
          2   -1    0    0  503    0 -0.00000000000E+00 -0.00000000000E+00 -0.38082778417E+03  0.38082778417E+03  0.00000000000E+00 0.  1.
         21    1    1    2  503  502  0.60166928408E+02 -0.49982114737E+01  0.37322379625E+01  0.60489428764E+02  0.00000000000E+00 0.  1.
         21    1    1    2  504  501  0.31013819174E+01 -0.13398345543E+03  0.13775457793E+03  0.19219133341E+03  0.00000000000E+00 0.  1.
         21    1    1    2  505  504  0.41376371048E+02  0.88912366452E+02  0.24220037992E+03  0.26130142943E+03  0.00000000000E+00 0.  1.
          2    1    1    2  501    0 -0.10464468137E+03  0.50069300450E+02 -0.30502279136E+03  0.32633778119E+03  0.00000000000E+00 0.  1.
<scales pt_clust_3="60.37418" pt_clust_4="104.94615" pt_clust_5="14000.00000" pt_clust_6="68.22542"></scales>
<clustering>
<clus scale="   60.374">  2  3  1 -1</clus>
<clus scale="   68.225">  2  6  1 -1</clus>
<clus scale="  104.946">  2  4  1 -1</clus>
<clus scale="  104.946">  1  3  2 -1</clus>
</clustering>
</event>
<event>
 6    0  0.4945982E+002  0.2569245E+03  0.7546771E-02  0.1109005E+00
         -4   -1    0    0    0  501 -0.00000000000E+00  0.00000000000E+00  0.95371681855E+03  0.95371681855E+03  0.00000000000E+00 0.  1.
         21   -1    0    0  504  502  0.00000000000E+00 -0.00000000000E+00 -0.31172768605E+03  0.31172768605E+03  0.00000000000E+00 0.  1.
         21    1    1    2  503  501  0.64305048505E+02 -0.10229724736E+03 -0.81444144394E+01  0.12110407741E+03  0.00000000000E+00 0. -1.
         21    1    1    2  504  503  0.12047525303E+03 -0.14758056334E+03 -0.15583012778E+03  0.24612463913E+03  0.00000000000E+00 0.  1.
         21    1    1    2  505  502 -0.44301363084E+02  0.69102042992E+02  0.27162160321E+02  0.86460893299E+02  0.00000000000E+00 0. -1.
         -4    1    1    2    0  505 -0.14047893845E+03  0.18077576770E+03  0.77880151440E+03  0.81175489476E+03  0.00000000000E+00 0.  1.
<scales pt_clust_3="93.60825" pt_clust_4="93.60825" pt_clust_5="82.08351" pt_clust_6="233.71691"></scales>
<clustering>
<clus scale="   82.084">  2  5  1 -1</clus>
<clus scale="   93.608">  3  4 -1 -1</clus>
<clus scale="  233.717">  1  6  2 -1</clus>
<clus scale="   82.084">  2  3  1 -1</clus>
</clustering>
</event>
<event>
 6    0  0.4945982E+002  0.7833083E+02  0.7546771E-02  0.1333856E+00
         21   -1    0    0  503  502  0.00000000000E+00  0.00000000000E+00  0.90970168873E+03  0.90970168873E+03  0.00000000000E+00 0.  1.
         -4   -1    0    0    0  501 -0.00000000000E+00 -0.00000000000E+00 -0.31708415435E+02  0.31708415435E+02  0.00000000000E+00 0. -1.
         21    1    1    2  503  505  0.22407519438E+02  0.78167632950E+02  0.48071720375E+03  0.48754620883E+03  0.00000000000E+00 0.  1.
         21    1    1    2  504  502  0.43163281915E+00 -0.76224675659E+02  0.32094270935E+03  0.32987059610E+03  0.00000000000E+00 0. -1.
         21    1    1    2  505  501 -0.44478335036E+02  0.30467049428E+02  0.62737374567E+02  0.82719656407E+02  0.00000000000E+00 0. -1.
         -4    1    1    2    0  504  0.21639182779E+02 -0.32410006720E+02  0.13595985630E+02  0.41273642827E+02  0.00000000000E+00 0. -1.
<scales pt_clust_3="78.33083" pt_clust_4="14000.00000" pt_clust_5="34.65348" pt_clust_6="38.97002"></scales>
<clustering>
<clus scale="   38.970">  2  6  1 -1</clus>
<clus scale="   34.653">  2  5  1 -1</clus>
<clus scale="   78.331">  1  3  2 -1</clus>
<clus scale="   78.331">  1  3  2 -1</clus>
</clustering>
</event>
<event>
 6    0  0.4945982E+002  0.6661305E+02  0.7546771E-02  0.1372005E+00
         21   -1    0    0  503  502  0.00000000000E+00  0.00000000000E+00  0.13192415210E+02  0.13192415210E+02  0.00000000000E+00 0.  1.
          2   -1    0    0  505    0 -0.00000000000E+00 -0.00000000000E+00 -0.19855343063E+04  0.19855343063E+04  0.00000000000E+00 0. -1.
         21    1    1    2  503  501 -0.45647216820E+02 -0.82243832250E+01 -0.17786733307E+03  0.18381538852E+03  0.00000000000E+00 0.  1.
         21    1    1    2  504  502  0.96689008029E+02  0.29210322524E+02 -0.31501611777E+03  0.33081288015E+03  0.00000000000E+00 0.  1.
         21    1    1    2  505  504  0.21015351113E+02 -0.26587421804E+02 -0.22273925072E+03  0.22530270702E+03  0.00000000000E+00 0.  1.
          2    1    1    2  501    0 -0.72057142323E+02  0.56014825047E+01 -0.12567191895E+04  0.12587957458E+04  0.00000000000E+00 0. -1.
<scales pt_clust_3="44.84802" pt_clust_4="14000.00000" pt_clust_5="33.89006" pt_clust_6="66.61305"></scales>
<clustering>
<clus scale="   33.890">  2  5  1 -1</clus>
<clus scale="   44.848">  1  3  2 -1</clus>
<clus scale="   66.613">  2  6  1 -1</clus>
<clus scale="   44.848">  1  3  2 -1</clus>
</clustering>
</event>
<event>
 6    0  0.4945982E+002  0.1012766E+03  0.7546771E-02  0.1277634E+00
         21   -1    0    0  504  502  0.00000000000E+00  0.00000000000E+00  0.35245423440E+02  0.35245423440E+02  0.00000000000E+00 0.  1.
         -3   -1    0    0    0  501 -0.00000000000E+00 -0.00000000000E+00 -0.12639616469E+04  0.12639616469E+04  0.00000000000E+00 0. -1.
         21    1    1    2  503  502  0.14303309480E+02 -0.26932261562E+02 -0.16063883199E+02  0.34467081663E+02  0.00000000000E+00 0.  1.
         21    1    1    2  504  501  0.10742226528E+03  0.21753117930E+02 -0.12976088948E+03  0.16985473104E+03  0.00000000000E+00 0.  1.
         21    1    1    2  505  503 -0.25189278872E+02  0.32137478907E+02 -0.11928766461E+03  0.12608276746E+03  0.00000000000E+00 0. -1.
         -3    1    1    2    0  505 -0.96536295892E+02 -0.26958335275E+02 -0.96360378620E+03  0.96880249021E+03  0.00000000000E+00 0. -1.
<scales pt_clust_3="30.49478" pt_clust_4="101.27664" pt_clust_5="36.92307" pt_clust_6="14000.00000"></scales>
<clustering>
<clus scale="   30.495">  1  3  2 -1</clus>
<clus scale="   36.923">  1  5  2 -1</clus>
<clus scale="  101.277">  1  4  2 -1</clus>
<clus scale="   30.495">  1  3  2 -1</clus>
</clustering>
</event>
<event>
 6    0  0.4945982E+002  0.6676268E+02  0.7546771E-02  0.1371461E+00
         21   -1    0    0  503  502  0.00000000000E+00  0.00000000000E+00  0.12700398256E+04  0.12700398256E+04  0.00000000000E+00 0.  1.
          2   -1    0    0  505    0 -0.00000000000E+00 -0.00000000000E+00 -0.21376369262E+04  0.21376369262E+04  0.00000000000E+00 0.  1.
         21    1    1    2  503  504  0.14481640046E+02  0.38611382203E+02  0.87749462666E+03  0.87846307637E+03  0.00000000000E+00 0.  1.
         21    1    1    2  504  501  0.50038360184E+00 -0.95579728029E+02  0.34999585517E+03  0.36281239426E+03  0.00000000000E+00 0. -1.
         21    1    1    2  505  502  0.43312513096E+02  0.24366530579E+02  0.17553162012E+02  0.52704981736E+02  0.00000000000E+00 0. -1.
          2    1    1    2  501    0 -0.58294536743E+02  0.32601815247E+02 -0.21126407444E+04  0.21136962995E+04  0.00000000000E+00 0.  1.
<scales pt_clust_3="41.23781" pt_clust_4="14000.00000" pt_clust_5="52.57713" pt_clust_6="66.76268"></scales>
<clustering>
<clus scale="   41.238">  1  3  2 -1</clus>
<clus scale="   52.577">  1  5  2 -1</clus>
<clus scale="   66.763">  2  6  1 -1</clus>
<clus scale="   41.238">  1  3  2 -1</clus>
</clustering>
</event>
<event>
 6    0  0.4945982E+002  0.1327934E+03  0.7546771E-02  0.1223369E+00
         21   -1    0    0  504  502  0.00000000000E+00  0.00000000000E+00  0.17233073699E+03  0.17233073699E+03  0.00000000000E+00 0.  1.
          2   -1    0    0  505    0 -0.00000000000E+00 -0.00000000000E+00 -0.66728233460E+03  0.66728233460E+03  0.00000000000E+00 0.  1.
         21    1    1    2  503  501 -0.70012390458E+02  0.90910099241E+02 -0.73125830826E+02  0.13606530820E+03  0.00000000000E+00 0.  1.
         21    1    1    2  504  503  0.11269168072E+03 -0.85206415188E+02  0.76786013823E+02  0.16079689055E+03  0.00000000000E+00 0.  1.
         21    1    1    2  505  502 -0.81812303209E+02 -0.39706383043E+02 -0.80538189349E+02  0.12147530512E+03  0.00000000000E+00 0.  1.
          2    1    1    2  501    0  0.39133012949E+02  0.34002698989E+02 -0.41807359126E+03  0.42127556771E+03  0.00000000000E+00 0.  1.
<scales pt_clust_3="132.79339" pt_clust_4="14000.00000" pt_clust_5="70.73570" pt_clust_6="51.84184"></scales>
<clustering>
<clus scale="   51.842">  2  6  1 -1</clus>
<clus scale="   70.736">  2  5  1 -1</clus>
<clus scale="  132.793">  2  3  1 -1</clus>
<clus scale="  132.793">  1  3  2 -1</clus>
</clustering>
</event>
<event>
 6    0  0.4945982E+002  0.5290230E+02  0.7546771E-02  0.1430288E+00
          1   -1    0    0  503    0 -0.00000000000E+00  0.00000000000E+00  0.11229375450E+04  0.11229375450E+04  0.00000000000E+00 0.  1.
         21   -1    0    0  505  502  0.00000000000E+00 -0.00000000000E+00 -0.25839119180E+03  0.25839119180E+03  0.00000000000E+00 0. -1.
         21    1    1    2  503  502 -0.73181165871E+02 -0.39271369713E+02 -0.23243589525E+03  0.24682821743E+03  0.00000000000E+00 0. -1.
         21    1    1    2  504  501  0.75484124841E+02  0.25164397395E+02  0.31300635094E+03  0.32296141523E+03  0.00000000000E+00 0.  1.
         21    1    1    2  505  504  0.46873568069E+02  0.79889299007E+01  0.30621185008E+02  0.56556267167E+02  0.00000000000E+00 0.  1.
          1    1    1    2  501    0 -0.49176527039E+02  0.61180424176E+01  0.75335471254E+03  0.75498283700E+03  0.00000000000E+00 0.  1.
<scales pt_clust_3="41.73649" pt_clust_4="52.90230" pt_clust_5="47.54949" pt_clust_6="14000.00000"></scales>
<clustering>
<clus scale="   47.549">  2  5  1 -1</clus>
<clus scale="   41.736">  2  3  1 -1</clus>
<clus scale="   52.902">  2  4  1 -1</clus>
<clus scale="   47.549">  2  3  1 -1</clus>
</clustering>
</event>
<event>
 6    0  0.4945982E+002  0.1546689E+03  0.7546771E-02  0.1194850E+00
          1   -1    0    0  504    0 -0.00000000000E+00  0.00000000000E+00  0.63938801698E+03  0.63938801698E+03  0.00000000000E+00 0.  1.
         21   -1    0    0  503  502  0.00000000000E+00 -0.00000000000E+00 -0.31746981251E+03  0.31746981251E+03  0.00000000000E+00 0.  1.
         21    1    1    2  503  505 -0.11603523576E+03  0.80208980999E+02  0.63916256015E+01  0.14120378695E+03  0.00000000000E+00 0.  1.
         21    1    1    2  504  502  0.95098761843E+02 -0.41131228798E+02 -0.15523098841E+03  0.18663389898E+03  0.00000000000E+00 0.  1.
         21    1    1    2  505  501 -0.70362798358E+02  0.66907072737E+02 -0.35813369546E+02  0.10348950291E+03  0.00000000000E+00 0.  1.
          1    1    1    2  501    0  0.91299272272E+02 -0.10598482494E+03  0.50657093682E+03  0.52553064065E+03  0.00000000000E+00 0.  1.
<scales pt_clust_3="42.48139" pt_clust_4="103.61251" pt_clust_5="42.48139" pt_clust_6="145.94750"></scales>
<clustering>
<clus scale="   42.481">  3  5 -1 -1</clus>
<clus scale="  103.613">  2  4  1 -1</clus>
<clus scale="  145.947">  1  6  2 -1</clus>
<clus scale="  103.613">  2  3  1 -1</clus>
</clustering>
</event>
<event>
 6    0  0.4945982E+002  0.3701816E+03  0.7546771E-02  0.1054624E+00
          1   -1    0    0  505    0 -0.00000000000E+00  0.00000000000E+00  0.46090120680E+04  0.46090120680E+04  0.00000000000E+00 0.  1.
         21   -1    0    0  504  502  0.00000000000E+00 -0.00000000000E+00 -0.63077390605E+02  0.63077390605E+02  0.00000000000E+00 0. -1.
         21    1    1    2  503  502  0.11319800910E+03  0.15714239887E+03  0.32680167814E+03  0.37987742710E+03  0.00000000000E+00 0. -1.
         21    1    1    2  504  501 -0.28208602036E+02  0.23872372686E+02  0.12587308398E+03  0.13118555057E+03  0.00000000000E+00 0. -1.
         21    1    1    2  505  503  0.15970225220E+03  0.82363161323E+02  0.29238104603E+03  0.34318388042E+03  0.00000000000E+00 0. -1.
          1    1    1    2  501    0 -0.24469165927E+03 -0.26337793288E+03  0.38008788693E+04  0.38178426005E+04  0.00000000000E+00 0.  1.
<scales pt_clust_3="82.26526" pt_clust_4="36.95423" pt_clust_5="82.26526" pt_clust_6="359.77980"></scales>
<clustering>
<clus scale="   36.954">  2  4  1 -1</clus>
<clus scale="   82.265">  3  5 -1 -1</clus>
<clus scale="  359.780">  1  6  2 -1</clus>
<clus scale="   36.954">  2  3  1 -1</clus>
</clustering>
</event>
<event>
 6    0  0.4945982E+002  0.1522110E+03  0.7546771E-02  0.1197782E+00
         -2   -1    0    0    0  501 -0.00000000000E+00  0.00000000000E+00  0.48811807082E+02  0.48811807082E+02  0.00000000000E+00 0. -1.
         21   -1    0    0  504  502  0.00000000000E+00 -0.00000000000E+00 -0.23219190842E+04  0.23219190842E+04  0.00000000000E+00 0. -1.
         21    1    1    2  503  505 -0.91689217781E+02  0.42255511524E+02 -0.33014157817E+03  0.34523311334E+03  0.00000000000E+00 0. -1.
         21    1    1    2  504  501  0.12620659559E+03 -0.24843670590E+02 -0.14745344528E+04  0.14801341713E+04  0.00000000000E+00 0. -1.
         21    1    1    2  505  502 -0.68021740027E+02  0.16826665545E+02 -0.48844574236E+03  0.49344638717E+03  0.00000000000E+00 0. -1.
         -2    1    1    2    0  503  0.33504362214E+02 -0.34238506479E+02  0.20014496200E+02  0.51917219411E+02  0.00000000000E+00 0. -1.
<scales pt_clust_3="59.64667" pt_clust_4="137.36217" pt_clust_5="59.64667" pt_clust_6="47.90425"></scales>
<clustering>
<clus scale="   47.904">  1  6  2 -1</clus>
<clus scale="   59.647">  3  5 -1 -1</clus>
<clus scale="  137.362">  2  4  1 -1</clus>
<clus scale="  137.362">  2  3  1 -1</clus>
</clustering>
</event>
<event>
 6    0  0.4945982E+002  0.9594433E+02  0.7546771E-02  0.1289063E+00
         21   -1    0    0  504  502  0.00000000000E+00  0.00000000000E+00  0.22905096983E+03  0.22905096983E+03  0.00000000000E+00 0.  1.
          2   -1    0    0  505    0 -0.00000000000E+00 -0.00000000000E+00 -0.74118722522E+03  0.74118722522E+03  0.00000000000E+00 0.  1.
         21    1    1    2  503  502  0.82771042672E+02 -0.50331007270E+02  0.14091995572E+03  0.17100494063E+03  0.00000000000E+00 0.  1.
         21    1    1    2  504  501  0.61068037108E+01  0.77876662894E+02  0.15026458147E+02  0.79547860558E+02  0.00000000000E+00 0.  1.
         21    1    1    2  505  503 -0.93542172217E+02  0.18468561468E+02 -0.66311997986E+02  0.11614003109E+03  0.00000000000E+00 0.  1.
          2    1    1    2  501    0  0.46643258349E+01 -0.46014217091E+02 -0.60177067128E+03  0.60354536277E+03  0.00000000000E+00 0.  1.
<scales pt_clust_3="95.94433" pt_clust_4="67.54496" pt_clust_5="14000.00000" pt_clust_6="46.25002"></scales>
<clustering>
<clus scale="   46.250">  2  6  1 -1</clus>
<clus scale="   67.545">  2  4  1 -1</clus>
<clus scale="   95.944">  1  3  2 -1</clus>
<clus scale="   95.944">  1  3  2 -1</clus>
</clustering>
</event>
<event>
 6    0  0.4945982E+002  0.1097715E+03  0.7546771E-02  0.1260994E+00
          2   -1    0    0  505    0 -0.00000000000E+00  0.00000000000E+00  0.15752987993E+04  0.15752987993E+04  0.00000000000E+00 0. -1.
         21   -1    0    0  503  502  0.00000000000E+00 -0.00000000000E+00 -0.21456079372E+02  0.21456079372E+02  0.00000000000E+00 0.  1.
         21    1    1    2  503  501 -0.99515308926E+02 -0.47284754997E+02  0.34834731935E+03  0.36535599032E+03  0.00000000000E+00 0.  1.
         21    1    1    2  504  502 -0.44516517353E+02  0.35149375054E+02  0.18785399904E+03  0.19623028268E+03  0.00000000000E+00 0.  1.
         21    1    1    2  505  504  0.52709224230E+02 -0.49117132363E+02  0.26843053027E+03  0.27793111483E+03  0.00000000000E+00 0.  1.
          2    1    1    2  501    0  0.91322602050E+02  0.61252512306E+02  0.74921087124E+03  0.75723749081E+03  0.00000000000E+00 0. -1.
<scales pt_clust_3="109.77152" pt_clust_4="56.72036" pt_clust_5="56.51004" pt_clust_6="14000.00000"></scales>
<clustering>
<clus scale="   56.720">  2  4  1 -1</clus>
<clus scale="   56.510">  2  5  1 -1</clus>
<clus scale="  109.772">  2  3  1 -1</clus>
<clus scale="   56.720">  2  3  1 -1</clus>
</clustering>
</event>
<event>
 6    0  0.4945982E+002  0.1496866E+03  0.7546771E-02  0.1200859E+00
          2   -1    0    0  504    0 -0.00000000000E+00  0.00000000000E+00  0.23922185090E+04  0.23922185090E+04  0.00000000000E+00 0. -1.
         21   -1    0    0  503  502  0.00000000000E+00 -0.00000000000E+00 -0.24945900084E+03  0.24945900084E+03  0.00000000000E+00 0.  1.
         21    1    1    2  503  505 -0.58731850705E+02 -0.13263499765E+03 -0.21629089982E+03  0.26042892742E+03  0.00000000000E+00 0.  1.
         21    1    1    2  504  502  0.16612641427E+03  0.46865551916E+02  0.14672935335E+04  0.14774114792E+04  0.00000000000E+00 0. -1.
         21    1    1    2  505  501 -0.97427010765E+02  0.49310300246E+02  0.63693393488E+03  0.64622624949E+03  0.00000000000E+00 0. -1.
          2    1    1    2  501    0 -0.99675527993E+01  0.36459145487E+02  0.25482293962E+03  0.25761085372E+03  0.00000000000E+00 0. -1.
<scales pt_clust_3="145.05679" pt_clust_4="140.01743" pt_clust_5="31.13865" pt_clust_6="31.13865"></scales>
<clustering>
<clus scale="   31.139">  5  6 -1 -1</clus>
<clus scale="  145.057">  2  3  1 -1</clus>
<clus scale="  140.017">  1  4  2 -1</clus>
<clus scale="  145.057">  2  3  1 -1</clus>
</clustering>
</event>
<event>
 6    0  0.4945982E+002  0.8677896E+02  0.7546771E-02  0.1310845E+00
          2   -1    0    0  504    0 -0.00000000000E+00  0.00000000000E+00  0.22696065176E+04  0.22696065176E+04  0.00000000000E+00 0.  1.
         21   -1    0    0  503  502  0.00000000000E+00 -0.00000000000E+00 -0.31891643400E+02  0.31891643400E+02  0.00000000000E+00 0. -1.
         21    1    1    2  503  505 -0.41703233207E+02  0.54432147692E+01  0.11298003134E+02  0.43548055315E+02  0.00000000000E+00 0. -1.
         21    1    1    2  504  502  0.84194422620E+01 -0.79725282722E+02  0.16889004963E+03  0.18695148188E+03  0.00000000000E+00 0. -1.
         21    1    1    2  505  501  0.20162132269E+01  0.10824548155E+03  0.45114595043E+03  0.46395454301E+03  0.00000000000E+00 0. -1.
          2    1    1    2  501    0  0.31267577718E+02 -0.33963413597E+02  0.16063808710E+04  0.16070440808E+04  0.00000000000E+00 0.  1.
<scales pt_clust_3="42.05696" pt_clust_4="14000.00000" pt_clust_5="86.77896" pt_clust_6="45.48990"></scales>
<clustering>
<clus scale="   42.057">  2  3  1 -1</clus>
<clus scale="   45.490">  1  6  2 -1</clus>
<clus scale="   86.779">  1  5  2 -1</clus>
<clus scale="   42.057">  2  3  1 -1</clus>
</clustering>
</event>
<event>
 6    0  0.8274648E+002  0.1249189E+03  0.7546771E-02  0.1235196E+00
          1   -1    0    0  505    0 -0.00000000000E+00  0.00000000000E+00  0.35340451037E+03  0.35340451037E+03  0.00000000000E+00 0. -1.
         21   -1    0    0  504  502  0.00000000000E+00 -0.00000000000E+00 -0.18873367981E+04  0.18873367981E+04  0.00000000000E+00 0. -1.
         21    1    1    2  503  502 -0.29885138283E+02  0.16890300574E+02 -0.73136991572E+02  0.80792470441E+02  0.00000000000E+00 0.  1.
         21    1    1    2  504  501  0.56965999575E+02 -0.13902981189E+03 -0.17493353925E+04  0.17557758197E+04  0.00000000000E+00 0. -1.
         21    1    1    2  505  503 -0.80936141805E+01  0.50323262080E+02 -0.41592284222E+02  0.65786437840E+02  0.00000000000E+00 0. -1.
          1    1    1    2  501    0 -0.18987247111E+02  0.71816249232E+02  0.33013238051E+03  0.33838658051E+03  0.00000000000E+00 0. -1.
<scales pt_clust_3="34.32789" pt_clust_4="14000.00000" pt_clust_5="51.61138" pt_clust_6="124.91895"></scales>
<clustering>
<clus scale="   34.328">  2  3  1 -1</clus>
<clus scale="   51.611">  1  5  2 -1</clus>
<clus scale="  124.919">  1  6  2 -1</clus>
<clus scale="   34.328">  2  3  1 -1</clus>
</clustering>
</event>
<event>
 6    0  0.4945982E+002  0.1432151E+03  0.7546771E-02  0.1209067E+00
         21   -1    0    0  503  502  0.00000000000E+00  0.00000000000E+00  0.17778526103E+03  0.17778526103E+03  0.00000000000E+00 0.  1.
          2   -1    0    0  505    0 -0.00000000000E+00 -0.00000000000E+00 -0.12616355202E+04  0.12616355202E+04  0.00000000000E+00 0. -1.
         21    1    1    2  503  501  0.49700840753E+02 -0.84053558340E+01  0.37302123531E+00  0.50407962894E+02  0.00000000000E+00 0. -1.
         21    1    1    2  504  502 -0.10341128938E+03 -0.30371393004E+02  0.87028956532E+02  0.13852925886E+03  0.00000000000E+00 0.  1.
         21    1    1    2  505  504 -0.95309111044E+02  0.17801725082E+02 -0.33139112886E+02  0.10246428093E+03  0.00000000000E+00 0.  1.
          2    1    1    2  501    0  0.14901955967E+03  0.20975023755E+02 -0.11381131241E+04  0.11480192786E+04  0.00000000000E+00 0. -1.
<scales pt_clust_3="50.40658" pt_clust_4="76.01687" pt_clust_5="143.21512" pt_clust_6="14000.00000"></scales>
<clustering>
<clus scale="   50.407">  1  3  2 -1</clus>
<clus scale="   76.017">  1  4  2 -1</clus>
<clus scale="  143.215">  1  5  2 -1</clus>
<clus scale="   50.407">  1  3  2 -1</clus>
</clustering>
</event>
<event>
 6    0  0.4945982E+002  0.2658513E+03  0.7546771E-02  0.1103678E+00
         21   -1    0    0  504  502  0.00000000000E+00  0.00000000000E+00  0.66025645433E+03  0.66025645433E+03  0.00000000000E+00 0. -1.
          2   -1    0    0  505    0 -0.00000000000E+00 -0.00000000000E+00 -0.17235503862E+04  0.17235503862E+04  0.00000000000E+00 0. -1.
         21    1    1    2  503  501  0.57135406668E+02 -0.58779899318E+02 -0.19277138489E+02  0.84208902898E+02  0.00000000000E+00 0.  1.
         21    1    1    2  504  503  0.54079565799E+02 -0.13977116611E+03  0.84075312876E+02  0.17184073018E+03  0.00000000000E+00 0. -1.
         21    1    1    2  505  502 -0.14417112506E+03  0.20921127814E+03  0.46734427918E+03  0.53194487260E+03  0.00000000000E+00 0. -1.
          2    1    1    2  501    0  0.32956152596E+02 -0.10660212719E+02 -0.15954363854E+04  0.15958123348E+04  0.00000000000E+00 0. -1.
<scales pt_clust_3="75.78355" pt_clust_4="75.78355" pt_clust_5="247.19543" pt_clust_6="34.63738"></scales>
<clustering>
<clus scale="   34.637">  2  6  1 -1</clus>
<clus scale="   75.784">  3  4 -1 -1</clus>
<clus scale="  247.195">  1  5  2 -1</clus>
<clus scale="  247.195">  1  3  2 -1</clus>
</clustering>
</event>
<event>
 6    0  0.4945982E+002  0.8994581E+02  0.7546771E-02  0.1302983E+00
         21   -1    0    0  503  502  0.00000000000E+00  0.00000000000E+00  0.21881891635E+03  0.21881891635E+03  0.00000000000E+00 0.  1.
          1   -1    0    0  505    0 -0.00000000000E+00 -0.00000000000E+00 -0.56570588766E+03  0.56570588766E+03  0.00000000000E+00 0. -1.
         21    1    1    2  503  504 -0.38692781741E+02 -0.20491757626E+02  0.44831531237E+02  0.62665059504E+02  0.00000000000E+00 0. -1.
         21    1    1    2  504  501 -0.45910346732E+02  0.49121325398E+02  0.61293588877E+02  0.90981144108E+02  0.00000000000E+00 0.  1.
         21    1    1    2  505  502 -0.20914460510E+01 -0.62419757078E+02  0.73360669139E+02  0.96345150354E+02  0.00000000000E+00 0. -1.
          1    1    1    2  501    0  0.86694574524E+02  0.33790189306E+02 -0.52637276056E+03  0.53453345004E+03  0.00000000000E+00 0. -1.
<scales pt_clust_3="43.78406" pt_clust_4="75.09091" pt_clust_5="14000.00000" pt_clust_6="89.94581"></scales>
<clustering>
<clus scale="   43.784">  1  3  2 -1</clus>
<clus scale="   75.091">  1  4  2 -1</clus>
<clus scale="   89.946">  2  6  1 -1</clus>
<clus scale="   43.784">  1  3  2 -1</clus>
</clustering>
</event>
<event>
 6    0  0.4945982E+002  0.1154608E+03  0.7546771E-02  0.1250779E+00
          2   -1    0    0  503    0 -0.00000000000E+00  0.00000000000E+00  0.10644829667E+04  0.10644829667E+04  0.00000000000E+00 0. -1.
         21   -1    0    0  505  502  0.00000000000E+00 -0.00000000000E+00 -0.32321279029E+03  0.32321279029E+03  0.00000000000E+00 0.  1.
         21    1    1    2  503  504 -0.10717177341E+03 -0.15663570576E+02  0.69182469451E+01  0.10853109508E+03  0.00000000000E+00 0. -1.
         21    1    1    2  504  502  0.29936235010E+02  0.55298754069E+02 -0.20586747719E+03  0.21525693608E+03  0.00000000000E+00 0.  1.
         21    1    1    2  505  501 -0.30020494531E+02 -0.84255411130E+02 -0.24086181624E+02  0.92630170797E+02  0.00000000000E+00 0. -1.
          2    1    1    2  501    0  0.10725603293E+03  0.44620227638E+02  0.96430558826E+03  0.97127755501E+03  0.00000000000E+00 0. -1.
<scales pt_clust_3="14000.00000" pt_clust_4="62.88188" pt_clust_5="57.47056" pt_clust_6="115.46081"></scales>
<clustering>
<clus scale="   62.882">  2  4  1 -1</clus>
<clus scale="   57.471">  2  5  1 -1</clus>
<clus scale="  115.461">  1  6  2 -1</clus>
<clus scale="   62.882">  2  3  1 -1</clus>
</clustering>
</event>
<event>
 6    0  0.4945982E+002  0.9108677E+02  0.7546771E-02  0.1300241E+00
         21   -1    0    0  505  502  0.00000000000E+00  0.00000000000E+00  0.44410755293E+02  0.44410755293E+02  0.00000000000E+00 0. -1.
          2   -1    0    0  503    0 -0.00000000000E+00 -0.00000000000E+00 -0.23051055952E+04  0.23051055952E+04  0.00000000000E+00 0. -1.
         21    1    1    2  503  502 -0.58404776582E+02  0.32942011343E+02 -0.14872721344E+03  0.16314434730E+03  0.00000000000E+00 0.  1.
         21    1    1    2  504  501 -0.65790903162E+01 -0.56500963518E+02 -0.28829183744E+03  0.29385000738E+03  0.00000000000E+00 0.  1.
         21    1    1    2  505  504 -0.31717670894E+02  0.10916253395E+02  0.24648888641E+02  0.41626229067E+02  0.00000000000E+00 0. -1.
          2    1    1    2  501    0  0.96701537792E+02  0.12642698780E+02 -0.18483246777E+04  0.18508957668E+04  0.00000000000E+00 0. -1.
<scales pt_clust_3="14000.00000" pt_clust_4="55.70287" pt_clust_5="33.54363" pt_clust_6="91.08677"></scales>
<clustering>
<clus scale="   33.544">  1  5  2 -1</clus>
<clus scale="   55.703">  1  4  2 -1</clus>
<clus scale="   91.087">  2  6  1 -1</clus>
<clus scale="   33.544">  1  3  2 -1</clus>
</clustering>
</event>
<event>
 6    0  0.4945982E+002  0.1882514E+03  0.7546771E-02  0.1160048E+00
         21   -1    0    0  503  502  0.00000000000E+00  0.00000000000E+00  0.10921969792E+04  0.10921969792E+04  0.00000000000E+00 0. -1.
          2   -1    0    0  502    0 -0.00000000000E+00 -0.00000000000E+00 -0.16648895683E+04  0.16648895683E+04  0.00000000000E+00 0.  1.
         21    1    1    2  503  505 -0.17437795858E+02  0.26582024294E+02  0.49574871200E+03  0.49676701399E+03  0.00000000000E+00 0. -1.
         21    1    1    2  504  501 -0.72976634959E+02  0.67192531110E+02 -0.70846712113E+03  0.71537828260E+03  0.00000000000E+00 0.  1.
         21    1    1    2  505  504  0.17409613599E+03 -0.10576922577E+03  0.57300622712E+03  0.60813874240E+03  0.00000000000E+00 0. -1.
          2    1    1    2  501    0 -0.83681705173E+02  0.11994670367E+02 -0.93298040714E+03  0.93680250854E+03  0.00000000000E+00 0.  1.
<scales pt_clust_3="31.79121" pt_clust_4="62.16255" pt_clust_5="175.78294" pt_clust_6="62.16255"></scales>
<clustering>
<clus scale="   31.791">  1  3  2 -1</clus>
<clus scale="   62.163">  4  6 -1 -1</clus>
<clus scale="  175.783">  1  5  2 -1</clus>
<clus scale="   31.791">  1  3  2 -1</clus>
</clustering>
</event>
<event>
 6    0  0.4945982E+002  0.1618608E+03  0.7546771E-02  0.1186612E+00
          2   -1    0    0  503    0 -0.00000000000E+00  0.00000000000E+00  0.19338878837E+04  0.19338878837E+04  0.00000000000E+00 0. -1.
         21   -1    0    0  501  502  0.00000000000E+00 -0.00000000000E+00 -0.21888654730E+03  0.21888654730E+03  0.00000000000E+00 0. -1.
         21    1    1    2  503  505  0.87098049172E+02 -0.62109000935E+02  0.50620069433E+03  0.51738065398E+03  0.00000000000E+00 0. -1.
         21    1    1    2  504  502 -0.15337397307E+03 -0.65684744888E+02 -0.17300547784E+03  0.24035173536E+03  0.00000000000E+00 0. -1.
         21    1    1    2  505  504  0.72244647503E+02  0.72148236417E+02  0.44487796079E+03  0.45644392548E+03  0.00000000000E+00 0. -1.
          2    1    1    2  501    0 -0.59687236005E+01  0.55645509407E+02  0.93692815911E+03  0.93859811618E+03  0.00000000000E+00 0. -1.
<scales pt_clust_3="90.47004" pt_clust_4="14000.00000" pt_clust_5="161.86076" pt_clust_6="55.96471"></scales>
<clustering>
<clus scale="   55.965">  1  6  2 -1</clus>
<clus scale="   90.470">  1  3  2 -1</clus>
<clus scale="  161.861">  1  5  2 -1</clus>
<clus scale="  161.861">  2  3  1 -1</clus>
</clustering>
</event>
<event>
 6    0  0.4945982E+002  0.1156165E+03  0.7546771E-02  0.1250509E+00
          1   -1    0    0  504    0 -0.00000000000E+00  0.00000000000E+00  0.11383211794E+03  0.11383211794E+03  0.00000000000E+00 0.  1.
         21   -1    0    0  505  502  0.00000000000E+00 -0.00000000000E+00 -0.49362331410E+03  0.49362331410E+03  0.00000000000E+00 0. -1.
         21    1    1    2  503  502  0.23556001814E+02  0.23912695157E+02 -0.57106334116E+02  0.66240739786E+02  0.00000000000E+00 0.  1.
         21    1    1    2  504  503  0.56136899867E+02 -0.38888685475E+02 -0.10826656336E+03  0.12800519570E+03  0.00000000000E+00 0.  1.
         21    1    1    2  505  501 -0.65157751256E+02 -0.10251193929E+03 -0.25950889777E+03  0.28652940210E+03  0.00000000000E+00 0. -1.
          1    1    1    2  501    0 -0.14535150425E+02  0.11748792961E+03  0.45090599091E+02  0.12668009444E+03  0.00000000000E+00 0.  1.
<scales pt_clust_3="33.56639" pt_clust_4="70.44580" pt_clust_5="115.61652" pt_clust_6="14000.00000"></scales>
<clustering>
<clus scale="   33.566">  2  3  1 -1</clus>
<clus scale="   70.446">  2  4  1 -1</clus>
<clus scale="  115.617">  2  5  1 -1</clus>
<clus scale="   33.566">  2  3  1 -1</clus>
</clustering>
</event>
<event>
 6    0  0.4945982E+002  0.5084550E+03  0.7546771E-02  0.1011595E+00
          1   -1    0    0  502    0 -0.00000000000E+00  0.00000000000E+00  0.84212292893E+03  0.84212292893E+03  0.00000000000E+00 0.  1.
         21   -1    0    0  504  502  0.00000000000E+00 -0.00000000000E+00 -0.56584896936E+03  0.56584896936E+03  0.00000000000E+00 0.  1.
         21    1    1    2  503  501 -0.38577543396E+03 -0.29764064269E+03 -0.17137877076E+03  0.51651071692E+03  0.00000000000E+00 0.  1.
         21    1    1    2  504  505  0.11482120864E+03  0.19473522607E+02 -0.19516382267E+02  0.11808478824E+03  0.00000000000E+00 0. -1.
         21    1    1    2  505  503 -0.49549887848E+02 -0.80898340333E+02 -0.10292020005E+02  0.95423574289E+02  0.00000000000E+00 0.  1.
          1    1    1    2  501    0  0.32050411317E+03  0.35906546042E+03  0.47746113261E+03  0.67795281884E+03  0.00000000000E+00 0.  1.
<scales pt_clust_3="41.06061" pt_clust_4="116.46084" pt_clust_5="41.06061" pt_clust_6="499.86708"></scales>
<clustering>
<clus scale="   41.061">  3  5 -1 -1</clus>
<clus scale="  116.461">  2  4  1 -1</clus>
<clus scale="  499.867">  1  6  2 -1</clus>
<clus scale="  116.461">  2  3  1 -1</clus>
</clustering>
</event>
<event>
 6    0  0.4945982E+002  0.1284699E+03  0.7546771E-02  0.1229744E+00
         21   -1    0    0  505  502  0.00000000000E+00  0.00000000000E+00  0.10173142430E+03  0.10173142430E+03  0.00000000000E+00 0.  1.
          1   -1    0    0  503    0 -0.00000000000E+00 -0.00000000000E+00 -0.49379191806E+03  0.49379191806E+03  0.00000000000E+00 0. -1.
         21    1    1    2  503  504 -0.26410176210E+02  0.38253626145E+02 -0.15877434954E+01  0.46511915141E+02  0.00000000000E+00 0. -1.
         21    1    1    2  504  502  0.10022398105E+02  0.76206988660E+02  0.34514204603E+02  0.84256654953E+02  0.00000000000E+00 0.  1.
         21    1    1    2  505  501  0.34944081625E+02  0.24911652443E+01 -0.15175678948E+02  0.38178475303E+02  0.00000000000E+00 0.  1.
          1    1    1    2  501    0 -0.18556303520E+02 -0.11695178005E+03 -0.40981127592E+03  0.42657629696E+03  0.00000000000E+00 0. -1.
<scales pt_clust_3="36.56430" pt_clust_4="36.56430" pt_clust_5="35.03277" pt_clust_6="117.72015"></scales>
<clustering>
<clus scale="   35.033">  1  5  2 -1</clus>
<clus scale="   36.564">  3  4 -1 -1</clus>
<clus scale="  117.720">  2  6  1 -1</clus>
<clus scale="   35.033">  1  3  2 -1</clus>
</clustering>
</event>
<event>
 6    0  0.4945982E+002  0.1272091E+03  0.7546771E-02  0.1231657E+00
         21   -1    0    0  505  502  0.00000000000E+00  0.00000000000E+00  0.69070572987E+02  0.69070572987E+02  0.00000000000E+00 0.  1.
          2   -1    0    0  504    0 -0.00000000000E+00 -0.00000000000E+00 -0.12985656513E+04  0.12985656513E+04  0.00000000000E+00 0.  1.
         21    1    1    2  503  501 -0.95615249330E+02  0.29528803274E+02 -0.82833310601E+02  0.12990605633E+03  0.00000000000E+00 0.  1.
         21    1    1    2  504  502  0.89455143340E+02  0.48812081939E+02 -0.89120117338E+02  0.13537812721E+03  0.00000000000E+00 0.  1.
         21    1    1    2  505  503 -0.42510981412E+02 -0.88572218579E+01 -0.20664442891E+01  0.43473027403E+02  0.00000000000E+00 0. -1.
          2    1    1    2  501    0  0.48671087402E+02 -0.69483663355E+02 -0.10554752061E+04  0.10588790133E+04  0.00000000000E+00 0.  1.
<scales pt_clust_3="38.10517" pt_clust_4="113.29601" pt_clust_5="38.10517" pt_clust_6="84.83428"></scales>
<clustering>
<clus scale="   38.105">  3  5 -1 -1</clus>
<clus scale="   84.834">  2  6  1 -1</clus>
<clus scale="  113.296">  1  4  2 -1</clus>
<clus scale="  113.296">  1  3  2 -1</clus>
</clustering>
</event>
<event>
 6    0  0.4945982E+002  0.1227626E+03  0.7546771E-02  0.1238608E+00
          2   -1    0    0  504    0 -0.00000000000E+00  0.00000000000E+00  0.45297508571E+03  0.45297508571E+03  0.00000000000E+00 0.  1.
         21   -1    0    0  505  502  0.00000000000E+00 -0.00000000000E+00 -0.13073851283E+03  0.13073851283E+03  0.00000000000E+00 0.  1.
         21    1    1    2  503  501  0.26402406197E+01 -0.49449123130E+02  0.25374128990E+02  0.55642008149E+02  0.00000000000E+00 0.  1.
         21    1    1    2  504  502 -0.23787262179E+02  0.11192711408E+03 -0.23025409022E+02  0.11672053019E+03  0.00000000000E+00 0.  1.
         21    1    1    2  505  503 -0.93431196642E+01 -0.60426838769E+02 -0.24309305853E+02  0.65799993007E+02  0.00000000000E+00 0.  1.
          2    1    1    2  501    0  0.30490141223E+02 -0.20511521810E+01  0.34419715876E+03  0.34555106719E+03  0.00000000000E+00 0.  1.
<scales pt_clust_3="47.44304" pt_clust_4="111.54053" pt_clust_5="47.44304" pt_clust_6="30.55906"></scales>
<clustering>
<clus scale="   30.559">  1  6  2 -1</clus>
<clus scale="   47.443">  3  5 -1 -1</clus>
<clus scale="  111.541">  2  4  1 -1</clus>
<clus scale="  111.541">  2  3  1 -1</clus>
</clustering>
</event>
<event>
 6    0  0.4945982E+002  0.9514121E+02  0.7546771E-02  0.1290858E+00
         -1   -1    0    0    0  501 -0.00000000000E+00  0.00000000000E+00  0.66173188445E+03  0.66173188445E+03  0.00000000000E+00 0. -1.
         21   -1    0    0  504  502  0.00000000000E+00 -0.00000000000E+00 -0.18354402436E+04  0.18354402436E+04  0.00000000000E+00 0. -1.
         21    1    1    2  503  501 -0.45851052434E+02  0.36951834388E+01 -0.23366778639E+03  0.23815248852E+03  0.00000000000E+00 0. -1.
         21    1    1    2  504  503  0.78878828133E+02 -0.53722355938E+02 -0.13060386046E+04  0.13095208276E+04  0.00000000000E+00 0. -1.
         21    1    1    2  505  502 -0.66996134495E+02  0.67735950862E+02 -0.28339312551E+03  0.29897876959E+03  0.00000000000E+00 0. -1.
         -1    1    1    2    0  505  0.33968358795E+02 -0.17708778363E+02  0.64939115739E+03  0.65052004237E+03  0.00000000000E+00 0. -1.
<scales pt_clust_3="39.38438" pt_clust_4="95.14121" pt_clust_5="14000.00000" pt_clust_6="38.30731"></scales>
<clustering>
<clus scale="   38.307">  1  6  2 -1</clus>
<clus scale="   39.384">  1  3  2 -1</clus>
<clus scale="   95.141">  2  4  1 -1</clus>
<clus scale="   95.141">  2  3  1 -1</clus>
</clustering>
</event>
<event>
 6    0  0.4945982E+002  0.2048988E+03  0.7546771E-02  0.1145670E+00
          1   -1    0    0  505    0 -0.00000000000E+00  0.00000000000E+00  0.82851241508E+03  0.82851241508E+03  0.00000000000E+00 0.  1.
         21   -1    0    0  503  502  0.00000000000E+00 -0.00000000000E+00 -0.46202277999E+03  0.46202277999E+03  0.00000000000E+00 0.  1.
         21    1    1    2  503  504 -0.12339046544E+02  0.59204717652E+02 -0.22895018709E+02  0.64665543712E+02  0.00000000000E+00 0.  1.
         21    1    1    2  504  501 -0.10773685874E+02 -0.64810436678E+02 -0.28445855432E+02  0.71593517171E+02  0.00000000000E+00 0.  1.
         21    1    1    2  505  502  0.10694233699E+03 -0.18117800776E+03 -0.32311171259E+03  0.38556881714E+03  0.00000000000E+00 0.  1.
          1    1    1    2  501    0 -0.83829604573E+02  0.18678372678E+03  0.74094222182E+03  0.76870731704E+03  0.00000000000E+00 0.  1.
<scales pt_clust_3="60.47686" pt_clust_4="59.01511" pt_clust_5="204.89878" pt_clust_6="14000.00000"></scales>
<clustering>
<clus scale="   60.477">  2  3  1 -1</clus>
<clus scale="   59.015">  2  4  1 -1</clus>
<clus scale="  204.899">  2  5  1 -1</clus>
<clus scale="   60.477">  2  3  1 -1</clus>
</clustering>
</event>
<event>
 6    0  0.4945982E+002  0.1733256E+03  0.7546771E-02  0.1174423E+00
          1   -1    0    0  504    0 -0.00000000000E+00  0.00000000000E+00  0.10148730905E+04  0.10148730905E+04  0.00000000000E+00 0. -1.
         21   -1    0    0  505  502  0.00000000000E+00 -0.00000000000E+00 -0.52682433372E+03  0.52682433372E+03  0.00000000000E+00 0.  1.
         21    1    1    2  503  501 -0.29026037083E+02  0.94019983028E+02 -0.11541168242E+03  0.15166451291E+03  0.00000000000E+00 0.  1.
         21    1    1    2  504  502  0.15729021055E+03  0.61968512945E+02 -0.16441264132E+03  0.23582159264E+03  0.00000000000E+00 0.  1.
         21    1    1    2  505  503  0.53475904219E+01 -0.44811945779E+02 -0.18253928071E+03  0.18803535893E+03  0.00000000000E+00 0.  1.
          1    1    1    2  501    0 -0.13361176389E+03 -0.11117655019E+03  0.95041236120E+03  0.96617595969E+03  0.00000000000E+00 0. -1.
<scales pt_clust_3="81.10230" pt_clust_4="14000.00000" pt_clust_5="45.12989" pt_clust_6="173.32561"></scales>
<clustering>
<clus scale="   45.130">  2  5  1 -1</clus>
<clus scale="   81.102">  2  3  1 -1</clus>
<clus scale="  173.326">  1  6  2 -1</clus>
<clus scale="   45.130">  2  3  1 -1</clus>
</clustering>
</event>
<event>
 6    0  0.4945982E+002  0.2532579E+03  0.7546771E-02  0.1111263E+00
         21   -1    0    0  504  502  0.00000000000E+00  0.00000000000E+00  0.36694966812E+03  0.36694966812E+03  0.00000000000E+00 0.  1.
          2   -1    0    0  505    0 -0.00000000000E+00 -0.00000000000E+00 -0.86317371540E+03  0.86317371540E+03  0.00000000000E+00 0. -1.
         21    1    1    2  503  502 -0.15077773993E+02 -0.72899467373E+02  0.57502040175E+02  0.94064638606E+02  0.00000000000E+00 0.  1.
         21    1    1    2  504  501 -0.98897692280E+02  0.30385789213E+02  0.19409001844E+03  0.21994314034E+03  0.00000000000E+00 0.  1.
         21    1    1    2  505  503 -0.62027622033E+02 -0.12595007649E+03 -0.11876485764E+02  0.14089676567E+03  0.00000000000E+00 0.  1.
          2    1    1    2  501    0  0.17600308831E+03  0.16846375465E+03 -0.73593962013E+03  0.77521883891E+03  0.00000000000E+00 0. -1.
<scales pt_clust_3="63.64233" pt_clust_4="103.46038" pt_clust_5="63.64233" pt_clust_6="237.69892"></scales>
<clustering>
<clus scale="   63.642">  3  5 -1 -1</clus>
<clus scale="  103.460">  1  4  2 -1</clus>
<clus scale="  237.699">  2  6  1 -1</clus>
<clus scale="  103.460">  1  3  2 -1</clus>
</clustering>
</event>
<event>
 6    0  0.4945982E+002  0.1318344E+03  0.7546771E-02  0.1224759E+00
          1   -1    0    0  505    0 -0.00000000000E+00  0.00000000000E+00  0.12847054382E+04  0.12847054382E+04  0.00000000000E+00 0.  1.
         21   -1    0    0  504  502  0.00000000000E+00 -0.00000000000E+00 -0.15030071287E+03  0.15030071287E+03  0.00000000000E+00 0.  1.
         21    1    1    2  503  502  0.35626827065E+01  0.30074923259E+02  0.88067628027E+01  0.31539701777E+02  0.00000000000E+00 0.  1.
         21    1    1    2  504  501  0.71968954987E+02 -0.23323988192E+02  0.37426757400E+02  0.84405574914E+02  0.00000000000E+00 0.  1.
         21    1    1    2  505  503 -0.26305285966E+02  0.11673312165E+03 -0.79619427295E+02  0.14372836520E+03  0.00000000000E+00 0.  1.
          1    1    1    2  501    0 -0.49226351728E+02 -0.12348405672E+03  0.11677906325E+04  0.11753325092E+04  0.00000000000E+00 0.  1.
<scales pt_clust_3="30.28521" pt_clust_4="74.82823" pt_clust_5="131.83444" pt_clust_6="14000.00000"></scales>
<clustering>
<clus scale="   30.285">  2  3  1 -1</clus>
<clus scale="   74.828">  2  4  1 -1</clus>
<clus scale="  131.834">  2  5  1 -1</clus>
<clus scale="   30.285">  2  3  1 -1</clus>
</clustering>
</event>
<event>
 6    0  0.4945982E+002  0.1365778E+03  0.7546771E-02  0.1218009E+00
         21   -1    0    0  503  502  0.00000000000E+00  0.00000000000E+00  0.15563988895E+03  0.15563988895E+03  0.00000000000E+00 0. -1.
          1   -1    0    0  504    0 -0.00000000000E+00 -0.00000000000E+00 -0.38480091707E+04  0.38480091707E+04  0.00000000000E+00 0.  1.
         21    1    1    2  503  505  0.59369776888E+02 -0.30496425622E+01 -0.14737582609E+03  0.15891414299E+03  0.00000000000E+00 0.  1.
         21    1    1    2  504  502 -0.13869717543E+02 -0.28615937586E+02  0.14039384428E+03  0.14395024300E+03  0.00000000000E+00 0. -1.
         21    1    1    2  505  501  0.83958959524E+02  0.34150662965E+02 -0.31163459148E+03  0.32454813706E+03  0.00000000000E+00 0. -1.
          1    1    1    2  501    0 -0.12945901887E+03 -0.24850828168E+01 -0.33737527085E+04  0.33762365366E+04  0.00000000000E+00 0.  1.
<scales pt_clust_3="31.72778" pt_clust_4="31.80001" pt_clust_5="31.72778" pt_clust_6="130.83836"></scales>
<clustering>
<clus scale="   31.728">  3  5 -1 -1</clus>
<clus scale="   31.800">  1  4  2 -1</clus>
<clus scale="  130.838">  2  6  1 -1</clus>
<clus scale="   31.800">  1  3  2 -1</clus>
</clustering>
</event>
<event>
 6    0  0.4945982E+002  0.1068443E+03  0.7546771E-02  0.1266528E+00
          1   -1    0    0  503    0 -0.00000000000E+00  0.00000000000E+00  0.10006717408E+04  0.10006717408E+04  0.00000000000E+00 0. -1.
         21   -1    0    0  505  502  0.00000000000E+00 -0.00000000000E+00 -0.64553178845E+02  0.64553178845E+02  0.00000000000E+00 0. -1.
         21    1    1    2  503  504 -0.47489976007E+02  0.52652939528E+01  0.66216976420E+01  0.48237620393E+02  0.00000000000E+00 0. -1.
         21    1    1    2  504  502 -0.34700499048E+02  0.44159180871E+02 -0.15529956634E+02  0.58269524131E+02  0.00000000000E+00 0. -1.
         21    1    1    2  505  501  0.11109777346E+03 -0.18797974905E+02  0.54803475550E+03  0.55949814331E+03  0.00000000000E+00 0. -1.
          1    1    1    2  501    0 -0.28907298403E+02 -0.30626499919E+02  0.39699206542E+03  0.39921963178E+03  0.00000000000E+00 0. -1.
<scales pt_clust_3="41.92855" pt_clust_4="41.92855" pt_clust_5="96.69198" pt_clust_6="42.11430"></scales>
<clustering>
<clus scale="   41.929">  3  4 -1 -1</clus>
<clus scale="   42.114">  1  6  2 -1</clus>
<clus scale="   96.692">  1  5  2 -1</clus>
<clus scale="  106.844">  2  3  1 -1</clus>
</clustering>
</event>
<event>
 6    0  0.4945982E+002  0.1275745E+03  0.7546771E-02  0.1231100E+00
         21   -1    0    0  503  502  0.00000000000E+00  0.00000000000E+00  0.48020242578E+02  0.48020242578E+02  0.00000000000E+00 0. -1.
          2   -1    0    0  505    0 -0.00000000000E+00 -0.00000000000E+00 -0.17782499674E+04  0.17782499674E+04  0.00000000000E+00 0. -1.
         21    1    1    2  503  504  0.11740450125E+02 -0.30516671750E+02  0.23604526381E+02  0.40327150773E+02  0.00000000000E+00 0. -1.
         21    1    1    2  504  501 -0.46687403970E+02 -0.10301218459E+03 -0.27364875660E+03  0.29609941887E+03  0.00000000000E+00 0. -1.
         21    1    1    2  505  502 -0.31840530925E+02  0.24085209246E+02 -0.28062190115E+03  0.28344764617E+03  0.00000000000E+00 0. -1.
          2    1    1    2  501    0  0.66787484770E+02  0.10944364709E+03 -0.11995635934E+04  0.12063959941E+04  0.00000000000E+00 0. -1.
<scales pt_clust_3="32.69718" pt_clust_4="14000.00000" pt_clust_5="37.51043" pt_clust_6="127.57448"></scales>
<clustering>
<clus scale="   32.697">  1  3  2 -1</clus>
<clus scale="   37.510">  2  5  1 -1</clus>
<clus scale="  127.574">  2  6  1 -1</clus>
<clus scale="   32.697">  1  3  2 -1</clus>
</clustering>
</event>
<event>
 6    0  0.4945982E+002  0.2047333E+03  0.7546771E-02  0.1145806E+00
         21   -1    0    0  501  502  0.00000000000E+00  0.00000000000E+00  0.25490709690E+03  0.25490709690E+03  0.00000000000E+00 0. -1.
         -3   -1    0    0    0  501 -0.00000000000E+00 -0.00000000000E+00 -0.63612220979E+03  0.63612220979E+03  0.00000000000E+00 0. -1.
         21    1    1    2  503  504  0.60966816466E+02  0.68156607109E+02 -0.39466974903E+01  0.91530608125E+02  0.00000000000E+00 0. -1.
         21    1    1    2  504  505  0.62540685682E+02  0.46853873865E+02  0.36691608158E+02  0.86330162579E+02  0.00000000000E+00 0. -1.
         21    1    1    2  505  502  0.62204980214E+02 -0.24969563767E+02  0.12180219606E+03  0.13902774415E+03  0.00000000000E+00 0. -1.
         -3    1    1    2    0  503 -0.18571248236E+03 -0.90040917207E+02 -0.53576221962E+03  0.57414079184E+03  0.00000000000E+00 0. -1.
<scales pt_clust_3="42.16722" pt_clust_4="42.16722" pt_clust_5="67.02939" pt_clust_6="199.58709"></scales>
<clustering>
<clus scale="   42.167">  3  4 -1 -1</clus>
<clus scale="   67.029">  1  5  2 -1</clus>
<clus scale="  199.587">  2  6  1 -1</clus>
<clus scale="   67.029">  1  3  2 -1</clus>
</clustering>
</event>
<event>
 6    0  0.4945982E+002  0.8202098E+02  0.7546771E-02  0.1323412E+00
         21   -1    0    0  504  502  0.00000000000E+00  0.00000000000E+00  0.24245523899E+03  0.24245523899E+03  0.00000000000E+00 0.  1.
          2   -1    0    0  503    0 -0.00000000000E+00 -0.00000000000E+00 -0.26261562400E+03  0.26261562400E+03  0.00000000000E+00 0. -1.
         21    1    1    2  503  502 -0.44675848674E+02  0.79335388306E+02  0.45843516270E+02  0.10193950793E+03  0.00000000000E+00 0.  1.
         21    1    1    2  504  505  0.30003328947E+02 -0.72826568330E+02  0.13466133397E+03  0.15600507578E+03  0.00000000000E+00 0.  1.
         21    1    1    2  505  501  0.18847324947E+02 -0.41307959104E+02 -0.20589868912E+01  0.45451166872E+02  0.00000000000E+00 0.  1.
          2    1    1    2  501    0 -0.41748052208E+01  0.34799139129E+02 -0.19860624836E+03  0.20167511242E+03  0.00000000000E+00 0. -1.
<scales pt_clust_3="82.02098" pt_clust_4="14000.00000" pt_clust_5="32.95718" pt_clust_6="35.04867"></scales>
<clustering>
<clus scale="   35.049">  2  6  1 -1</clus>
<clus scale="   32.957">  2  5  1 -1</clus>
<clus scale="   82.021">  2  3  1 -1</clus>
<clus scale="   82.021">  1  3  2 -1</clus>
</clustering>
</event>
<event>
 6    0  0.4945982E+002  0.1647020E+03  0.7546771E-02  0.1183488E+00
         21   -1    0    0  504  502  0.00000000000E+00  0.00000000000E+00  0.64113623793E+03  0.64113623793E+03  0.00000000000E+00 0. -1.
         -2   -1    0    0    0  501 -0.00000000000E+00 -0.00000000000E+00 -0.34234390327E+03  0.34234390327E+03  0.00000000000E+00 0. -1.
         21    1    1    2  503  505  0.39976530628E+02  0.56628586827E+02 -0.15345096697E+03  0.16838087513E+03  0.00000000000E+00 0. -1.
         21    1    1    2  504  501  0.27339028508E+01 -0.33044531373E+02  0.30145378272E+03  0.30327182262E+03  0.00000000000E+00 0. -1.
         21    1    1    2  505  502 -0.57910569238E+02 -0.11793433453E+03  0.30404411152E+03  0.33121739544E+03  0.00000000000E+00 0. -1.
         -2    1    1    2    0  503  0.15200135760E+02  0.94350279080E+02 -0.15325459261E+03  0.18061004802E+03  0.00000000000E+00 0. -1.
<scales pt_clust_3="37.10236" pt_clust_4="33.15743" pt_clust_5="158.86934" pt_clust_6="37.10236"></scales>
<clustering>
<clus scale="   33.157">  1  4  2 -1</clus>
<clus scale="   37.102">  3  6 -1 -1</clus>
<clus scale="  158.869">  1  5  2 -1</clus>
<clus scale="   33.157">  1  3  2 -1</clus>
</clustering>
</event>
<event>
 6    0  0.4945982E+002  0.1210716E+03  0.7546771E-02  0.1241340E+00
         21   -1    0    0  503  502  0.00000000000E+00  0.00000000000E+00  0.10174767381E+02  0.10174767381E+02  0.00000000000E+00 0.  1.
          2   -1    0    0  502    0 -0.00000000000E+00 -0.00000000000E+00 -0.26993080796E+04  0.26993080796E+04  0.00000000000E+00 0.  1.
         21    1    1    2  503  504  0.53183063832E+02 -0.14035143578E+01 -0.21392372023E+03  0.22043993787E+03  0.00000000000E+00 0.  1.
         21    1    1    2  504  505  0.55454388030E+02  0.58928264009E+02 -0.38821335916E+03  0.39655685807E+03  0.00000000000E+00 0.  1.
         21    1    1    2  505  501 -0.81731547260E+02 -0.34779913740E+02 -0.78434197071E+03  0.78935544290E+03  0.00000000000E+00 0.  1.
          2    1    1    2  501    0 -0.26905904602E+02 -0.22744835912E+02 -0.13026542622E+04  0.13031306082E+04  0.00000000000E+00 0.  1.
<scales pt_clust_3="45.62348" pt_clust_4="45.62348" pt_clust_5="107.95152" pt_clust_6="35.23145"></scales>
<clustering>
<clus scale="   35.231">  2  6  1 -1</clus>
<clus scale="   45.623">  3  4 -1 -1</clus>
<clus scale="  107.952">  2  5  1 -1</clus>
<clus scale="  121.072">  1  3  2 -1</clus>
</clustering>
</event>
<event>
 6    0  0.4945982E+002  0.9062961E+02  0.7546771E-02  0.1301334E+00
          2   -1    0    0  505    0 -0.00000000000E+00  0.00000000000E+00  0.96747788706E+02  0.96747788706E+02  0.00000000000E+00 0. -1.
         21   -1    0    0  504  502  0.00000000000E+00 -0.00000000000E+00 -0.16272370037E+04  0.16272370037E+04  0.00000000000E+00 0.  1.
         21    1    1    2  503  502  0.74493435596E+02  0.46197038700E+02 -0.77343199133E+02  0.11689913936E+03  0.00000000000E+00 0.  1.
         21    1    1    2  504  501 -0.47625894718E+02 -0.53610438697E+02 -0.14112589424E+04  0.14130796536E+04  0.00000000000E+00 0.  1.
         21    1    1    2  505  503  0.27887356813E+02  0.34536120967E+02 -0.10016871305E+03  0.10956376863E+03  0.00000000000E+00 0.  1.
          2    1    1    2  501    0 -0.54754897690E+02 -0.27122720970E+02  0.58281639639E+02  0.84442230743E+02  0.00000000000E+00 0. -1.
<scales pt_clust_3="37.48930" pt_clust_4="73.74568" pt_clust_5="37.48930" pt_clust_6="61.10434"></scales>
<clustering>
<clus scale="   37.489">  3  5 -1 -1</clus>
<clus scale="   61.104">  1  6  2 -1</clus>
<clus scale="   73.746">  2  4  1 -1</clus>
<clus scale="   73.746">  2  3  1 -1</clus>
</clustering>
</event>
<event>
 6    0  0.4945982E+002  0.1153266E+03  0.7546771E-02  0.1251012E+00
         21   -1    0    0  504  502  0.00000000000E+00  0.00000000000E+00  0.23493814840E+03  0.23493814840E+03  0.00000000000E+00 0.  1.
         -2   -1    0    0    0  501 -0.00000000000E+00 -0.00000000000E+00 -0.26647137336E+03  0.26647137336E+03  0.00000000000E+00 0. -1.
         21    1    1    2  503  505  0.13068355249E+03 -0.48271336279E+00  0.47335622726E+02  0.13899311164E+03  0.00000000000E+00 0.  1.
         21    1    1    2  504  501  0.18219072741E+02  0.70896596863E+02 -0.37739673782E+02  0.82356208239E+02  0.00000000000E+00 0.  1.
         21    1    1    2  505  502 -0.30874650252E+02  0.10915681214E+02  0.83769183357E+02  0.89942605060E+02  0.00000000000E+00 0.  1.
         -2    1    1    2    0  503 -0.11802797498E+03 -0.81329564715E+02 -0.12489835726E+03  0.19011759682E+03  0.00000000000E+00 0. -1.
<scales pt_clust_3="115.32658" pt_clust_4="73.79896" pt_clust_5="32.74746" pt_clust_6="14000.00000"></scales>
<clustering>
<clus scale="   32.747">  1  5  2 -1</clus>
<clus scale="   73.799">  2  4  1 -1</clus>
<clus scale="  115.327">  1  3  2 -1</clus>
<clus scale="   32.747">  1  3  2 -1</clus>
</clustering>
</event>
<event>
 6    0  0.4945982E+002  0.1737228E+03  0.7546771E-02  0.1174020E+00
         21   -1    0    0  504  502  0.00000000000E+00  0.00000000000E+00  0.59505173304E+03  0.59505173304E+03  0.00000000000E+00 0.  1.
          2   -1    0    0  503    0 -0.00000000000E+00 -0.00000000000E+00 -0.50215312391E+03  0.50215312391E+03  0.00000000000E+00 0.  1.
         21    1    1    2  503  505 -0.71356665500E+02  0.96296057945E+02  0.30410205878E+03  0.32686811812E+03  0.00000000000E+00 0.  1.
         21    1    1    2  504  501 -0.24272135790E+02 -0.27486014911E+02  0.11031918662E+03  0.11625377640E+03  0.00000000000E+00 0. -1.
         21    1    1    2  505  502  0.73497096059E+01  0.65212444351E+02  0.14584495167E+03  0.15992945651E+03  0.00000000000E+00 0.  1.
          2    1    1    2  501    0  0.88279091684E+02 -0.13402248738E+03 -0.46736758794E+03  0.49415350592E+03  0.00000000000E+00 0.  1.
<scales pt_clust_3="45.71895" pt_clust_4="36.66903" pt_clust_5="45.71895" pt_clust_6="160.75430"></scales>
<clustering>
<clus scale="   36.669">  1  4  2 -1</clus>
<clus scale="   45.719">  3  5 -1 -1</clus>
<clus scale="  160.754">  2  6  1 -1</clus>
<clus scale="   36.669">  1  3  2 -1</clus>
</clustering>
</event>
<event>
 6    0  0.4945982E+002  0.2030789E+03  0.7546771E-02  0.1147167E+00
         21   -1    0    0  504  502  0.00000000000E+00  0.00000000000E+00  0.28823684848E+03  0.28823684848E+03  0.00000000000E+00 0.  1.
         -3   -1    0    0    0  501 -0.00000000000E+00 -0.00000000000E+00 -0.21978825295E+03  0.21978825295E+03  0.00000000000E+00 0. -1.
         21    1    1    2  503  502  0.30753112119E+02 -0.10216476185E+02  0.37095922794E+02  0.49256855143E+02  0.00000000000E+00 0. -1.
         21    1    1    2  504  505 -0.10075801346E+03 -0.50166310407E+02  0.42099377381E+02  0.12017151722E+03  0.00000000000E+00 0. -1.
         21    1    1    2  505  501 -0.98859315305E+02 -0.36893553384E+02  0.71089545899E+02  0.12723215804E+03  0.00000000000E+00 0.  1.
         -3    1    1    2    0  503  0.16886421664E+03  0.97276339976E+02 -0.81836250540E+02  0.21136457102E+03  0.00000000000E+00 0. -1.
<scales pt_clust_3="32.40571" pt_clust_4="30.16097" pt_clust_5="30.16097" pt_clust_6="200.67564"></scales>
<clustering>
<clus scale="   30.161">  4  5 -1 -1</clus>
<clus scale="   32.406">  1  3  2 -1</clus>
<clus scale="  200.676">  2  6  1 -1</clus>
<clus scale="   32.406">  1  3  2 -1</clus>
</clustering>
</event>
<event>
 6    0  0.4945982E+002  0.1010266E+03  0.7546771E-02  0.1278152E+00
         21   -1    0    0  504  502  0.00000000000E+00  0.00000000000E+00  0.37429040797E+03  0.37429040797E+03  0.00000000000E+00 0. -1.
          1   -1    0    0  502    0 -0.00000000000E+00 -0.00000000000E+00 -0.16702791684E+03  0.16702791684E+03  0.00000000000E+00 0. -1.
         21    1    1    2  503  505  0.27817631741E+02  0.42218812716E+02  0.90441996813E+02  0.10361468800E+03  0.00000000000E+00 0. -1.
         21    1    1    2  504  503 -0.21704858936E+01 -0.70544567714E+02  0.16860945259E+03  0.18278510482E+03  0.00000000000E+00 0. -1.
         21    1    1    2  505  501  0.62100687827E+02  0.50109589901E+02  0.67999758245E+02  0.10484003792E+03  0.00000000000E+00 0. -1.
          1    1    1    2  501    0 -0.87747833674E+02 -0.21783834903E+02 -0.11978871652E+03  0.15007849407E+03  0.00000000000E+00 0. -1.
<scales pt_clust_3="33.20106" pt_clust_4="70.57795" pt_clust_5="33.20106" pt_clust_6="92.01424"></scales>
<clustering>
<clus scale="   33.201">  3  5 -1 -1</clus>
<clus scale="   70.578">  1  4  2 -1</clus>
<clus scale="   92.014">  2  6  1 -1</clus>
<clus scale="   70.578">  1  3  2 -1</clus>
</clustering>
</event>
<event>
 6    0  0.4945982E+002  0.1616501E+03  0.7546771E-02  0.1186846E+00
         21   -1    0    0  504  502  0.00000000000E+00  0.00000000000E+00  0.29862965269E+02  0.29862965269E+02  0.00000000000E+00 0. -1.
          2   -1    0    0  505    0 -0.00000000000E+00 -0.00000000000E+00 -0.21485880354E+04  0.21485880354E+04  0.00000000000E+00 0. -1.
         21    1    1    2  503  501 -0.13728882362E+03  0.30899037668E+02 -0.35865492744E+03  0.38527435497E+03  0.00000000000E+00 0. -1.
         21    1    1    2  504  503 -0.52482849498E+02  0.44152306282E+02 -0.12564670878E+03  0.14314667676E+03  0.00000000000E+00 0.  1.
         21    1    1    2  505  502  0.65865298334E+02 -0.27569985934E+01 -0.26349483746E+03  0.27161621442E+03  0.00000000000E+00 0. -1.
          2    1    1    2  501    0  0.12390637478E+03 -0.72294345357E+02 -0.13709285965E+04  0.13784137546E+04  0.00000000000E+00 0. -1.
<scales pt_clust_3="38.45835" pt_clust_4="38.45835" pt_clust_5="65.92297" pt_clust_6="151.97379"></scales>
<clustering>
<clus scale="   38.458">  3  4 -1 -1</clus>
<clus scale="   65.923">  1  5  2 -1</clus>
<clus scale="  151.974">  2  6  1 -1</clus>
<clus scale="   65.923">  1  3  2 -1</clus>
</clustering>
</event>
<event>
 6    0  0.4945982E+002  0.1756068E+03  0.7546771E-02  0.1172124E+00
          4   -1    0    0  503    0 -0.00000000000E+00  0.00000000000E+00  0.26728294055E+03  0.26728294055E+03  0.00000000000E+00 0.  1.
         21   -1    0    0  504  502  0.00000000000E+00 -0.00000000000E+00 -0.12009355733E+04  0.12009355733E+04  0.00000000000E+00 0. -1.
         21    1    1    2  503  502 -0.87532349371E+02 -0.41276266975E+02 -0.15383035522E+03  0.18173998071E+03  0.00000000000E+00 0. -1.
         21    1    1    2  504  505  0.64673765216E+02  0.29169690785E+02 -0.42788430813E+03  0.43372635142E+03  0.00000000000E+00 0. -1.
         21    1    1    2  505  501  0.78018678521E+02  0.14804623135E+03 -0.56769337087E+03  0.59184488182E+03  0.00000000000E+00 0. -1.
          4    1    1    2  501    0 -0.55160094366E+02 -0.13593965516E+03  0.21575540149E+03  0.26090729987E+03  0.00000000000E+00 0.  1.
<scales pt_clust_3="96.77625" pt_clust_4="61.27052" pt_clust_5="61.27052" pt_clust_6="148.26642"></scales>
<clustering>
<clus scale="   61.271">  4  5 -1 -1</clus>
<clus scale="   96.776">  2  3  1 -1</clus>
<clus scale="  148.266">  1  6  2 -1</clus>
<clus scale="   96.776">  2  3  1 -1</clus>
</clustering>
</event>
<event>
 6    0  0.4945982E+002  0.1299463E+03  0.7546771E-02  0.1227535E+00
         21   -1    0    0  504  502  0.00000000000E+00  0.00000000000E+00  0.71803773539E+03  0.71803773539E+03  0.00000000000E+00 0. -1.
         -2   -1    0    0    0  501 -0.00000000000E+00 -0.00000000000E+00 -0.37198783010E+02  0.37198783010E+02  0.00000000000E+00 0. -1.
         21    1    1    2  503  505 -0.46317580143E+02  0.30955100077E+02  0.20084512525E+03  0.20842816697E+03  0.00000000000E+00 0. -1.
         21    1    1    2  504  503 -0.20232822058E+02  0.65280267386E+02  0.24349351356E+03  0.25290308725E+03  0.00000000000E+00 0. -1.
         21    1    1    2  505  501  0.68844821783E+01  0.32158561232E+02  0.42632191558E+02  0.53843039591E+02  0.00000000000E+00 0. -1.
         -2    1    1    2    0  502  0.59665920023E+02 -0.12839392869E+03  0.19386812202E+03  0.24006222459E+03  0.00000000000E+00 0. -1.
<scales pt_clust_3="36.60569" pt_clust_4="36.60569" pt_clust_5="32.88722" pt_clust_6="123.23369"></scales>
<clustering>
<clus scale="   32.887">  2  5  1 -1</clus>
<clus scale="   36.606">  3  4 -1 -1</clus>
<clus scale="  123.234">  2  6  1 -1</clus>
<clus scale="  129.946">  1  3  2 -1</clus>
</clustering>
</event>
<event>
 6    0  0.4945982E+002  0.1409483E+03  0.7546771E-02  0.1212059E+00
          2   -1    0    0  505    0 -0.00000000000E+00  0.00000000000E+00  0.23724914289E+04  0.23724914289E+04  0.00000000000E+00 0. -1.
         21   -1    0    0  504  502  0.00000000000E+00 -0.00000000000E+00 -0.33218444946E+02  0.33218444946E+02  0.00000000000E+00 0.  1.
         21    1    1    2  503  502  0.59228422103E+02  0.17642569911E+03  0.41430740980E+03  0.45418571434E+03  0.00000000000E+00 0.  1.
         21    1    1    2  504  501 -0.38732871604E+02 -0.38640979954E+02  0.67035156681E+02  0.86527873577E+02  0.00000000000E+00 0.  1.
         21    1    1    2  505  503 -0.28035311976E+02 -0.22743944681E+02  0.21359519149E+03  0.21662449438E+03  0.00000000000E+00 0.  1.
          2    1    1    2  501    0  0.75397614770E+01 -0.11504077447E+03  0.16443352260E+04  0.16483717916E+04  0.00000000000E+00 0. -1.
<scales pt_clust_3="140.94832" pt_clust_4="55.98984" pt_clust_5="36.10077" pt_clust_6="14000.00000"></scales>
<clustering>
<clus scale="   36.101">  1  5  2 -1</clus>
<clus scale="   55.990">  2  4  1 -1</clus>
<clus scale="  140.948">  2  3  1 -1</clus>
<clus scale="   55.990">  2  3  1 -1</clus>
</clustering>
</event>
<event>
 6    0  0.6313178E+002  0.9385261E+02  0.7546771E-02  0.1293781E+00
         21   -1    0    0  504  502  0.00000000000E+00  0.00000000000E+00  0.12885379750E+04  0.12885379750E+04  0.00000000000E+00 0. -1.
          1   -1    0    0  503    0 -0.00000000000E+00 -0.00000000000E+00 -0.81753552248E+03  0.81753552248E+03  0.00000000000E+00 0. -1.
         21    1    1    2  503  502  0.84614748252E+02  0.24803534952E+02  0.10774156186E+04  0.10810177085E+04  0.00000000000E+00 0. -1.
         21    1    1    2  504  505  0.33865138980E+02  0.24282490564E+02  0.10923360198E+03  0.11691221830E+03  0.00000000000E+00 0. -1.
         21    1    1    2  505  501 -0.45280875160E+02  0.97024145302E+01  0.87782004457E+02  0.99248046880E+02  0.00000000000E+00 0. -1.
          1    1    1    2  501    0 -0.73199012072E+02 -0.58788440046E+02 -0.80342877245E+03  0.80889552382E+03  0.00000000000E+00 0. -1.
<scales pt_clust_3="14000.00000" pt_clust_4="41.67118" pt_clust_5="44.14729" pt_clust_6="93.85261"></scales>
<clustering>
<clus scale="   41.671">  1  4  2 -1</clus>
<clus scale="   44.147">  1  5  2 -1</clus>
<clus scale="   93.853">  2  6  1 -1</clus>
<clus scale="   41.671">  1  3  2 -1</clus>
</clustering>
</event>
<event>
 6    0  0.4945982E+002  0.9206599E+02  0.7546771E-02  0.1297924E+00
         21   -1    0    0  503  502  0.00000000000E+00  0.00000000000E+00  0.57376450692E+02  0.57376450692E+02  0.00000000000E+00 0. -1.
          2   -1    0    0  504    0 -0.00000000000E+00 -0.00000000000E+00 -0.77028530087E+03  0.77028530087E+03  0.00000000000E+00 0.  1.
         21    1    1    2  503  501  0.65841826927E+02 -0.25111356734E+01 -0.18573747714E+02  0.68457549472E+02  0.00000000000E+00 0. -1.
         21    1    1    2  504  505  0.62428061139E+02 -0.22858404050E+02 -0.79504727863E+02  0.10363769201E+03  0.00000000000E+00 0. -1.
         21    1    1    2  505  502 -0.28133793385E+02  0.10754492244E+02  0.22878510313E+01  0.30206020857E+02  0.00000000000E+00 0. -1.
          2    1    1    2  501    0 -0.10013609468E+03  0.14615047480E+02 -0.61711822563E+03  0.62536048922E+03  0.00000000000E+00 0.  1.
<scales pt_clust_3="48.94543" pt_clust_4="14000.00000" pt_clust_5="30.11925" pt_clust_6="92.06599"></scales>
<clustering>
<clus scale="   30.119">  1  5  2 -1</clus>
<clus scale="   48.945">  1  3  2 -1</clus>
<clus scale="   92.066">  2  6  1 -1</clus>
<clus scale="   30.119">  1  3  2 -1</clus>
</clustering>
</event>
<event>
 6    0  0.4945982E+002  0.1160688E+03  0.7546771E-02  0.1249727E+00
          1   -1    0    0  505    0 -0.00000000000E+00  0.00000000000E+00  0.27911190284E+03  0.27911190284E+03  0.00000000000E+00 0.  1.
         21   -1    0    0  503  502  0.00000000000E+00 -0.00000000000E+00 -0.31962738716E+03  0.31962738716E+03  0.00000000000E+00 0. -1.
         21    1    1    2  503  501  0.91778225025E+02 -0.25445239785E+02 -0.14000120939E+03  0.16932525342E+03  0.00000000000E+00 0.  1.
         21    1    1    2  504  502 -0.58480192459E+02  0.15529120555E+02 -0.76610636105E+02  0.97623132810E+02  0.00000000000E+00 0. -1.
         21    1    1    2  505  504 -0.59933343212E+02  0.52859880442E+02 -0.53845786579E+02  0.96361513693E+02  0.00000000000E+00 0. -1.
          1    1    1    2  501    0  0.26635310645E+02 -0.42943761213E+02  0.22994214775E+03  0.23542939008E+03  0.00000000000E+00 0.  1.
<scales pt_clust_3="107.51570" pt_clust_4="38.05181" pt_clust_5="38.05181" pt_clust_6="50.53322"></scales>
<clustering>
<clus scale="   38.052">  4  5 -1 -1</clus>
<clus scale="   50.533">  1  6  2 -1</clus>
<clus scale="  107.516">  2  3  1 -1</clus>
<clus scale="  107.516">  2  3  1 -1</clus>
</clustering>
</event>
<event>
 6    0  0.4945982E+002  0.1164646E+03  0.7546771E-02  0.1249046E+00
         21   -1    0    0  504  502  0.00000000000E+00  0.00000000000E+00  0.25841380506E+03  0.25841380506E+03  0.00000000000E+00 0. -1.
          2   -1    0    0  502    0 -0.00000000000E+00 -0.00000000000E+00 -0.47653190684E+03  0.47653190684E+03  0.00000000000E+00 0. -1.
         21    1    1    2  503  505 -0.25139028964E+02 -0.95212551700E+02 -0.32209644373E+02  0.10360917898E+03  0.00000000000E+00 0. -1.
         21    1    1    2  504  503  0.28369972733E+02  0.25259869939E+02  0.18431919168E+03  0.18819266936E+03  0.00000000000E+00 0.  1.
         21    1    1    2  505  501 -0.86893895178E+02 -0.42608638590E+02 -0.10289883419E+03  0.14125938970E+03  0.00000000000E+00 0. -1.
          2    1    1    2  501    0  0.83662951409E+02  0.11256132035E+03 -0.26732881490E+03  0.30188447385E+03  0.00000000000E+00 0. -1.
<scales pt_clust_3="83.45723" pt_clust_4="37.98574" pt_clust_5="116.46460" pt_clust_6="14000.00000"></scales>
<clustering>
<clus scale="   37.986">  1  4  2 -1</clus>
<clus scale="   83.457">  1  3  2 -1</clus>
<clus scale="  116.465">  1  5  2 -1</clus>
<clus scale="   37.986">  1  3  2 -1</clus>
</clustering>
</event>
<event>
 6    0  0.4945982E+002  0.9621890E+02  0.7546771E-02  0.1288454E+00
          1   -1    0    0  503    0 -0.00000000000E+00  0.00000000000E+00  0.28873702598E+03  0.28873702598E+03  0.00000000000E+00 0. -1.
         21   -1    0    0  505  502  0.00000000000E+00 -0.00000000000E+00 -0.90747949965E+02  0.90747949965E+02  0.00000000000E+00 0.  1.
         21    1    1    2  503  504  0.81270426333E+02  0.45192380248E+02  0.44947333501E+02  0.10328357187E+03  0.00000000000E+00 0.  1.
         21    1    1    2  504  502  0.20217946366E+02  0.39115654010E+02 -0.34785177594E+01  0.44168991722E+02  0.00000000000E+00 0.  1.
         21    1    1    2  505  501 -0.25630604784E+02 -0.22018807582E+02 -0.12952354015E+02  0.36187280409E+02  0.00000000000E+00 0.  1.
          1    1    1    2  501    0 -0.75857767915E+02 -0.62289226677E+02  0.16947261428E+03  0.19584513194E+03  0.00000000000E+00 0. -1.
<scales pt_clust_3="96.21890" pt_clust_4="33.06899" pt_clust_5="33.78988" pt_clust_6="14000.00000"></scales>
<clustering>
<clus scale="   33.790">  2  5  1 -1</clus>
<clus scale="   33.069">  2  4  1 -1</clus>
<clus scale="   96.219">  2  3  1 -1</clus>
<clus scale="   33.790">  2  3  1 -1</clus>
</clustering>
</event>
<event>
 6    0  0.4945982E+002  0.1274077E+03  0.7546771E-02  0.1231354E+00
          1   -1    0    0  505    0 -0.00000000000E+00  0.00000000000E+00  0.38476503662E+04  0.38476503662E+04  0.00000000000E+00 0.  1.
         21   -1    0    0  503  502  0.00000000000E+00 -0.00000000000E+00 -0.16452158679E+03  0.16452158679E+03  0.00000000000E+00 0. -1.
         21    1    1    2  503  501  0.77333331009E+02 -0.43811653499E+02  0.53126359730E+03  0.53864730101E+03  0.00000000000E+00 0. -1.
         21    1    1    2  504  502 -0.39190188422E+02  0.28029057057E+02 -0.12383957209E+03  0.13288242368E+03  0.00000000000E+00 0. -1.
         21    1    1    2  505  504 -0.11137818060E+03 -0.15690729399E+02  0.66945592415E+02  0.13089312605E+03  0.00000000000E+00 0. -1.
          1    1    1    2  501    0  0.73235038014E+02  0.31473325841E+02  0.32087591618E+04  0.32097491023E+04  0.00000000000E+00 0.  1.
<scales pt_clust_3="127.40768" pt_clust_4="48.18194" pt_clust_5="14000.00000" pt_clust_6="79.37225"></scales>
<clustering>
<clus scale="   48.182">  2  4  1 -1</clus>
<clus scale="   79.372">  1  6  2 -1</clus>
<clus scale="  127.408">  1  3  2 -1</clus>
<clus scale="   48.182">  2  3  1 -1</clus>
</clustering>
</event>
<event>
 6    0  0.4945982E+002  0.1574603E+03  0.7546771E-02  0.1191594E+00
         21   -1    0    0  503  502  0.00000000000E+00  0.00000000000E+00  0.30417357637E+03  0.30417357637E+03  0.00000000000E+00 0.  1.
          2   -1    0    0  502    0 -0.00000000000E+00 -0.00000000000E+00 -0.24475194027E+04  0.24475194027E+04  0.00000000000E+00 0.  1.
         21    1    1    2  503  504  0.23721482374E+02 -0.22694411880E+02  0.26746760218E+03  0.26947479153E+03  0.00000000000E+00 0.  1.
         21    1    1    2  504  505 -0.79437708670E+01 -0.98122788249E+02 -0.10057824840E+03  0.14073794485E+03  0.00000000000E+00 0.  1.
         21    1    1    2  505  501  0.11795063373E+03  0.72630210743E+00 -0.28722488435E+03  0.31050122979E+03  0.00000000000E+00 0.  1.
          2    1    1    2  501    0 -0.13372834524E+03  0.12009089802E+03 -0.20230102958E+04  0.20309790129E+04  0.00000000000E+00 0.  1.
<scales pt_clust_3="32.82903" pt_clust_4="111.01795" pt_clust_5="157.46033" pt_clust_6="14000.00000"></scales>
<clustering>
<clus scale="   32.829">  1  3  2 -1</clus>
<clus scale="  111.018">  1  4  2 -1</clus>
<clus scale="  157.460">  1  5  2 -1</clus>
<clus scale="   32.829">  1  3  2 -1</clus>
</clustering>
</event>
<event>
 6    0  0.4945982E+002  0.1367875E+03  0.7546771E-02  0.1217718E+00
          2   -1    0    0  503    0 -0.00000000000E+00  0.00000000000E+00  0.22919900906E+04  0.22919900906E+04  0.00000000000E+00 0.  1.
         21   -1    0    0  505  502  0.00000000000E+00 -0.00000000000E+00 -0.74634229221E+02  0.74634229221E+02  0.00000000000E+00 0.  1.
         21    1    1    2  503  502  0.33005367743E+02  0.92021611433E+02  0.10416825500E+03  0.14285781960E+03  0.00000000000E+00 0.  1.
         21    1    1    2  504  501  0.17264068304E+02 -0.16849252512E+03  0.10005610400E+03  0.19672062176E+03  0.00000000000E+00 0.  1.
         21    1    1    2  505  504 -0.21755188964E+02 -0.29845687380E+02  0.57631316682E+02  0.68450142180E+02  0.00000000000E+00 0.  1.
          2    1    1    2  501    0 -0.28514247083E+02  0.10631660107E+03  0.19555001857E+04  0.19585957363E+04  0.00000000000E+00 0.  1.
<scales pt_clust_3="97.76160" pt_clust_4="36.44713" pt_clust_5="36.44713" pt_clust_6="112.33359"></scales>
<clustering>
<clus scale="   36.447">  4  5 -1 -1</clus>
<clus scale="   97.762">  2  3  1 -1</clus>
<clus scale="  112.334">  1  6  2 -1</clus>
<clus scale="   97.762">  2  3  1 -1</clus>
</clustering>
</event>
<event>
 6    0  0.4945982E+002  0.1455267E+03  0.7546771E-02  0.1206080E+00
          2   -1    0    0  504    0 -0.00000000000E+00  0.00000000000E+00  0.17261210513E+04  0.17261210513E+04  0.00000000000E+00 0. -1.
         21   -1    0    0  503  502  0.00000000000E+00 -0.00000000000E+00 -0.11901689230E+03  0.11901689230E+03  0.00000000000E+00 0.  1.
         21    1    1    2  503  501 -0.30976732724E+02 -0.56741432559E+02  0.32179300858E+02  0.72212571917E+02  0.00000000000E+00 0. -1.
         21    1    1    2  504  505  0.13907780616E+03  0.23801946429E+02  0.38911411752E+02  0.14636689101E+03  0.00000000000E+00 0.  1.
         21    1    1    2  505  502  0.32394477590E+02 -0.92536225861E+01 -0.35076256586E+02  0.48635126045E+02  0.00000000000E+00 0.  1.
          2    1    1    2  501    0 -0.14049555103E+03  0.42193108716E+02  0.15710897030E+04  0.15779233546E+04  0.00000000000E+00 0. -1.
<scales pt_clust_3="63.30338" pt_clust_4="145.52672" pt_clust_5="33.69023" pt_clust_6="14000.00000"></scales>
<clustering>
<clus scale="   33.690">  2  5  1 -1</clus>
<clus scale="   63.303">  2  3  1 -1</clus>
<clus scale="  145.527">  2  4  1 -1</clus>
<clus scale="   33.690">  2  3  1 -1</clus>
</clustering>
</event>
<event>
 6    0  0.4945982E+002  0.1223110E+03  0.7546771E-02  0.1239333E+00
         21   -1    0    0  501  502  0.00000000000E+00  0.00000000000E+00  0.10251950284E+02  0.10251950284E+02  0.00000000000E+00 0.  1.
          2   -1    0    0  504    0 -0.00000000000E+00 -0.00000000000E+00 -0.21205082539E+04  0.21205082539E+04  0.00000000000E+00 0.  1.
         21    1    1    2  503  502 -0.33188345309E+02  0.48686505822E+01 -0.12669065455E+03  0.13105606423E+03  0.00000000000E+00 0.  1.
         21    1    1    2  504  505 -0.30001406943E+02  0.57598135515E+02 -0.43448966563E+03  0.43931639984E+03  0.00000000000E+00 0.  1.
         21    1    1    2  505  503  0.27891622060E+01  0.38113138059E+02 -0.10833221599E+03  0.11487497439E+03  0.00000000000E+00 0.  1.
          2    1    1    2  501    0  0.60400590046E+02 -0.10057992416E+03 -0.14407437675E+04  0.14455127657E+04  0.00000000000E+00 0.  1.
<scales pt_clust_3="33.54355" pt_clust_4="38.68178" pt_clust_5="38.68178" pt_clust_6="111.30436"></scales>
<clustering>
<clus scale="   33.544">  1  3  2 -1</clus>
<clus scale="   38.682">  4  5 -1 -1</clus>
<clus scale="  111.304">  2  6  1 -1</clus>
<clus scale="   33.544">  1  3  2 -1</clus>
</clustering>
</event>
<event>
 6    0  0.4945982E+002  0.1153044E+03  0.7546771E-02  0.1251051E+00
          2   -1    0    0  505    0 -0.00000000000E+00  0.00000000000E+00  0.79558630864E+03  0.79558630864E+03  0.00000000000E+00 0.  1.
         21   -1    0    0  504  502  0.00000000000E+00 -0.00000000000E+00 -0.16057996683E+03  0.16057996683E+03  0.00000000000E+00 0.  1.
         21    1    1    2  503  502 -0.46464385737E+02 -0.21560749788E+01 -0.13713761994E+02  0.48493866305E+02  0.00000000000E+00 0.  1.
         21    1    1    2  504  501  0.30316863086E+02 -0.85142660624E+02  0.72042211045E+02  0.11557882599E+03  0.00000000000E+00 0.  1.
         21    1    1    2  505  503 -0.41455765663E+02  0.10936790579E+03 -0.74060967977E+02  0.13843751768E+03  0.00000000000E+00 0.  1.
          2    1    1    2  501    0  0.57603288314E+02 -0.22069170189E+02  0.65073886073E+03  0.65365606550E+03  0.00000000000E+00 0.  1.
<scales pt_clust_3="46.51438" pt_clust_4="115.30442" pt_clust_5="14000.00000" pt_clust_6="61.20645"></scales>
<clustering>
<clus scale="   46.514">  2  3  1 -1</clus>
<clus scale="   61.206">  1  6  2 -1</clus>
<clus scale="  115.304">  1  4  2 -1</clus>
<clus scale="   46.514">  2  3  1 -1</clus>
</clustering>
</event>
<event>
 6    0  0.4945982E+002  0.2923451E+03  0.7546771E-02  0.1089131E+00
         21   -1    0    0  504  502  0.00000000000E+00  0.00000000000E+00  0.36017990279E+03  0.36017990279E+03  0.00000000000E+00 0. -1.
          1   -1    0    0  502    0 -0.00000000000E+00 -0.00000000000E+00 -0.45248907763E+03  0.45248907763E+03  0.00000000000E+00 0.  1.
         21    1    1    2  503  501 -0.66612502376E+02  0.15485133200E+01  0.54092856980E+02  0.85823426537E+02  0.00000000000E+00 0. -1.
         21    1    1    2  504  505 -0.66082874116E+02 -0.77575819790E+02  0.65662693180E+02  0.12122930068E+03  0.00000000000E+00 0.  1.
         21    1    1    2  505  503 -0.15869034705E+03  0.11085620024E+03  0.62827100241E+02  0.20351650523E+03  0.00000000000E+00 0. -1.
          1    1    1    2  501    0  0.29138572354E+03 -0.34828893766E+02 -0.27489182524E+03  0.40209974796E+03  0.00000000000E+00 0.  1.
<scales pt_clust_3="47.84738" pt_clust_4="101.90659" pt_clust_5="47.84738" pt_clust_6="280.73931"></scales>
<clustering>
<clus scale="   47.847">  3  5 -1 -1</clus>
<clus scale="  101.907">  1  4  2 -1</clus>
<clus scale="  280.739">  2  6  1 -1</clus>
<clus scale="  101.907">  1  3  2 -1</clus>
</clustering>
</event>
<event>
 6    0  0.4945982E+002  0.1020087E+03  0.7546771E-02  0.1276128E+00
         21   -1    0    0  504  502  0.00000000000E+00  0.00000000000E+00  0.17062743901E+03  0.17062743901E+03  0.00000000000E+00 0.  1.
          1   -1    0    0  503    0 -0.00000000000E+00 -0.00000000000E+00 -0.24600656233E+04  0.24600656233E+04  0.00000000000E+00 0.  1.
         21    1    1    2  503  505 -0.87373135031E+02 -0.18176331495E+02 -0.62658963932E+03  0.63291312189E+03  0.00000000000E+00 0. -1.
         21    1    1    2  504  501  0.92630170165E+01  0.55346586013E+02  0.24814408677E+02  0.61357990070E+02  0.00000000000E+00 0.  1.
         21    1    1    2  505  502  0.93684979781E+02 -0.64147267192E+02  0.98303232156E+02  0.15018412958E+03  0.00000000000E+00 0.  1.
          1    1    1    2  501    0 -0.15574861767E+02  0.26977012675E+02 -0.17859661858E+04  0.17862378208E+04  0.00000000000E+00 0.  1.
<scales pt_clust_3="14000.00000" pt_clust_4="56.77056" pt_clust_5="102.00868" pt_clust_6="31.15021"></scales>
<clustering>
<clus scale="   31.150">  2  6  1 -1</clus>
<clus scale="   56.771">  1  4  2 -1</clus>
<clus scale="  102.009">  1  5  2 -1</clus>
<clus scale="   56.771">  1  3  2 -1</clus>
</clustering>
</event>
<event>
 6    0  0.4945982E+002  0.1674568E+03  0.7546771E-02  0.1180526E+00
          1   -1    0    0  505    0 -0.00000000000E+00  0.00000000000E+00  0.15365526268E+04  0.15365526268E+04  0.00000000000E+00 0. -1.
         21   -1    0    0  504  502  0.00000000000E+00 -0.00000000000E+00 -0.12768149027E+04  0.12768149027E+04  0.00000000000E+00 0.  1.
         21    1    1    2  503  501  0.14435553457E+03 -0.53585375424E+02 -0.11291727028E+03  0.19094560154E+03  0.00000000000E+00 0.  1.
         21    1    1    2  504  503  0.38863159239E+02  0.11909720877E+03 -0.10748969829E+04  0.10821728208E+04  0.00000000000E+00 0.  1.
         21    1    1    2  505  502 -0.16046308085E+03  0.33164423291E+02  0.10659918448E+03  0.19547804332E+03  0.00000000000E+00 0. -1.
          1    1    1    2  501    0 -0.22755612959E+02 -0.98676256640E+02  0.13409527928E+04  0.13447710638E+04  0.00000000000E+00 0. -1.
<scales pt_clust_3="167.45675" pt_clust_4="123.38327" pt_clust_5="14000.00000" pt_clust_6="101.26609"></scales>
<clustering>
<clus scale="  101.266">  1  6  2 -1</clus>
<clus scale="  123.383">  2  4  1 -1</clus>
<clus scale="  167.457">  2  3  1 -1</clus>
<clus scale="  123.383">  2  3  1 -1</clus>
</clustering>
</event>
<event>
 6    0  0.4945982E+002  0.2468580E+03  0.7546771E-02  0.1115307E+00
          2   -1    0    0  505    0 -0.00000000000E+00  0.00000000000E+00  0.20423226930E+04  0.20423226930E+04  0.00000000000E+00 0.  1.
         21   -1    0    0  504  502  0.00000000000E+00 -0.00000000000E+00 -0.95651339540E+02  0.95651339540E+02  0.00000000000E+00 0.  1.
         21    1    1    2  503  501  0.24533759231E+02 -0.37759286303E+02  0.67558136366E+02  0.81189721230E+02  0.00000000000E+00 0. -1.
         21    1    1    2  504  503  0.21324285888E+03 -0.63497373588E+02  0.62180281112E+03  0.66041136364E+03  0.00000000000E+00 0.  1.
         21    1    1    2  505  502 -0.43259145223E+02 -0.24596946844E+01 -0.52540433201E+02  0.68102135534E+02  0.00000000000E+00 0.  1.
          2    1    1    2  501    0 -0.19451747289E+03  0.10371635458E+03  0.13098508391E+04  0.13282708121E+04  0.00000000000E+00 0.  1.
<scales pt_clust_3="40.14461" pt_clust_4="40.14461" pt_clust_5="43.32902" pt_clust_6="230.16481"></scales>
<clustering>
<clus scale="   40.145">  3  4 -1 -1</clus>
<clus scale="   43.329">  2  5  1 -1</clus>
<clus scale="  230.165">  1  6  2 -1</clus>
<clus scale="   43.329">  2  3  1 -1</clus>
</clustering>
</event>
<event>
 6    0  0.4945982E+002  0.1711041E+03  0.7546771E-02  0.1176701E+00
         21   -1    0    0  503  502  0.00000000000E+00  0.00000000000E+00  0.11855087787E+04  0.11855087787E+04  0.00000000000E+00 0. -1.
          2   -1    0    0  505    0 -0.00000000000E+00 -0.00000000000E+00 -0.20630149407E+03  0.20630149407E+03  0.00000000000E+00 0. -1.
         21    1    1    2  503  501  0.72432597471E+02  0.78879858472E+02  0.25700545080E+03  0.27842470255E+03  0.00000000000E+00 0. -1.
         21    1    1    2  504  502  0.29781515087E+02  0.54784492755E+02  0.66827349676E+03  0.67117638945E+03  0.00000000000E+00 0. -1.
         21    1    1    2  505  504  0.75042141956E+02 -0.17815903530E+03  0.14148533411E+03  0.23956223554E+03  0.00000000000E+00 0. -1.
          2    1    1    2  501    0 -0.17725625451E+03  0.44494684071E+02 -0.87556997046E+02  0.20264694522E+03  0.00000000000E+00 0. -1.
<scales pt_clust_3="138.71323" pt_clust_4="62.35607" pt_clust_5="171.10411" pt_clust_6="14000.00000"></scales>
<clustering>
<clus scale="   62.356">  1  4  2 -1</clus>
<clus scale="  138.713">  1  3  2 -1</clus>
<clus scale="  171.104">  1  5  2 -1</clus>
<clus scale="   62.356">  1  3  2 -1</clus>
</clustering>
</event>
<event>
 6    0  0.4945982E+002  0.1097440E+03  0.7546771E-02  0.1261045E+00
         21   -1    0    0  505  502  0.00000000000E+00  0.00000000000E+00  0.31011604393E+03  0.31011604393E+03  0.00000000000E+00 0.  1.
          2   -1    0    0  504    0 -0.00000000000E+00 -0.00000000000E+00 -0.12606685910E+04  0.12606685910E+04  0.00000000000E+00 0. -1.
         21    1    1    2  503  501 -0.90440273854E+02  0.52088366235E+02 -0.34923081645E+02  0.11005572526E+03  0.00000000000E+00 0. -1.
         21    1    1    2  504  502 -0.21177286796E+02 -0.97131477916E+02  0.23800646767E+03  0.25793425544E+03  0.00000000000E+00 0.  1.
         21    1    1    2  505  503  0.71278028990E+01  0.80297579115E+02 -0.52613989357E+02  0.96263901137E+02  0.00000000000E+00 0. -1.
          2    1    1    2  501    0  0.10448975775E+03 -0.35254467434E+02 -0.11010219437E+04  0.11065307530E+04  0.00000000000E+00 0. -1.
<scales pt_clust_3="14000.00000" pt_clust_4="31.84344" pt_clust_5="80.61332" pt_clust_6="109.74399"></scales>
<clustering>
<clus scale="   80.613">  1  5  2 -1</clus>
<clus scale="   31.843">  1  4  2 -1</clus>
<clus scale="  109.744">  2  6  1 -1</clus>
<clus scale="   80.613">  1  3  2 -1</clus>
</clustering>
</event>
<event>
 6    0  0.4945982E+002  0.1499034E+03  0.7546771E-02  0.1200592E+00
         21   -1    0    0  505  502  0.00000000000E+00  0.00000000000E+00  0.82723486821E+02  0.82723486821E+02  0.00000000000E+00 0.  1.
          2   -1    0    0  503    0 -0.00000000000E+00 -0.00000000000E+00 -0.27669672423E+04  0.27669672423E+04  0.00000000000E+00 0. -1.
         21    1    1    2  503  504  0.32712710368E+02 -0.62151758195E+02 -0.10243059668E+03  0.12419738163E+03  0.00000000000E+00 0. -1.
         21    1    1    2  504  502  0.54578832614E+02  0.19636551969E+02 -0.29741896489E+02  0.65184534588E+02  0.00000000000E+00 0.  1.
         21    1    1    2  505  501  0.61568477977E+02  0.33364504169E+01  0.33491827465E+02  0.70167741083E+02  0.00000000000E+00 0.  1.
          2    1    1    2  501    0 -0.14886002096E+03  0.39178755809E+02 -0.25855630898E+04  0.25901410718E+04  0.00000000000E+00 0. -1.
<scales pt_clust_3="72.22512" pt_clust_4="58.00382" pt_clust_5="149.90345" pt_clust_6="14000.00000"></scales>
<clustering>
<clus scale="   58.004">  1  4  2 -1</clus>
<clus scale="   72.225">  1  3  2 -1</clus>
<clus scale="  149.903">  1  5  2 -1</clus>
<clus scale="   58.004">  1  3  2 -1</clus>
</clustering>
</event>
<event>
 6    0  0.4945982E+002  0.9313646E+02  0.7546771E-02  0.1295429E+00
          1   -1    0    0  503    0 -0.00000000000E+00  0.00000000000E+00  0.35630879292E+04  0.35630879292E+04  0.00000000000E+00 0.  1.
         21   -1    0    0  505  502  0.00000000000E+00 -0.00000000000E+00 -0.45740581478E+03  0.45740581478E+03  0.00000000000E+00 0.  1.
         21    1    1    2  503  504 -0.20308368713E+02  0.12536528211E+03  0.12641379690E+04  0.12705013532E+04  0.00000000000E+00 0.  1.
         21    1    1    2  504  502 -0.15442281727E+02 -0.55558432453E+02  0.69861853087E+02  0.90586323461E+02  0.00000000000E+00 0.  1.
         21    1    1    2  505  501  0.13113192616E+02 -0.43548421893E+02 -0.44256081803E+03  0.44489155816E+03  0.00000000000E+00 0.  1.
          1    1    1    2  501    0  0.22637457824E+02 -0.26258427765E+02  0.22142431103E+04  0.22145145091E+04  0.00000000000E+00 0.  1.
<scales pt_clust_3="14000.00000" pt_clust_4="93.13646" pt_clust_5="45.50726" pt_clust_6="34.66929"></scales>
<clustering>
<clus scale="   34.669">  1  6  2 -1</clus>
<clus scale="   45.507">  2  5  1 -1</clus>
<clus scale="   93.136">  2  4  1 -1</clus>
<clus scale="   45.507">  2  3  1 -1</clus>
</clustering>
</event>
<event>
 6    0  0.4945982E+002  0.1196911E+03  0.7546771E-02  0.1243608E+00
         21   -1    0    0  505  502  0.00000000000E+00  0.00000000000E+00  0.62252513889E+03  0.62252513889E+03  0.00000000000E+00 0.  1.
         -2   -1    0    0    0  501 -0.00000000000E+00 -0.00000000000E+00 -0.12349414222E+03  0.12349414222E+03  0.00000000000E+00 0.  1.
         21    1    1    2  503  502 -0.70182331410E+02 -0.33121391507E+02  0.10841899543E+03  0.13333140960E+03  0.00000000000E+00 0. -1.
         21    1    1    2  504  501 -0.85379830123E+02  0.40792646601E+02  0.61656620743E+02  0.11293933898E+03  0.00000000000E+00 0.  1.
         21    1    1    2  505  504  0.13474195761E+03  0.17932602676E+02  0.39943236729E+03  0.42192794340E+03  0.00000000000E+00 0.  1.
         -2    1    1    2    0  503  0.20820203918E+02 -0.25603857771E+02 -0.70476986791E+02  0.77820589120E+02  0.00000000000E+00 0.  1.
<scales pt_clust_3="76.04218" pt_clust_4="119.69106" pt_clust_5="14000.00000" pt_clust_6="33.00058"></scales>
<clustering>
<clus scale="   33.001">  2  6  1 -1</clus>
<clus scale="   76.042">  2  3  1 -1</clus>
<clus scale="  119.691">  2  4  1 -1</clus>
<clus scale="  119.691">  1  3  2 -1</clus>
</clustering>
</event>
<event>
 6    0  0.4945982E+002  0.1651110E+03  0.7546771E-02  0.1183044E+00
         21   -1    0    0  501  502  0.00000000000E+00  0.00000000000E+00  0.12814475326E+04  0.12814475326E+04  0.00000000000E+00 0. -1.
          2   -1    0    0  504    0 -0.00000000000E+00 -0.00000000000E+00 -0.14951350823E+03  0.14951350823E+03  0.00000000000E+00 0.  1.
         21    1    1    2  503  502 -0.43400866313E+02  0.12548433761E+02  0.13849945047E+03  0.14568183197E+03  0.00000000000E+00 0. -1.
         21    1    1    2  504  505 -0.47453653379E+02 -0.79759681752E+02  0.74374619197E+03  0.74951441222E+03  0.00000000000E+00 0. -1.
         21    1    1    2  505  503 -0.46383107416E+02 -0.10025840356E+02  0.34727379877E+03  0.35050107195E+03  0.00000000000E+00 0. -1.
          2    1    1    2  501    0  0.13723762711E+03  0.77237088347E+02 -0.97585416832E+02  0.18526372470E+03  0.00000000000E+00 0.  1.
<scales pt_clust_3="45.17852" pt_clust_4="38.12470" pt_clust_5="38.12470" pt_clust_6="156.26575"></scales>
<clustering>
<clus scale="   38.125">  4  5 -1 -1</clus>
<clus scale="   45.179">  1  3  2 -1</clus>
<clus scale="  156.266">  2  6  1 -1</clus>
<clus scale="   45.179">  1  3  2 -1</clus>
</clustering>
</event>
<event>
 6    0  0.4945982E+002  0.1792411E+03  0.7546771E-02  0.1168539E+00
         21   -1    0    0  503  502  0.00000000000E+00  0.00000000000E+00  0.42171589918E+03  0.42171589918E+03  0.00000000000E+00 0.  1.
          2   -1    0    0  504    0 -0.00000000000E+00 -0.00000000000E+00 -0.98193462400E+03  0.98193462400E+03  0.00000000000E+00 0.  1.
         21    1    1    2  503  505 -0.10974770802E+03 -0.60976710113E+02  0.55993222026E+02  0.13746984944E+03  0.00000000000E+00 0.  1.
         21    1    1    2  504  502 -0.33076673926E+02 -0.65463757191E+02 -0.53536870663E+02  0.90806202343E+02  0.00000000000E+00 0.  1.
         21    1    1    2  505  501  0.18214430441E+03  0.16973356387E+03  0.25454718629E+03  0.35606221420E+03  0.00000000000E+00 0.  1.
          2    1    1    2  501    0 -0.39319922457E+02 -0.43293096569E+02 -0.81722226247E+03  0.81931225719E+03  0.00000000000E+00 0.  1.
<scales pt_clust_3="14000.00000" pt_clust_4="98.44375" pt_clust_5="179.24114" pt_clust_6="58.48375"></scales>
<clustering>
<clus scale="   58.484">  2  6  1 -1</clus>
<clus scale="   98.444">  2  4  1 -1</clus>
<clus scale="  179.241">  2  5  1 -1</clus>
<clus scale="  179.241">  1  3  2 -1</clus>
</clustering>
</event>
<event>
 6    0  0.4945982E+002  0.9485950E+02  0.7546771E-02  0.1291493E+00
         21   -1    0    0  505  502  0.00000000000E+00  0.00000000000E+00  0.89791729088E+03  0.89791729088E+03  0.00000000000E+00 0. -1.
         -4   -1    0    0    0  501 -0.00000000000E+00 -0.00000000000E+00 -0.13459115670E+04  0.13459115670E+04  0.00000000000E+00 0.  1.
         21    1    1    2  503  502  0.39582472735E+02  0.13867727673E+02  0.54632648879E+03  0.54793404564E+03  0.00000000000E+00 0. -1.
         21    1    1    2  504  501 -0.13219748387E+02 -0.63024374172E+02  0.12133220197E+03  0.13736206435E+03  0.00000000000E+00 0.  1.
         21    1    1    2  505  504 -0.25471953033E+02 -0.46118935762E+02  0.21658044435E+03  0.22289653542E+03  0.00000000000E+00 0. -1.
         -4    1    1    2    0  503 -0.89077131526E+00  0.95275582261E+02 -0.13322334112E+04  0.13356362125E+04  0.00000000000E+00 0.  1.
<scales pt_clust_3="41.94146" pt_clust_4="14000.00000" pt_clust_5="37.43809" pt_clust_6="94.85950"></scales>
<clustering>
<clus scale="   41.941">  1  3  2 -1</clus>
<clus scale="   37.438">  1  5  2 -1</clus>
<clus scale="   94.860">  2  6  1 -1</clus>
<clus scale="   41.941">  1  3  2 -1</clus>
</clustering>
</event>
<event>
 6    0  0.4945982E+002  0.1315453E+03  0.7546771E-02  0.1225181E+00
          2   -1    0    0  502    0 -0.00000000000E+00  0.00000000000E+00  0.24221859595E+04  0.24221859595E+04  0.00000000000E+00 0.  1.
         21   -1    0    0  504  502  0.00000000000E+00 -0.00000000000E+00 -0.20446140353E+02  0.20446140353E+02  0.00000000000E+00 0. -1.
         21    1    1    2  503  505 -0.58067997977E+02 -0.39807183474E+01  0.20092387308E+03  0.20918446711E+03  0.00000000000E+00 0. -1.
         21    1    1    2  504  503  0.49776877374E+02 -0.32778581604E+02  0.91047170212E+02  0.10881985176E+03  0.00000000000E+00 0. -1.
         21    1    1    2  505  501 -0.10686974919E+03  0.29644040144E+02  0.57961292366E+03  0.59012799771E+03  0.00000000000E+00 0. -1.
          2    1    1    2  501    0  0.11516086979E+03  0.71152598070E+01  0.15301558522E+04  0.15344997832E+04  0.00000000000E+00 0.  1.
<scales pt_clust_3="30.73244" pt_clust_4="59.60011" pt_clust_5="30.73244" pt_clust_6="124.51710"></scales>
<clustering>
<clus scale="   30.732">  3  5 -1 -1</clus>
<clus scale="   59.600">  2  4  1 -1</clus>
<clus scale="  124.517">  1  6  2 -1</clus>
<clus scale="   59.600">  2  3  1 -1</clus>
</clustering>
</event>
<event>
 6    0  0.4945982E+002  0.1470675E+03  0.7546771E-02  0.1204123E+00
         21   -1    0    0  505  502  0.00000000000E+00  0.00000000000E+00  0.68709773611E+02  0.68709773611E+02  0.00000000000E+00 0.  1.
          1   -1    0    0  503    0 -0.00000000000E+00 -0.00000000000E+00 -0.28436259661E+04  0.28436259661E+04  0.00000000000E+00 0.  1.
         21    1    1    2  503  504 -0.96484085625E+02 -0.18401020652E+02 -0.48582740265E+02  0.10958128942E+03  0.00000000000E+00 0.  1.
         21    1    1    2  504  502  0.20216470522E+02 -0.57546896761E+02 -0.14349660568E+03  0.15592186135E+03  0.00000000000E+00 0. -1.
         21    1    1    2  505  501 -0.12025945539E+02 -0.48512387293E+02  0.87637554674E+01  0.50743260605E+02  0.00000000000E+00 0.  1.
          1    1    1    2  501    0  0.88293560642E+02  0.12446030471E+03 -0.25916006020E+04  0.25960893284E+04  0.00000000000E+00 0.  1.
<scales pt_clust_3="147.06750" pt_clust_4="67.79952" pt_clust_5="49.98075" pt_clust_6="14000.00000"></scales>
<clustering>
<clus scale="   49.981">  1  5  2 -1</clus>
<clus scale="   67.800">  1  4  2 -1</clus>
<clus scale="  147.067">  1  3  2 -1</clus>
<clus scale="   49.981">  1  3  2 -1</clus>
</clustering>
</event>
<event>
 6    0  0.4945982E+002  0.1559474E+03  0.7546771E-02  0.1193350E+00
          1   -1    0    0  503    0 -0.00000000000E+00  0.00000000000E+00  0.30035364958E+03  0.30035364958E+03  0.00000000000E+00 0. -1.
         21   -1    0    0  505  502  0.00000000000E+00 -0.00000000000E+00 -0.15146561441E+03  0.15146561441E+03  0.00000000000E+00 0. -1.
         21    1    1    2  503  504 -0.81193716190E+02  0.55390975113E+02  0.37482292198E+02  0.10519268939E+03  0.00000000000E+00 0. -1.
         21    1    1    2  504  502 -0.70404999494E+02  0.26322785127E+02 -0.93243169828E+01  0.75740978723E+02  0.00000000000E+00 0. -1.
         21    1    1    2  505  501  0.98687528391E+01 -0.66254793069E+02 -0.20653982964E+02  0.70097624064E+02  0.00000000000E+00 0. -1.
          1    1    1    2  501    0  0.14172996285E+03 -0.15458967171E+02  0.14138404292E+03  0.20078797182E+03  0.00000000000E+00 0. -1.
<scales pt_clust_3="41.80053" pt_clust_4="41.80053" pt_clust_5="66.98574" pt_clust_6="148.44113"></scales>
<clustering>
<clus scale="   41.801">  3  4 -1 -1</clus>
<clus scale="   66.986">  2  5  1 -1</clus>
<clus scale="  148.441">  1  6  2 -1</clus>
<clus scale="   66.986">  2  3  1 -1</clus>
</clustering>
</event>
<event>
 6    0  0.4945982E+002  0.1214673E+03  0.7546771E-02  0.1240696E+00
         21   -1    0    0  504  502  0.00000000000E+00  0.00000000000E+00  0.89026407163E+02  0.89026407163E+02  0.00000000000E+00 0. -1.
          2   -1    0    0  503    0 -0.00000000000E+00 -0.00000000000E+00 -0.23694241018E+04  0.23694241018E+04  0.00000000000E+00 0. -1.
         21    1    1    2  503  505 -0.19533647446E+01 -0.74479665013E+02 -0.59746948620E+02  0.95502534017E+02  0.00000000000E+00 0. -1.
         21    1    1    2  504  501 -0.77887164137E+02  0.28167795080E+02 -0.22573232290E+02  0.85845127019E+02  0.00000000000E+00 0. -1.
         21    1    1    2  505  502 -0.11060899799E+02 -0.44307529725E+02  0.23816422732E+02  0.51504588984E+02  0.00000000000E+00 0.  1.
          2    1    1    2  501    0  0.90901428681E+02  0.90619399658E+02 -0.22218939365E+04  0.22255982589E+04  0.00000000000E+00 0. -1.
<scales pt_clust_3="121.46728" pt_clust_4="84.70407" pt_clust_5="45.66728" pt_clust_6="14000.00000"></scales>
<clustering>
<clus scale="   45.667">  1  5  2 -1</clus>
<clus scale="   84.704">  1  4  2 -1</clus>
<clus scale="  121.467">  1  3  2 -1</clus>
<clus scale="   45.667">  1  3  2 -1</clus>
</clustering>
</event>
<event>
 6    0  0.4945982E+002  0.1097427E+03  0.7546771E-02  0.1261047E+00
          3   -1    0    0  504    0 -0.00000000000E+00  0.00000000000E+00  0.28546018598E+03  0.28546018598E+03  0.00000000000E+00 0.  1.
         21   -1    0    0  505  502  0.00000000000E+00 -0.00000000000E+00 -0.25254341340E+03  0.25254341340E+03  0.00000000000E+00 0.  1.
         21    1    1    2  503  501  0.93271750231E+02  0.35596298992E+02 -0.40691790762E+02  0.10780787415E+03  0.00000000000E+00 0.  1.
         21    1    1    2  504  502  0.17889912462E+02 -0.38861989456E+02  0.11809168600E+02  0.44381974442E+02  0.00000000000E+00 0.  1.
         21    1    1    2  505  503 -0.88183615573E+02 -0.81207082269E+02 -0.12887068327E+03  0.17600736710E+03  0.00000000000E+00 0.  1.
          3    1    1    2  501    0 -0.22978047120E+02  0.84472772733E+02  0.19067007802E+03  0.20980638368E+03  0.00000000000E+00 0.  1.
<scales pt_clust_3="14000.00000" pt_clust_4="42.78204" pt_clust_5="109.74268" pt_clust_6="54.98821"></scales>
<clustering>
<clus scale="   42.782">  1  4  2 -1</clus>
<clus scale="   54.988">  1  6  2 -1</clus>
<clus scale="  109.743">  2  5  1 -1</clus>
<clus scale="  109.743">  2  3  1 -1</clus>
</clustering>
</event>
<event>
 6    0  0.4945982E+002  0.9737151E+02  0.7546771E-02  0.1285922E+00
          2   -1    0    0  504    0 -0.00000000000E+00  0.00000000000E+00  0.13206258062E+04  0.13206258062E+04  0.00000000000E+00 0. -1.
         21   -1    0    0  503  502  0.00000000000E+00 -0.00000000000E+00 -0.86462044722E+02  0.86462044722E+02  0.00000000000E+00 0.  1.
         21    1    1    2  503  505 -0.42909331149E+02  0.46965853131E+02  0.19900620334E+02  0.66656108120E+02  0.00000000000E+00 0.  1.
         21    1    1    2  504  502  0.33714722256E+02 -0.70669491203E+02 -0.15982046586E+02  0.79914237134E+02  0.00000000000E+00 0.  1.
         21    1    1    2  505  501 -0.60835996016E+02  0.14440115419E+02  0.55364427768E+02  0.83514999890E+02  0.00000000000E+00 0.  1.
          2    1    1    2  501    0  0.70030604909E+02  0.92635226529E+01  0.11748807599E+04  0.11770025058E+04  0.00000000000E+00 0. -1.
<scales pt_clust_3="48.08788" pt_clust_4="84.43022" pt_clust_5="48.08788" pt_clust_6="70.64063"></scales>
<clustering>
<clus scale="   48.088">  3  5 -1 -1</clus>
<clus scale="   70.641">  1  6  2 -1</clus>
<clus scale="   84.430">  2  4  1 -1</clus>
<clus scale="   84.430">  2  3  1 -1</clus>
</clustering>
</event>
<event>
 6    0  0.4945982E+002  0.9058990E+02  0.7546771E-02  0.1301429E+00
         -2   -1    0    0    0  501 -0.00000000000E+00  0.00000000000E+00  0.16191920265E+04  0.16191920265E+04  0.00000000000E+00 0.  1.
         21   -1    0    0  503  502  0.00000000000E+00 -0.00000000000E+00 -0.54303811282E+02  0.54303811282E+02  0.00000000000E+00 0.  1.
         21    1    1    2  503  501 -0.23111584520E+02  0.11493296541E+03  0.44124598935E+03  0.45655421911E+03  0.00000000000E+00 0.  1.
         21    1    1    2  504  505  0.55376479947E+02 -0.40087612472E+02  0.93780415016E+02  0.11605316646E+03  0.00000000000E+00 0. -1.
         21    1    1    2  505  502 -0.60785639135E+01 -0.55695959068E+02 -0.13005761431E+02  0.57516420492E+02  0.00000000000E+00 0.  1.
         -2    1    1    2    0  504 -0.26186331513E+02 -0.19149393866E+02  0.10428675723E+04  0.10433720317E+04  0.00000000000E+00 0.  1.
<scales pt_clust_3="90.58990" pt_clust_4="14000.00000" pt_clust_5="56.87940" pt_clust_6="32.44107"></scales>
<clustering>
<clus scale="   32.441">  1  6  2 -1</clus>
<clus scale="   56.879">  2  5  1 -1</clus>
<clus scale="   90.590">  1  3  2 -1</clus>
<clus scale="   56.879">  2  3  1 -1</clus>
</clustering>
</event>
<event>
 6    0  0.4945982E+002  0.8151655E+02  0.7546771E-02  0.1324802E+00
          2   -1    0    0  504    0 -0.00000000000E+00  0.00000000000E+00  0.12893585227E+04  0.12893585227E+04  0.00000000000E+00 0.  1.
         21   -1    0    0  503  502  0.00000000000E+00 -0.00000000000E+00 -0.15382716632E+02  0.15382716632E+02  0.00000000000E+00 0.  1.
         21    1    1    2  503  501 -0.84346843639E+02 -0.53988637024E+02  0.43889528075E+03  0.45017577725E+03  0.00000000000E+00 0.  1.
         21    1    1    2  504  505  0.28260368093E+02 -0.38639223637E+02  0.13752350315E+03  0.14561714160E+03  0.00000000000E+00 0.  1.
         21    1    1    2  505  502  0.49990770119E+01  0.38306920143E+02  0.10814619908E+03  0.11483906686E+03  0.00000000000E+00 0.  1.
          2    1    1    2  501    0  0.51087398535E+02  0.54320940518E+02  0.58941082306E+03  0.59410925359E+03  0.00000000000E+00 0.  1.
<scales pt_clust_3="14000.00000" pt_clust_4="39.49730" pt_clust_5="38.63173" pt_clust_6="81.51655"></scales>
<clustering>
<clus scale="   38.632">  2  5  1 -1</clus>
<clus scale="   39.497">  2  4  1 -1</clus>
<clus scale="   81.517">  1  6  2 -1</clus>
<clus scale="   38.632">  2  3  1 -1</clus>
</clustering>
</event>
<event>
 6    0  0.4945982E+002  0.2805519E+03  0.7546771E-02  0.1095388E+00
          2   -1    0    0  503    0 -0.00000000000E+00  0.00000000000E+00  0.49979587776E+03  0.49979587776E+03  0.00000000000E+00 0.  1.
         21   -1    0    0  504  502  0.00000000000E+00 -0.00000000000E+00 -0.28801447574E+03  0.28801447574E+03  0.00000000000E+00 0. -1.
         21    1    1    2  503  502 -0.18427186378E+01  0.39296968699E+02  0.43490499061E+01  0.39579812985E+02  0.00000000000E+00 0.  1.
         21    1    1    2  504  505  0.19824901513E+03  0.84497365638E+02 -0.83791807922E+02  0.23122184990E+03  0.00000000000E+00 0. -1.
         21    1    1    2  505  501  0.44240539207E+02 -0.12840577805E+02 -0.60870027185E+02  0.76336530948E+02  0.00000000000E+00 0.  1.
          2    1    1    2  501    0 -0.24064683570E+03 -0.11095375653E+03  0.35209418723E+03  0.44067215966E+03  0.00000000000E+00 0.  1.
<scales pt_clust_3="39.34015" pt_clust_4="43.59920" pt_clust_5="43.59920" pt_clust_6="262.64065"></scales>
<clustering>
<clus scale="   39.340">  2  3  1 -1</clus>
<clus scale="   43.599">  4  5 -1 -1</clus>
<clus scale="  262.641">  1  6  2 -1</clus>
<clus scale="   39.340">  2  3  1 -1</clus>
</clustering>
</event>
<event>
 6    0  0.4945982E+002  0.9616308E+02  0.7546771E-02  0.1288578E+00
          2   -1    0    0  503    0 -0.00000000000E+00  0.00000000000E+00  0.68084117515E+03  0.68084117515E+03  0.00000000000E+00 0. -1.
         21   -1    0    0  505  502  0.00000000000E+00 -0.00000000000E+00 -0.43544810162E+03  0.43544810162E+03  0.00000000000E+00 0. -1.
         21    1    1    2  503  504  0.17165168769E+03 -0.45446425845E+02 -0.11056152029E+03  0.20917344305E+03  0.00000000000E+00 0. -1.
         21    1    1    2  504  502 -0.49018769460E+02 -0.79938640627E+01 -0.20173516618E+03  0.20775904047E+03  0.00000000000E+00 0. -1.
         21    1    1    2  505  501 -0.43277746622E+02  0.20860698695E+01 -0.60259921006E+02  0.74219762327E+02  0.00000000000E+00 0. -1.
          2    1    1    2  501    0 -0.79355171607E+02  0.51354220038E+02  0.61794968100E+03  0.62513703092E+03  0.00000000000E+00 0. -1.
<scales pt_clust_3="96.16308" pt_clust_4="73.40275" pt_clust_5="43.32799" pt_clust_6="14000.00000"></scales>
<clustering>
<clus scale="   43.328">  2  5  1 -1</clus>
<clus scale="   73.403">  2  4  1 -1</clus>
<clus scale="   96.163">  2  3  1 -1</clus>
<clus scale="   43.328">  2  3  1 -1</clus>
</clustering>
</event>
<event>
 6    0  0.4945982E+002  0.2542472E+03  0.7546771E-02  0.1110650E+00
          2   -1    0    0  505    0 -0.00000000000E+00  0.00000000000E+00  0.22235435059E+04  0.22235435059E+04  0.00000000000E+00 0. -1.
         21   -1    0    0  503  502  0.00000000000E+00 -0.00000000000E+00 -0.49424879247E+03  0.49424879247E+03  0.00000000000E+00 0.  1.
         21    1    1    2  503  501  0.12253010596E+03  0.18689180615E+03  0.15328616387E+03  0.27099598172E+03  0.00000000000E+00 0. -1.
         21    1    1    2  504  502 -0.67881783728E+02 -0.10095319947E+03 -0.18530392609E+03  0.22166873949E+03  0.00000000000E+00 0.  1.
         21    1    1    2  505  504 -0.10448613477E+03 -0.90385602128E+02 -0.21098607851E+03  0.25219443839E+03  0.00000000000E+00 0.  1.
          2    1    1    2  501    0  0.49837812534E+02  0.44469954500E+01  0.19722985541E+04  0.19729331388E+04  0.00000000000E+00 0. -1.
<scales pt_clust_3="251.91727" pt_clust_4="32.22487" pt_clust_5="32.22487" pt_clust_6="50.03582"></scales>
<clustering>
<clus scale="   32.225">  4  5 -1 -1</clus>
<clus scale="   50.036">  1  6  2 -1</clus>
<clus scale="  251.917">  1  3  2 -1</clus>
<clus scale="  254.247">  2  3  1 -1</clus>
</clustering>
</event>
<event>
 6    0  0.4945982E+002  0.1118994E+03  0.7546771E-02  0.1257092E+00
         21   -1    0    0  505  502  0.00000000000E+00  0.00000000000E+00  0.19486704636E+02  0.19486704636E+02  0.00000000000E+00 0. -1.
          1   -1    0    0  503    0 -0.00000000000E+00 -0.00000000000E+00 -0.22371248219E+04  0.22371248219E+04  0.00000000000E+00 0. -1.
         21    1    1    2  503  504 -0.73628766681E+01 -0.47490378254E+02 -0.10176959532E+03  0.11254598398E+03  0.00000000000E+00 0. -1.
         21    1    1    2  504  502  0.52348342164E+02 -0.73536858030E+02 -0.17081921750E+03  0.19320254523E+03  0.00000000000E+00 0. -1.
         21    1    1    2  505  501 -0.11719231507E+02  0.29121165740E+02 -0.15497277619E+03  0.15812003049E+03  0.00000000000E+00 0. -1.
          1    1    1    2  501    0 -0.33266233990E+02  0.91906070544E+02 -0.17900765283E+04  0.17927429668E+04  0.00000000000E+00 0. -1.
<scales pt_clust_3="37.59348" pt_clust_4="37.59348" pt_clust_5="31.39081" pt_clust_6="100.07624"></scales>
<clustering>
<clus scale="   31.391">  1  5  2 -1</clus>
<clus scale="   37.593">  3  4 -1 -1</clus>
<clus scale="  100.076">  2  6  1 -1</clus>
<clus scale="   31.391">  1  3  2 -1</clus>
</clustering>
</event>
<event>
 6    0  0.4945982E+002  0.9316854E+02  0.7546771E-02  0.1295355E+00
          2   -1    0    0  502    0 -0.00000000000E+00  0.00000000000E+00  0.38639323381E+04  0.38639323381E+04  0.00000000000E+00 0. -1.
         21   -1    0    0  504  502  0.00000000000E+00 -0.00000000000E+00 -0.85817065899E+02  0.85817065899E+02  0.00000000000E+00 0.  1.
         21    1    1    2  503  505 -0.52908621934E+02 -0.31245285689E+02  0.31927383787E+02  0.69245562950E+02  0.00000000000E+00 0. -1.
         21    1    1    2  504  503  0.67843568091E+02  0.20053738197E+02 -0.34496017130E+02  0.78707543125E+02  0.00000000000E+00 0.  1.
         21    1    1    2  505  501 -0.66192966846E+02 -0.56118384288E+01  0.96145137687E+02  0.11686269333E+03  0.00000000000E+00 0. -1.
          2    1    1    2  501    0  0.51258020688E+02  0.16803385921E+02  0.36845387679E+04  0.36849336046E+04  0.00000000000E+00 0. -1.
<scales pt_clust_3="49.88213" pt_clust_4="77.39703" pt_clust_5="49.88213" pt_clust_6="53.94199"></scales>
<clustering>
<clus scale="   49.882">  3  5 -1 -1</clus>
<clus scale="   53.942">  1  6  2 -1</clus>
<clus scale="   77.397">  2  4  1 -1</clus>
<clus scale="   77.397">  2  3  1 -1</clus>
</clustering>
</event>
<event>
 6    0  0.4945982E+002  0.1225011E+03  0.7546771E-02  0.1239027E+00
         -1   -1    0    0    0  501 -0.00000000000E+00  0.00000000000E+00  0.11029524570E+04  0.11029524570E+04  0.00000000000E+00 0. -1.
         21   -1    0    0  504  502  0.00000000000E+00 -0.00000000000E+00 -0.35899249285E+03  0.35899249285E+03  0.00000000000E+00 0. -1.
         21    1    1    2  503  502  0.32935529235E+02 -0.43757115867E+02 -0.95990839885E+02  0.11051549944E+03  0.00000000000E+00 0. -1.
         21    1    1    2  504  505 -0.45361657900E+02  0.36878513304E+02 -0.11516177242E+03  0.12915083654E+03  0.00000000000E+00 0. -1.
         21    1    1    2  505  501 -0.89054896648E+02 -0.62404206115E+02 -0.10730880839E+03  0.15277512859E+03  0.00000000000E+00 0. -1.
         -1    1    1    2    0  503  0.10148102531E+03  0.69282808678E+02  0.10624213849E+04  0.10695034853E+04  0.00000000000E+00 0. -1.
<scales pt_clust_3="54.76709" pt_clust_4="33.66303" pt_clust_5="122.50113" pt_clust_6="14000.00000"></scales>
<clustering>
<clus scale="   54.767">  2  3  1 -1</clus>
<clus scale="   33.663">  2  4  1 -1</clus>
<clus scale="  122.501">  2  5  1 -1</clus>
<clus scale="   54.767">  2  3  1 -1</clus>
</clustering>
</event>
<event>
 6    0  0.4945982E+002  0.7917262E+02  0.7546771E-02  0.1331416E+00
         21   -1    0    0  503  502  0.00000000000E+00  0.00000000000E+00  0.59051969179E+02  0.59051969179E+02  0.00000000000E+00 0. -1.
          2   -1    0    0  504    0 -0.00000000000E+00 -0.00000000000E+00 -0.32592692591E+04  0.32592692591E+04  0.00000000000E+00 0. -1.
         21    1    1    2  503  501  0.52068957247E+02 -0.73458569968E+02 -0.47704544552E+02  0.10189730802E+03  0.00000000000E+00 0.  1.
         21    1    1    2  504  505 -0.34093863046E+02  0.29372941725E+02 -0.23162510724E+03  0.23595624914E+03  0.00000000000E+00 0. -1.
         21    1    1    2  505  502  0.35294981973E+02 -0.14215562656E+02  0.16888829844E+02  0.41629923704E+02  0.00000000000E+00 0. -1.
          2    1    1    2  501    0 -0.53270076174E+02  0.58301190899E+02 -0.29377764680E+04  0.29388377474E+04  0.00000000000E+00 0. -1.
<scales pt_clust_3="79.17262" pt_clust_4="42.39305" pt_clust_5="38.05020" pt_clust_6="14000.00000"></scales>
<clustering>
<clus scale="   38.050">  1  5  2 -1</clus>
<clus scale="   42.393">  1  4  2 -1</clus>
<clus scale="   79.173">  1  3  2 -1</clus>
<clus scale="   38.050">  1  3  2 -1</clus>
</clustering>
</event>
<event>
 6    0  0.4945982E+002  0.9531195E+02  0.7546771E-02  0.1290475E+00
         21   -1    0    0  505  502  0.00000000000E+00  0.00000000000E+00  0.90676711062E+02  0.90676711062E+02  0.00000000000E+00 0.  1.
          2   -1    0    0  503    0 -0.00000000000E+00 -0.00000000000E+00 -0.12805920508E+04  0.12805920508E+04  0.00000000000E+00 0.  1.
         21    1    1    2  503  504 -0.81969071444E+02 -0.78870065447E+02 -0.64040824092E+03  0.65043226468E+03  0.00000000000E+00 0. -1.
         21    1    1    2  504  502  0.83913665530E+02 -0.60466311900E+01 -0.63312147691E+02  0.10529241690E+03  0.00000000000E+00 0.  1.
         21    1    1    2  505  501  0.10122781654E+02  0.38418497252E+02  0.57412226664E+02  0.69818446059E+02  0.00000000000E+00 0.  1.
          2    1    1    2  501    0 -0.12067375741E+02  0.46498199385E+02 -0.54360717780E+03  0.54572563424E+03  0.00000000000E+00 0.  1.
<scales pt_clust_3="14000.00000" pt_clust_4="95.31195" pt_clust_5="39.72973" pt_clust_6="49.40045"></scales>
<clustering>
<clus scale="   39.730">  1  5  2 -1</clus>
<clus scale="   49.400">  2  6  1 -1</clus>
<clus scale="   95.312">  1  4  2 -1</clus>
<clus scale="   39.730">  1  3  2 -1</clus>
</clustering>
</event>
<event>
 6    0  0.4945982E+002  0.1629066E+03  0.7546771E-02  0.1185454E+00
         21   -1    0    0  504  502  0.00000000000E+00  0.00000000000E+00  0.42459244701E+02  0.42459244701E+02  0.00000000000E+00 0.  1.
          2   -1    0    0  503    0 -0.00000000000E+00 -0.00000000000E+00 -0.37858649576E+04  0.37858649576E+04  0.00000000000E+00 0.  1.
         21    1    1    2  503  502  0.40573193957E+02  0.21061452595E+02 -0.18648091221E+03  0.19200234236E+03  0.00000000000E+00 0. -1.
         21    1    1    2  504  505  0.51989054235E+02  0.78205441301E+01 -0.25265133368E+01  0.52634645818E+02  0.00000000000E+00 0.  1.
         21    1    1    2  505  501  0.83175032201E+02 -0.48325404999E+02 -0.17523807424E+03  0.19990451074E+03  0.00000000000E+00 0. -1.
          2    1    1    2  501    0 -0.17573728039E+03  0.19443408274E+02 -0.33791602131E+04  0.33837827034E+04  0.00000000000E+00 0.  1.
<scales pt_clust_3="45.71399" pt_clust_4="80.41608" pt_clust_5="14000.00000" pt_clust_6="162.90658"></scales>
<clustering>
<clus scale="   45.714">  1  3  2 -1</clus>
<clus scale="   80.416">  1  4  2 -1</clus>
<clus scale="  162.907">  2  6  1 -1</clus>
<clus scale="   45.714">  1  3  2 -1</clus>
</clustering>
</event>
<event>
 6    0  0.4945982E+002  0.1201820E+03  0.7546771E-02  0.1242797E+00
          2   -1    0    0  503    0 -0.00000000000E+00  0.00000000000E+00  0.46495992028E+03  0.46495992028E+03  0.00000000000E+00 0.  1.
         21   -1    0    0  505  502  0.00000000000E+00 -0.00000000000E+00 -0.21311881187E+03  0.21311881187E+03  0.00000000000E+00 0. -1.
         21    1    1    2  503  504  0.66078498060E+02 -0.80890669821E+02 -0.50534314382E+01  0.10457153312E+03  0.00000000000E+00 0. -1.
         21    1    1    2  504  502 -0.31488813182E+02 -0.94377121059E+02 -0.10236707725E+03  0.14275014830E+03  0.00000000000E+00 0. -1.
         21    1    1    2  505  501  0.17967699861E+02  0.63120772430E+02  0.18499772596E+02  0.68185861706E+02  0.00000000000E+00 0.  1.
          2    1    1    2  501    0 -0.52557384739E+02  0.11214701845E+03  0.34076184451E+03  0.36257118903E+03  0.00000000000E+00 0.  1.
<scales pt_clust_3="14000.00000" pt_clust_4="56.84552" pt_clust_5="65.62827" pt_clust_6="120.18197"></scales>
<clustering>
<clus scale="   65.628">  2  5  1 -1</clus>
<clus scale="   56.846">  2  4  1 -1</clus>
<clus scale="  120.182">  1  6  2 -1</clus>
<clus scale="   65.628">  2  3  1 -1</clus>
</clustering>
</event>
<event>
 6    0  0.4945982E+002  0.7090616E+02  0.7546771E-02  0.1357038E+00
         21   -1    0    0  505  502  0.00000000000E+00  0.00000000000E+00  0.27566203011E+04  0.27566203011E+04  0.00000000000E+00 0.  1.
         -1   -1    0    0    0  501 -0.00000000000E+00 -0.00000000000E+00 -0.43885760826E+02  0.43885760826E+02  0.00000000000E+00 0. -1.
         21    1    1    2  503  501 -0.12651464677E+02  0.36112206531E+02  0.11732191501E+03  0.12340414401E+03  0.00000000000E+00 0.  1.
         21    1    1    2  504  502 -0.11193352474E+02  0.58164419916E+02  0.16817091976E+04  0.16827519770E+04  0.00000000000E+00 0.  1.
         21    1    1    2  505  503 -0.59410878081E+02 -0.36946517532E+02  0.88705677139E+03  0.88981144815E+03  0.00000000000E+00 0.  1.
         -1    1    1    2    0  504  0.83255695232E+02 -0.57330108914E+02  0.26646656301E+02  0.10453849276E+03  0.00000000000E+00 0. -1.
<scales pt_clust_3="38.26423" pt_clust_4="59.71491" pt_clust_5="70.90616" pt_clust_6="14000.00000"></scales>
<clustering>
<clus scale="   38.264">  2  3  1 -1</clus>
<clus scale="   59.715">  1  4  2 -1</clus>
<clus scale="   70.906">  1  5  2 -1</clus>
<clus scale="   59.715">  1  3  2 -1</clus>
</clustering>
</event>
<event>
 6    0  0.4945982E+002  0.7883377E+02  0.7546771E-02  0.1332394E+00
         -4   -1    0    0    0  501 -0.00000000000E+00  0.00000000000E+00  0.15729967532E+03  0.15729967532E+03  0.00000000000E+00 0.  1.
         21   -1    0    0  503  502  0.00000000000E+00 -0.00000000000E+00 -0.20943488399E+03  0.20943488399E+03  0.00000000000E+00 0.  1.
         21    1    1    2  503  504 -0.38644822937E+02  0.19449001323E+02 -0.35976490049E+02  0.56267164746E+02  0.00000000000E+00 0.  1.
         21    1    1    2  504  501  0.99634449274E+02  0.38769202649E+02 -0.54653006261E+02  0.12007091925E+03  0.00000000000E+00 0.  1.
         21    1    1    2  505  502  0.12395924583E+02 -0.43710269144E+02 -0.54561166237E+02  0.71001179118E+02  0.00000000000E+00 0.  1.
         -4    1    1    2    0  505 -0.73385550920E+02 -0.14507934827E+02  0.93055453880E+02  0.11939529620E+03  0.00000000000E+00 0.  1.
<scales pt_clust_3="43.26299" pt_clust_4="78.83377" pt_clust_5="36.31705" pt_clust_6="14000.00000"></scales>
<clustering>
<clus scale="   43.263">  2  3  1 -1</clus>
<clus scale="   36.317">  2  5  1 -1</clus>
<clus scale="   78.834">  2  4  1 -1</clus>
<clus scale="   43.263">  2  3  1 -1</clus>
</clustering>
</event>
<event>
 6    0  0.4945982E+002  0.7556918E+02  0.7546771E-02  0.1342117E+00
         21   -1    0    0  504  502  0.00000000000E+00  0.00000000000E+00  0.49409361224E+03  0.49409361224E+03  0.00000000000E+00 0.  1.
          2   -1    0    0  505    0 -0.00000000000E+00 -0.00000000000E+00 -0.25424420500E+04  0.25424420500E+04  0.00000000000E+00 0. -1.
         21    1    1    2  503  501  0.55557541236E+02  0.16373231656E+02 -0.25178865932E+03  0.25836457200E+03  0.00000000000E+00 0.  1.
         21    1    1    2  504  503 -0.63628728064E+02 -0.41194370022E+02  0.48600384808E+03  0.49187938715E+03  0.00000000000E+00 0.  1.
         21    1    1    2  505  502 -0.44030833764E+02  0.46449802318E+02 -0.76241149193E+03  0.76509318484E+03  0.00000000000E+00 0.  1.
          2    1    1    2  501    0  0.52102020592E+02 -0.21628663952E+02 -0.15201521346E+04  0.15211985183E+04  0.00000000000E+00 0. -1.
<scales pt_clust_3="75.56918" pt_clust_4="14000.00000" pt_clust_5="30.70681" pt_clust_6="56.41294"></scales>
<clustering>
<clus scale="   56.413">  2  6  1 -1</clus>
<clus scale="   30.707">  2  5  1 -1</clus>
<clus scale="   75.569">  2  3  1 -1</clus>
<clus scale="   75.569">  1  3  2 -1</clus>
</clustering>
</event>
<event>
 6    0  0.4945982E+002  0.7713065E+02  0.7546771E-02  0.1337397E+00
         21   -1    0    0  505  502  0.00000000000E+00  0.00000000000E+00  0.23317841598E+04  0.23317841598E+04  0.00000000000E+00 0.  1.
          2   -1    0    0  504    0 -0.00000000000E+00 -0.00000000000E+00 -0.16603014824E+03  0.16603014824E+03  0.00000000000E+00 0.  1.
         21    1    1    2  503  501  0.49071154995E+02  0.61660077285E+02  0.52951986545E+03  0.53535150256E+03  0.00000000000E+00 0.  1.
         21    1    1    2  504  502  0.66989257208E+01 -0.74478785324E+02  0.10694862184E+04  0.10720973540E+04  0.00000000000E+00 0.  1.
         21    1    1    2  505  503 -0.58638668903E+02 -0.31396048814E+02  0.72397012231E+03  0.72701921802E+03  0.00000000000E+00 0.  1.
          2    1    1    2  501    0  0.28685881866E+01  0.44214756852E+02 -0.15722219459E+03  0.16334623349E+03  0.00000000000E+00 0.  1.
<scales pt_clust_3="77.13065" pt_clust_4="14000.00000" pt_clust_5="61.12702" pt_clust_6="44.30771"></scales>
<clustering>
<clus scale="   44.308">  2  6  1 -1</clus>
<clus scale="   61.127">  1  5  2 -1</clus>
<clus scale="   77.131">  2  3  1 -1</clus>
<clus scale="   61.127">  1  3  2 -1</clus>
</clustering>
</event>
<event>
 6    0  0.4945982E+002  0.1241909E+03  0.7546771E-02  0.1236339E+00
          2   -1    0    0  503    0 -0.00000000000E+00  0.00000000000E+00  0.17929743472E+04  0.17929743472E+04  0.00000000000E+00 0. -1.
         21   -1    0    0  505  502  0.00000000000E+00 -0.00000000000E+00 -0.48177728869E+02  0.48177728869E+02  0.00000000000E+00 0. -1.
         21    1    1    2  503  502  0.10524618852E+03 -0.66459176096E+02  0.16331568805E+03  0.20534263135E+03  0.00000000000E+00 0. -1.
         21    1    1    2  504  501 -0.11239950592E+03  0.88679897066E+02  0.47551383383E+03  0.49659961663E+03  0.00000000000E+00 0. -1.
         21    1    1    2  505  504  0.24070996967E+02  0.88117535493E+02  0.14227916119E+03  0.16907830336E+03  0.00000000000E+00 0. -1.
          2    1    1    2  501    0 -0.16917679567E+02 -0.11033825646E+03  0.96368793530E+03  0.97013152478E+03  0.00000000000E+00 0. -1.
<scales pt_clust_3="124.19091" pt_clust_4="14000.00000" pt_clust_5="91.34612" pt_clust_6="103.22548"></scales>
<clustering>
<clus scale="   91.346">  2  5  1 -1</clus>
<clus scale="  103.225">  1  6  2 -1</clus>
<clus scale="  124.191">  2  3  1 -1</clus>
<clus scale="   91.346">  2  3  1 -1</clus>
</clustering>
</event>
<event>
 6    0  0.4945982E+002  0.7217541E+02  0.7546771E-02  0.1352848E+00
         21   -1    0    0  505  502  0.00000000000E+00  0.00000000000E+00  0.11703216508E+03  0.11703216508E+03  0.00000000000E+00 0.  1.
         -2   -1    0    0    0  501 -0.00000000000E+00 -0.00000000000E+00 -0.28801894517E+03  0.28801894517E+03  0.00000000000E+00 0.  1.
         21    1    1    2  503  502 -0.17850664036E+02  0.81087558025E+02 -0.82676934354E+02  0.11717215432E+03  0.00000000000E+00 0.  1.
         21    1    1    2  504  501 -0.53923099276E+02  0.56699513348E+01 -0.28759012388E+02  0.61375318958E+02  0.00000000000E+00 0.  1.
         21    1    1    2  505  504  0.53437540720E+02 -0.48999566181E+02  0.63569946989E+02  0.96424407721E+02  0.00000000000E+00 0.  1.
         -2    1    1    2    0  503  0.18336222591E+02 -0.37757943179E+02 -0.12312078033E+03  0.13007922925E+03  0.00000000000E+00 0.  1.
<scales pt_clust_3="14000.00000" pt_clust_4="49.04630" pt_clust_5="72.17541" pt_clust_6="41.97475"></scales>
<clustering>
<clus scale="   41.975">  2  6  1 -1</clus>
<clus scale="   49.046">  2  4  1 -1</clus>
<clus scale="   72.175">  1  5  2 -1</clus>
<clus scale="   72.175">  1  3  2 -1</clus>
</clustering>
</event>
<event>
 6    0  0.4945982E+002  0.8873540E+02  0.7546771E-02  0.1305943E+00
          2   -1    0    0  505    0 -0.00000000000E+00  0.00000000000E+00  0.88685670941E+03  0.88685670941E+03  0.00000000000E+00 0.  1.
         21   -1    0    0  504  502  0.00000000000E+00 -0.00000000000E+00 -0.21184157717E+03  0.21184157717E+03  0.00000000000E+00 0.  1.
         21    1    1    2  503  501 -0.46587853165E+02 -0.54636509427E+02 -0.12358334088E+03  0.14292801813E+03  0.00000000000E+00 0.  1.
         21    1    1    2  504  503  0.36909319315E+02 -0.36476543197E+02 -0.46038954992E+02  0.69371618352E+02  0.00000000000E+00 0.  1.
         21    1    1    2  505  502  0.47692762124E+02  0.90305006577E+02  0.10748176527E+03  0.14826302181E+03  0.00000000000E+00 0.  1.
          2    1    1    2  501    0 -0.38014228274E+02  0.80804604736E+00  0.73715566284E+03  0.73813562829E+03  0.00000000000E+00 0.  1.
<scales pt_clust_3="14000.00000" pt_clust_4="49.77610" pt_clust_5="88.73540" pt_clust_6="38.02282"></scales>
<clustering>
<clus scale="   38.023">  1  6  2 -1</clus>
<clus scale="   49.776">  2  4  1 -1</clus>
<clus scale="   88.735">  1  5  2 -1</clus>
<clus scale="   49.776">  2  3  1 -1</clus>
</clustering>
</event>
<event>
 6    0  0.4945982E+002  0.1550582E+03  0.7546771E-02  0.1194392E+00
         21   -1    0    0  505  502  0.00000000000E+00  0.00000000000E+00  0.10477939941E+03  0.10477939941E+03  0.00000000000E+00 0.  1.
          2   -1    0    0  503    0 -0.00000000000E+00 -0.00000000000E+00 -0.11080540498E+04  0.11080540498E+04  0.00000000000E+00 0.  1.
         21    1    1    2  503  504 -0.10515628348E+03 -0.10073330569E+03 -0.33708557407E+03  0.36719439957E+03  0.00000000000E+00 0.  1.
         21    1    1    2  504  502 -0.33989254451E+02  0.17462153412E+02  0.27521282920E+02  0.47091583468E+02  0.00000000000E+00 0.  1.
         21    1    1    2  505  501  0.82856538593E+02 -0.75650177429E+02 -0.33413905373E+02  0.11706683734E+03  0.00000000000E+00 0.  1.
          2    1    1    2  501    0  0.56288999337E+02  0.15892132970E+03 -0.66029645386E+03  0.68148062882E+03  0.00000000000E+00 0.  1.
<scales pt_clust_3="155.05818" pt_clust_4="38.21251" pt_clust_5="89.55399" pt_clust_6="14000.00000"></scales>
<clustering>
<clus scale="   38.213">  1  4  2 -1</clus>
<clus scale="   89.554">  1  5  2 -1</clus>
<clus scale="  155.058">  1  3  2 -1</clus>
<clus scale="   38.213">  1  3  2 -1</clus>
</clustering>
</event>
<event>
 6    0  0.4945982E+002  0.9222101E+02  0.7546771E-02  0.1297561E+00
          2   -1    0    0  504    0 -0.00000000000E+00  0.00000000000E+00  0.32329405767E+04  0.32329405767E+04  0.00000000000E+00 0. -1.
         21   -1    0    0  503  502  0.00000000000E+00 -0.00000000000E+00 -0.34571542594E+02  0.34571542594E+02  0.00000000000E+00 0.  1.
         21    1    1    2  503  505 -0.39434932612E+02  0.31333048268E+01  0.37390341326E+02  0.54433162077E+02  0.00000000000E+00 0.  1.
         21    1    1    2  504  502  0.72059700586E+02 -0.20323927824E+02  0.89293623520E+02  0.11652902511E+03  0.00000000000E+00 0.  1.
         21    1    1    2  505  501 -0.72074575223E+02 -0.50168692935E+02  0.14994683951E+03  0.17376909053E+03  0.00000000000E+00 0.  1.
          2    1    1    2  501    0  0.39449807249E+02  0.67359315932E+02  0.29217382297E+04  0.29227808415E+04  0.00000000000E+00 0. -1.
<scales pt_clust_3="32.42800" pt_clust_4="74.87097" pt_clust_5="32.42800" pt_clust_6="78.55166"></scales>
<clustering>
<clus scale="   32.428">  3  5 -1 -1</clus>
<clus scale="   74.871">  2  4  1 -1</clus>
<clus scale="   78.552">  1  6  2 -1</clus>
<clus scale="   74.871">  2  3  1 -1</clus>
</clustering>
</event>
<event>
 6    0  0.4945982E+002  0.1085542E+03  0.7546771E-02  0.1263271E+00
         21   -1    0    0  504  502  0.00000000000E+00  0.00000000000E+00  0.66723920312E+03  0.66723920312E+03  0.00000000000E+00 0. -1.
          2   -1    0    0  503    0 -0.00000000000E+00 -0.00000000000E+00 -0.15314733793E+04  0.15314733793E+04  0.00000000000E+00 0. -1.
         21    1    1    2  503  505 -0.89075961212E+02  0.22785555831E+02 -0.66320108572E+02  0.11336694942E+03  0.00000000000E+00 0. -1.
         21    1    1    2  504  501  0.13106426519E+03  0.63523499618E+02  0.10760786766E+03  0.18108707794E+03  0.00000000000E+00 0. -1.
         21    1    1    2  505  502 -0.26904311185E+02  0.21584073124E+02  0.49665728040E+03  0.49785356115E+03  0.00000000000E+00 0. -1.
          2    1    1    2  501    0 -0.15083992796E+02 -0.10789312857E+03 -0.14021792157E+04  0.14064049939E+04  0.00000000000E+00 0. -1.
<scales pt_clust_3="96.31149" pt_clust_4="108.55421" pt_clust_5="34.49223" pt_clust_6="14000.00000"></scales>
<clustering>
<clus scale="   34.492">  1  5  2 -1</clus>
<clus scale="   96.311">  1  3  2 -1</clus>
<clus scale="  108.554">  1  4  2 -1</clus>
<clus scale="   34.492">  1  3  2 -1</clus>
</clustering>
</event>
<event>
 6    0  0.4945982E+002  0.1778889E+03  0.7546771E-02  0.1169862E+00
          2   -1    0    0  504    0 -0.00000000000E+00  0.00000000000E+00  0.92304882908E+03  0.92304882908E+03  0.00000000000E+00 0. -1.
         21   -1    0    0  505  502  0.00000000000E+00 -0.00000000000E+00 -0.12812031620E+03  0.12812031620E+03  0.00000000000E+00 0.  1.
         21    1    1    2  503  502  0.48812291192E+01  0.36688120370E+02  0.29229094666E+02  0.47161261105E+02  0.00000000000E+00 0. -1.
         21    1    1    2  504  503  0.13466397444E+03  0.11158830817E+03  0.58975141215E+03  0.61513662277E+03  0.00000000000E+00 0. -1.
         21    1    1    2  505  501  0.25047668332E+02 -0.57458051671E+02 -0.60287165830E+02  0.86967555758E+02  0.00000000000E+00 0.  1.
          2    1    1    2  501    0 -0.16459287189E+03 -0.90818376867E+02  0.23623517189E+03  0.30190370566E+03  0.00000000000E+00 0. -1.
<scales pt_clust_3="37.01141" pt_clust_4="177.88886" pt_clust_5="44.69648" pt_clust_6="14000.00000"></scales>
<clustering>
<clus scale="   37.011">  2  3  1 -1</clus>
<clus scale="   44.696">  2  5  1 -1</clus>
<clus scale="  177.889">  1  4  2 -1</clus>
<clus scale="   37.011">  2  3  1 -1</clus>
</clustering>
</event>
<event>
 6    0  0.4945982E+002  0.6501785E+02  0.7546771E-02  0.1377904E+00
          1   -1    0    0  505    0 -0.00000000000E+00  0.00000000000E+00  0.10466964166E+04  0.10466964166E+04  0.00000000000E+00 0. -1.
         21   -1    0    0  501  502  0.00000000000E+00 -0.00000000000E+00 -0.21122075079E+03  0.21122075079E+03  0.00000000000E+00 0.  1.
         21    1    1    2  503  502 -0.12300000574E+02 -0.49319745532E+02 -0.13530366941E+03  0.14453653610E+03  0.00000000000E+00 0.  1.
         21    1    1    2  504  503  0.55710549623E+02  0.66027702770E+02 -0.67174323586E+01  0.86651294104E+02  0.00000000000E+00 0. -1.
         21    1    1    2  505  504 -0.90564633357E+02 -0.58507181235E+02  0.10025741341E+03  0.14722972531E+03  0.00000000000E+00 0. -1.
          1    1    1    2  501    0  0.47154084308E+02  0.41799223997E+02  0.87723935414E+03  0.87949961185E+03  0.00000000000E+00 0. -1.
<scales pt_clust_3="50.83038" pt_clust_4="58.38900" pt_clust_5="14000.00000" pt_clust_6="65.01785"></scales>
<clustering>
<clus scale="   50.830">  2  3  1 -1</clus>
<clus scale="   58.389">  2  4  1 -1</clus>
<clus scale="   65.018">  1  6  2 -1</clus>
<clus scale="   50.830">  2  3  1 -1</clus>
</clustering>
</event>
<event>
 6    0  0.4945982E+002  0.2246755E+03  0.7546771E-02  0.1130444E+00
         21   -1    0    0  504  502  0.00000000000E+00  0.00000000000E+00  0.15068172653E+03  0.15068172653E+03  0.00000000000E+00 0. -1.
          2   -1    0    0  503    0 -0.00000000000E+00 -0.00000000000E+00 -0.26681448311E+04  0.26681448311E+04  0.00000000000E+00 0.  1.
         21    1    1    2  503  505  0.10820289354E+03 -0.22334655651E+03 -0.12273417097E+03  0.27686680407E+03  0.00000000000E+00 0. -1.
         21    1    1    2  504  501 -0.97205690088E+02  0.15905213224E+03 -0.10625000755E+04  0.10787274621E+04  0.00000000000E+00 0. -1.
         21    1    1    2  505  502  0.29228188199E+02  0.39423644672E+02  0.55849588903E+02  0.74348418445E+02  0.00000000000E+00 0. -1.
          2    1    1    2  501    0 -0.40225391653E+02  0.24870779592E+02 -0.13880784470E+04  0.13888838730E+04  0.00000000000E+00 0.  1.
<scales pt_clust_3="14000.00000" pt_clust_4="224.67552" pt_clust_5="49.04901" pt_clust_6="47.29311"></scales>
<clustering>
<clus scale="   47.293">  2  6  1 -1</clus>
<clus scale="   49.049">  1  5  2 -1</clus>
<clus scale="  224.676">  2  4  1 -1</clus>
<clus scale="   49.049">  1  3  2 -1</clus>
</clustering>
</event>
<event>
 6    0  0.4945982E+002  0.1495510E+03  0.7546771E-02  0.1201026E+00
          2   -1    0    0  503    0 -0.00000000000E+00  0.00000000000E+00  0.11105661253E+04  0.11105661253E+04  0.00000000000E+00 0.  1.
         21   -1    0    0  504  502  0.00000000000E+00 -0.00000000000E+00 -0.62691948157E+02  0.62691948157E+02  0.00000000000E+00 0. -1.
         21    1    1    2  503  505 -0.53943199257E+02  0.67876318145E+02  0.48992821023E+02  0.99585941894E+02  0.00000000000E+00 0. -1.
         21    1    1    2  504  501  0.63480736013E+02  0.70039062461E+02  0.13642261692E+03  0.16597109544E+03  0.00000000000E+00 0. -1.
         21    1    1    2  505  502 -0.53883689725E+02 -0.61463011335E+01  0.26685760710E+02  0.60443021604E+02  0.00000000000E+00 0. -1.
          2    1    1    2  501    0  0.44346152969E+02 -0.13176907947E+03  0.83577297853E+03  0.84725801455E+03  0.00000000000E+00 0.  1.
<scales pt_clust_3="52.72854" pt_clust_4="94.52658" pt_clust_5="52.72854" pt_clust_6="133.86826"></scales>
<clustering>
<clus scale="   52.729">  3  5 -1 -1</clus>
<clus scale="   94.527">  2  4  1 -1</clus>
<clus scale="  133.868">  1  6  2 -1</clus>
<clus scale="   94.527">  2  3  1 -1</clus>
</clustering>
</event>
<event>
 6    0  0.4945982E+002  0.1005934E+03  0.7546771E-02  0.1279053E+00
          1   -1    0    0  503    0 -0.00000000000E+00  0.00000000000E+00  0.12235084429E+04  0.12235084429E+04  0.00000000000E+00 0. -1.
         21   -1    0    0  505  502  0.00000000000E+00 -0.00000000000E+00 -0.68949374105E+02  0.68949374105E+02  0.00000000000E+00 0.  1.
         21    1    1    2  503  504 -0.46715434839E+02  0.38333530631E+02  0.13845704980E+03  0.15107000385E+03  0.00000000000E+00 0.  1.
         21    1    1    2  504  502 -0.10818554253E+03  0.17541896320E+02  0.51078218147E+02  0.12091655845E+03  0.00000000000E+00 0.  1.
         21    1    1    2  505  501  0.85179356460E+02 -0.38917327908E+02  0.57031050334E+02  0.10964771717E+03  0.00000000000E+00 0.  1.
          1    1    1    2  501    0  0.69721620907E+02 -0.16958099043E+02  0.90799275049E+03  0.91082353751E+03  0.00000000000E+00 0. -1.
<scales pt_clust_3="60.43005" pt_clust_4="14000.00000" pt_clust_5="100.59337" pt_clust_6="34.00508"></scales>
<clustering>
<clus scale="   60.430">  1  3  2 -1</clus>
<clus scale="   34.005">  1  6  2 -1</clus>
<clus scale="  100.593">  2  5  1 -1</clus>
<clus scale="  100.593">  2  3  1 -1</clus>
</clustering>
</event>
<event>
 6    0  0.4945982E+002  0.1052382E+03  0.7546771E-02  0.1269651E+00
          2   -1    0    0  505    0 -0.00000000000E+00  0.00000000000E+00  0.47295744425E+03  0.47295744425E+03  0.00000000000E+00 0.  1.
         21   -1    0    0  503  502  0.00000000000E+00 -0.00000000000E+00 -0.16732380702E+03  0.16732380702E+03  0.00000000000E+00 0.  1.
         21    1    1    2  503  504  0.84666727837E+02  0.50801709719E+02 -0.59830421943E+02  0.11545106280E+03  0.00000000000E+00 0.  1.
         21    1    1    2  504  501 -0.69326588116E+02 -0.12573455041E+03  0.53570045732E+02  0.15324850011E+03  0.00000000000E+00 0.  1.
         21    1    1    2  505  502  0.16049503985E+02  0.73281251933E+02  0.19511024828E+02  0.77513924897E+02  0.00000000000E+00 0.  1.
          2    1    1    2  501    0 -0.31389643706E+02  0.16515887556E+01  0.29238298861E+03  0.29406776346E+03  0.00000000000E+00 0.  1.
<scales pt_clust_3="14000.00000" pt_clust_4="105.23825" pt_clust_5="74.11536" pt_clust_6="31.43306"></scales>
<clustering>
<clus scale="   31.433">  1  6  2 -1</clus>
<clus scale="   74.115">  1  5  2 -1</clus>
<clus scale="  105.238">  1  4  2 -1</clus>
<clus scale="  105.238">  2  3  1 -1</clus>
</clustering>
</event>
<event>
 6    0  0.4945982E+002  0.9751931E+02  0.7546771E-02  0.1285601E+00
          1   -1    0    0  503    0 -0.00000000000E+00  0.00000000000E+00  0.42290725317E+03  0.42290725317E+03  0.00000000000E+00 0. -1.
         21   -1    0    0  505  502  0.00000000000E+00 -0.00000000000E+00 -0.55347197508E+02  0.55347197508E+02  0.00000000000E+00 0.  1.
         21    1    1    2  503  502 -0.22847831939E+02  0.38291135199E+02  0.27886838496E+02  0.52591921628E+02  0.00000000000E+00 0.  1.
         21    1    1    2  504  501  0.46164902825E+01 -0.60285623527E+02  0.47853079819E+02  0.77107623714E+02  0.00000000000E+00 0.  1.
         21    1    1    2  505  504 -0.17435188802E+02 -0.58262806210E+02  0.21790093223E+02  0.64601459416E+02  0.00000000000E+00 0.  1.
          1    1    1    2  501    0  0.35666530458E+02  0.80257294537E+02  0.27003004412E+03  0.28395344592E+03  0.00000000000E+00 0. -1.
<scales pt_clust_3="44.58962" pt_clust_4="31.73884" pt_clust_5="31.73884" pt_clust_6="92.17793"></scales>
<clustering>
<clus scale="   31.739">  4  5 -1 -1</clus>
<clus scale="   44.590">  2  3  1 -1</clus>
<clus scale="   92.178">  1  6  2 -1</clus>
<clus scale="   44.590">  2  3  1 -1</clus>
</clustering>
</event>
<event>
 6    0  0.4945982E+002  0.7867818E+02  0.7546771E-02  0.1332845E+00
         21   -1    0    0  503  502  0.00000000000E+00  0.00000000000E+00  0.14562552136E+03  0.14562552136E+03  0.00000000000E+00 0. -1.
         -1   -1    0    0    0  501 -0.00000000000E+00 -0.00000000000E+00 -0.13464545957E+04  0.13464545957E+04  0.00000000000E+00 0. -1.
         21    1    1    2  503  505 -0.22781450783E+02  0.20293043399E+02  0.30839829880E+02  0.43380839287E+02  0.00000000000E+00 0. -1.
         21    1    1    2  504  502 -0.71669068472E+01 -0.82644104786E+02  0.59190045468E+02  0.10190620242E+03  0.00000000000E+00 0. -1.
         21    1    1    2  505  501  0.35209888964E+02  0.10698553072E+03 -0.87577440124E+02  0.14267252042E+03  0.00000000000E+00 0.  1.
         -1    1    1    2    0  504 -0.52615313341E+01 -0.44634469330E+02 -0.12032815096E+04  0.12041205550E+04  0.00000000000E+00 0. -1.
<scales pt_clust_3="30.50905" pt_clust_4="78.67818" pt_clust_5="14000.00000" pt_clust_6="44.87602"></scales>
<clustering>
<clus scale="   30.509">  1  3  2 -1</clus>
<clus scale="   44.876">  2  6  1 -1</clus>
<clus scale="   78.678">  1  4  2 -1</clus>
<clus scale="   30.509">  1  3  2 -1</clus>
</clustering>
</event>
<event>
 6    0  0.4945982E+002  0.1338351E+03  0.7546771E-02  0.1221874E+00
          2   -1    0    0  504    0 -0.00000000000E+00  0.00000000000E+00  0.23531697995E+04  0.23531697995E+04  0.00000000000E+00 0.  1.
         21   -1    0    0  503  502  0.00000000000E+00 -0.00000000000E+00 -0.90594706466E+03  0.90594706466E+03  0.00000000000E+00 0.  1.
         21    1    1    2  503  501 -0.28346307079E+02  0.36461604993E+02 -0.88969262992E+03  0.89089053059E+03  0.00000000000E+00 0.  1.
         21    1    1    2  504  505  0.38835341256E+02  0.18177672401E+02  0.56935039237E+02  0.71275593279E+02  0.00000000000E+00 0. -1.
         21    1    1    2  505  502 -0.66703525035E+02  0.93958612279E+02  0.11695011409E+04  0.11751640309E+04  0.00000000000E+00 0.  1.
          2    1    1    2  501    0  0.56214490858E+02 -0.14859788967E+03  0.11104791847E+04  0.11217867094E+04  0.00000000000E+00 0.  1.
<scales pt_clust_3="46.18152" pt_clust_4="42.87903" pt_clust_5="133.83510" pt_clust_6="14000.00000"></scales>
<clustering>
<clus scale="   42.879">  1  4  2 -1</clus>
<clus scale="   46.182">  2  3  1 -1</clus>
<clus scale="  133.835">  1  5  2 -1</clus>
<clus scale="   46.182">  2  3  1 -1</clus>
</clustering>
</event>
<event>
 6    0  0.4945982E+002  0.1306339E+03  0.7546771E-02  0.1226518E+00
          2   -1    0    0  505    0 -0.00000000000E+00  0.00000000000E+00  0.14941038551E+04  0.14941038551E+04  0.00000000000E+00 0. -1.
         21   -1    0    0  503  502  0.00000000000E+00 -0.00000000000E+00 -0.29265659383E+03  0.29265659383E+03  0.00000000000E+00 0.  1.
         21    1    1    2  503  504 -0.35188751244E+02  0.27305019568E+02 -0.11955951696E+03  0.12758640368E+03  0.00000000000E+00 0. -1.
         21    1    1    2  504  501  0.28487920516E+02  0.11408010763E+03 -0.10983055949E+03  0.16089929885E+03  0.00000000000E+00 0.  1.
         21    1    1    2  505  502 -0.66590767119E+02 -0.31858884029E+02  0.13770303207E+02  0.75092875878E+02  0.00000000000E+00 0.  1.
          2    1    1    2  501    0  0.73291597847E+02 -0.10952624317E+03  0.14170670345E+04  0.14231818705E+04  0.00000000000E+00 0. -1.
<scales pt_clust_3="44.54001" pt_clust_4="14000.00000" pt_clust_5="77.77466" pt_clust_6="130.63393"></scales>
<clustering>
<clus scale="   44.540">  2  3  1 -1</clus>
<clus scale="   77.775">  2  5  1 -1</clus>
<clus scale="  130.634">  1  6  2 -1</clus>
<clus scale="   44.540">  2  3  1 -1</clus>
</clustering>
</event>
<event>
 6    0  0.4945982E+002  0.1280875E+03  0.7546771E-02  0.1230321E+00
         21   -1    0    0  503  502  0.00000000000E+00  0.00000000000E+00  0.61946357639E+02  0.61946357639E+02  0.00000000000E+00 0. -1.
          2   -1    0    0  504    0 -0.00000000000E+00 -0.00000000000E+00 -0.23153451819E+04  0.23153451819E+04  0.00000000000E+00 0. -1.
         21    1    1    2  503  501 -0.52203516912E+01 -0.65432962987E+02  0.21295709574E+02  0.69008926693E+02  0.00000000000E+00 0. -1.
         21    1    1    2  504  505 -0.55461430400E+02  0.44661123450E+01 -0.16869674962E+03  0.17763589096E+03  0.00000000000E+00 0. -1.
         21    1    1    2  505  502 -0.53940129416E+02  0.26309908246E+02 -0.74697716649E+02  0.95820132050E+02  0.00000000000E+00 0. -1.
          2    1    1    2  501    0  0.11462191151E+03  0.34656942396E+02 -0.20313000676E+04  0.20348265898E+04  0.00000000000E+00 0. -1.
<scales pt_clust_3="65.64088" pt_clust_4="49.29933" pt_clust_5="49.29933" pt_clust_6="117.40931"></scales>
<clustering>
<clus scale="   49.299">  4  5 -1 -1</clus>
<clus scale="   65.641">  1  3  2 -1</clus>
<clus scale="  117.409">  2  6  1 -1</clus>
<clus scale="   65.641">  1  3  2 -1</clus>
</clustering>
</event>
<event>
 6    0  0.4945982E+002  0.9495086E+02  0.7546771E-02  0.1291287E+00
          1   -1    0    0  502    0 -0.00000000000E+00  0.00000000000E+00  0.29356823032E+03  0.29356823032E+03  0.00000000000E+00 0.  1.
         21   -1    0    0  505  502  0.00000000000E+00 -0.00000000000E+00 -0.16050943930E+04  0.16050943930E+04  0.00000000000E+00 0. -1.
         21    1    1    2  503  501  0.66724636522E+02 -0.24312998415E+02 -0.94329793182E+02  0.11807374345E+03  0.00000000000E+00 0.  1.
         21    1    1    2  504  503 -0.13980526396E+03  0.39838531466E+02 -0.82607876182E+03  0.83877216283E+03  0.00000000000E+00 0. -1.
         21    1    1    2  505  504  0.44741946096E+02 -0.28541521789E+02 -0.66452289550E+03  0.66663868688E+03  0.00000000000E+00 0. -1.
          1    1    1    2  501    0  0.28338681346E+02  0.13015988738E+02  0.27340528786E+03  0.27517803010E+03  0.00000000000E+00 0.  1.
<scales pt_clust_3="14000.00000" pt_clust_4="94.95086" pt_clust_5="54.01649" pt_clust_6="31.18488"></scales>
<clustering>
<clus scale="   31.185">  1  6  2 -1</clus>
<clus scale="   54.016">  2  5  1 -1</clus>
<clus scale="   94.951">  2  4  1 -1</clus>
<clus scale="   54.016">  2  3  1 -1</clus>
</clustering>
</event>
<event>
 6    0  0.4945982E+002  0.7743930E+02  0.7546771E-02  0.1336479E+00
         21   -1    0    0  504  502  0.00000000000E+00  0.00000000000E+00  0.46081809835E+03  0.46081809835E+03  0.00000000000E+00 0. -1.
         -3   -1    0    0    0  501 -0.00000000000E+00 -0.00000000000E+00 -0.79490706418E+03  0.79490706418E+03  0.00000000000E+00 0. -1.
         21    1    1    2  503  502  0.31400159310E+02 -0.46206655300E+01  0.12784674892E+03  0.13172741463E+03  0.00000000000E+00 0. -1.
         21    1    1    2  504  505  0.19757967866E+02 -0.54321861135E+02  0.29535962537E+03  0.30096270565E+03  0.00000000000E+00 0. -1.
         21    1    1    2  505  501 -0.11408610015E+03  0.42699594940E+02 -0.87232733439E+02  0.14982804624E+03  0.00000000000E+00 0. -1.
         -3    1    1    2    0  503  0.62927972977E+02  0.16242931725E+02 -0.67006260668E+03  0.67320699602E+03  0.00000000000E+00 0. -1.
<scales pt_clust_3="31.73831" pt_clust_4="77.43930" pt_clust_5="14000.00000" pt_clust_6="65.12942"></scales>
<clustering>
<clus scale="   31.738">  1  3  2 -1</clus>
<clus scale="   65.129">  2  6  1 -1</clus>
<clus scale="   77.439">  1  4  2 -1</clus>
<clus scale="   31.738">  1  3  2 -1</clus>
</clustering>
</event>
<event>
 6    0  0.4945982E+002  0.1010848E+03  0.7546771E-02  0.1278031E+00
          2   -1    0    0  503    0 -0.00000000000E+00  0.00000000000E+00  0.10164516876E+04  0.10164516876E+04  0.00000000000E+00 0.  1.
         21   -1    0    0  505  502  0.00000000000E+00 -0.00000000000E+00 -0.55054921367E+02  0.55054921367E+02  0.00000000000E+00 0. -1.
         21    1    1    2  503  504  0.12276706225E+02 -0.12662870837E+03  0.12179255302E+03  0.17612204084E+03  0.00000000000E+00 0. -1.
         21    1    1    2  504  502  0.28818741651E+02  0.31100619032E+02  0.12888276121E+02  0.44315640985E+02  0.00000000000E+00 0. -1.
         21    1    1    2  505  501 -0.41659657897E+02 -0.26874379924E+01  0.38601259616E+02  0.56857775748E+02  0.00000000000E+00 0. -1.
          2    1    1    2  501    0  0.56421002071E+00  0.98215527331E+02  0.78811467751E+03  0.79421115142E+03  0.00000000000E+00 0.  1.
<scales pt_clust_3="14000.00000" pt_clust_4="33.51178" pt_clust_5="41.74625" pt_clust_6="101.08483"></scales>
<clustering>
<clus scale="   41.746">  2  5  1 -1</clus>
<clus scale="   33.512">  2  4  1 -1</clus>
<clus scale="  101.085">  1  6  2 -1</clus>
<clus scale="   41.746">  2  3  1 -1</clus>
</clustering>
</event>
<event>
 6    0  0.4945982E+002  0.1304790E+03  0.7546771E-02  0.1226747E+00
         21   -1    0    0  504  502  0.00000000000E+00  0.00000000000E+00  0.26140575259E+03  0.26140575259E+03  0.00000000000E+00 0.  1.
          3   -1    0    0  502    0 -0.00000000000E+00 -0.00000000000E+00 -0.41945375201E+03  0.41945375201E+03  0.00000000000E+00 0. -1.
         21    1    1    2  503  505 -0.29230196648E+02  0.40934373216E+02 -0.34365635862E+02  0.60918176555E+02  0.00000000000E+00 0.  1.
         21    1    1    2  504  503  0.37512218206E+02 -0.11344667011E+01  0.18993507923E+03  0.19360730320E+03  0.00000000000E+00 0.  1.
         21    1    1    2  505  501 -0.33750198802E+02  0.76403503037E+02  0.75268208384E+01  0.83864320348E+02  0.00000000000E+00 0.  1.
          3    1    1    2  501    0  0.25468177244E+02 -0.11620340955E+03 -0.32114426362E+03  0.34246970450E+03  0.00000000000E+00 0. -1.
<scales pt_clust_3="39.03448" pt_clust_4="37.52937" pt_clust_5="39.03448" pt_clust_6="120.48998"></scales>
<clustering>
<clus scale="   37.529">  1  4  2 -1</clus>
<clus scale="   39.034">  3  5 -1 -1</clus>
<clus scale="  120.490">  2  6  1 -1</clus>
<clus scale="   37.529">  1  3  2 -1</clus>
</clustering>
</event>
<event>
 6    0  0.4945982E+002  0.2171377E+03  0.7546771E-02  0.1136035E+00
         21   -1    0    0  501  502  0.00000000000E+00  0.00000000000E+00  0.25784723328E+03  0.25784723328E+03  0.00000000000E+00 0. -1.
          1   -1    0    0  503    0 -0.00000000000E+00 -0.00000000000E+00 -0.14951244802E+04  0.14951244802E+04  0.00000000000E+00 0. -1.
         21    1    1    2  503  505  0.41758906489E+02  0.42586746892E+01 -0.43436118298E+02  0.60403964721E+02  0.00000000000E+00 0.  1.
         21    1    1    2  504  502  0.18067876125E+02  0.57217177277E+02  0.86938241842E+02  0.10563385545E+03  0.00000000000E+00 0. -1.
         21    1    1    2  505  504 -0.23520644190E+03 -0.29610513492E+02  0.51658246365E+02  0.24262610584E+03  0.00000000000E+00 0. -1.
          1    1    1    2  501    0  0.17537965928E+03 -0.31865338475E+02 -0.13324376168E+04  0.13443077874E+04  0.00000000000E+00 0. -1.
<scales pt_clust_3="41.97550" pt_clust_4="60.11038" pt_clust_5="217.13769" pt_clust_6="14000.00000"></scales>
<clustering>
<clus scale="   41.975">  2  3  1 -1</clus>
<clus scale="   60.110">  1  4  2 -1</clus>
<clus scale="  217.138">  1  5  2 -1</clus>
<clus scale="   60.110">  1  3  2 -1</clus>
</clustering>
</event>
<event>
 6    0  0.4945982E+002  0.9966177E+02  0.7546771E-02  0.1281009E+00
         21   -1    0    0  503  502  0.00000000000E+00  0.00000000000E+00  0.50223374653E+03  0.50223374653E+03  0.00000000000E+00 0.  1.
         -4   -1    0    0    0  501 -0.00000000000E+00 -0.00000000000E+00 -0.16139903158E+03  0.16139903158E+03  0.00000000000E+00 0. -1.
         21    1    1    2  503  504 -0.32552715034E+02 -0.53261904136E+02  0.28805789608E+03  0.29474372119E+03  0.00000000000E+00 0.  1.
         21    1    1    2  504  501  0.34292325505E+02  0.14106929711E+03  0.96702635797E+02  0.17443597664E+03  0.00000000000E+00 0.  1.
         21    1    1    2  505  502  0.42133992339E+02 -0.71984042844E+02  0.44458819479E+02  0.94517524111E+02  0.00000000000E+00 0.  1.
         -4    1    1    2    0  505 -0.43873602810E+02 -0.15823350129E+02 -0.88384636410E+02  0.99935556166E+02  0.00000000000E+00 0. -1.
<scales pt_clust_3="64.24717" pt_clust_4="99.66177" pt_clust_5="14000.00000" pt_clust_6="46.63981"></scales>
<clustering>
<clus scale="   46.640">  2  6  1 -1</clus>
<clus scale="   64.247">  1  3  2 -1</clus>
<clus scale="   99.662">  1  4  2 -1</clus>
<clus scale="   64.247">  1  3  2 -1</clus>
</clustering>
</event>
<event>
 6    0  0.4945982E+002  0.1639984E+03  0.7546771E-02  0.1184255E+00
          2   -1    0    0  505    0 -0.00000000000E+00  0.00000000000E+00  0.25305182399E+04  0.25305182399E+04  0.00000000000E+00 0. -1.
         21   -1    0    0  503  502  0.00000000000E+00 -0.00000000000E+00 -0.36199121254E+02  0.36199121254E+02  0.00000000000E+00 0.  1.
         21    1    1    2  503  501 -0.13074524559E+02  0.16583556108E+03  0.14876690940E+04  0.14969407836E+04  0.00000000000E+00 0.  1.
         21    1    1    2  504  502  0.33844920802E+02 -0.97354833231E+01  0.40167239114E+02  0.53419709824E+02  0.00000000000E+00 0.  1.
         21    1    1    2  505  504  0.36391896969E+02 -0.12298124177E+03  0.15062972510E+03  0.19783344024E+03  0.00000000000E+00 0.  1.
          2    1    1    2  501    0 -0.57162293211E+02 -0.33118835989E+02  0.81585306042E+03  0.81852342744E+03  0.00000000000E+00 0. -1.
<scales pt_clust_3="150.72408" pt_clust_4="33.86996" pt_clust_5="33.86996" pt_clust_6="66.06349"></scales>
<clustering>
<clus scale="   33.870">  4  5 -1 -1</clus>
<clus scale="   66.063">  1  6  2 -1</clus>
<clus scale="  150.724">  1  3  2 -1</clus>
<clus scale="  163.998">  2  3  1 -1</clus>
</clustering>
</event>
<event>
 6    0  0.4945982E+002  0.1260904E+03  0.7546771E-02  0.1233375E+00
          1   -1    0    0  505    0 -0.00000000000E+00  0.00000000000E+00  0.23476169149E+04  0.23476169149E+04  0.00000000000E+00 0. -1.
         21   -1    0    0  503  502  0.00000000000E+00 -0.00000000000E+00 -0.98904140506E+01  0.98904140506E+01  0.00000000000E+00 0. -1.
         21    1    1    2  503  504 -0.20159518489E+02  0.45645596949E+02  0.20944254639E+03  0.21530468399E+03  0.00000000000E+00 0. -1.
         21    1    1    2  504  501 -0.52505810819E+02  0.71682134510E+02  0.68023039725E+03  0.68600917044E+03  0.00000000000E+00 0. -1.
         21    1    1    2  505  502  0.33923343761E+02 -0.13046576832E+02  0.20723590967E+03  0.21039897499E+03  0.00000000000E+00 0. -1.
          1    1    1    2  501    0  0.38741985547E+02 -0.10428115463E+03  0.12408176475E+04  0.12457944995E+04  0.00000000000E+00 0. -1.
<scales pt_clust_3="31.81737" pt_clust_4="31.81737" pt_clust_5="36.34565" pt_clust_6="118.72708"></scales>
<clustering>
<clus scale="   31.817">  3  4 -1 -1</clus>
<clus scale="   36.346">  2  5  1 -1</clus>
<clus scale="  118.727">  1  6  2 -1</clus>
<clus scale="   36.346">  2  3  1 -1</clus>
</clustering>
</event>
<event>
 6    0  0.4945982E+002  0.1283095E+03  0.7546771E-02  0.1229986E+00
          3   -1    0    0  504    0 -0.00000000000E+00  0.00000000000E+00  0.15999546745E+04  0.15999546745E+04  0.00000000000E+00 0.  1.
         21   -1    0    0  505  502  0.00000000000E+00 -0.00000000000E+00 -0.21311194219E+03  0.21311194219E+03  0.00000000000E+00 0.  1.
         21    1    1    2  503  502  0.35599106963E+02 -0.47274999733E+02  0.80690693322E+02  0.10006602823E+03  0.00000000000E+00 0.  1.
         21    1    1    2  504  503  0.47293701544E+02  0.17117600774E+02  0.56822263022E+03  0.57044426893E+03  0.00000000000E+00 0.  1.
         21    1    1    2  505  501 -0.86598344326E+02  0.97015660382E+02 -0.18006987058E+03  0.22211814399E+03  0.00000000000E+00 0.  1.
          3    1    1    2  501    0  0.37055358197E+01 -0.66858261423E+02  0.91799927931E+03  0.92043817550E+03  0.00000000000E+00 0.  1.
<scales pt_clust_3="60.62202" pt_clust_4="50.29619" pt_clust_5="14000.00000" pt_clust_6="128.30954"></scales>
<clustering>
<clus scale="   50.296">  1  4  2 -1</clus>
<clus scale="   60.622">  1  3  2 -1</clus>
<clus scale="  128.310">  1  6  2 -1</clus>
<clus scale="  128.310">  2  3  1 -1</clus>
</clustering>
</event>
<event>
 6    0  0.4945982E+002  0.1986755E+03  0.7546771E-02  0.1150861E+00
         21   -1    0    0  503  502  0.00000000000E+00  0.00000000000E+00  0.20800740139E+03  0.20800740139E+03  0.00000000000E+00 0.  1.
          2   -1    0    0  504    0 -0.00000000000E+00 -0.00000000000E+00 -0.38084104719E+03  0.38084104719E+03  0.00000000000E+00 0. -1.
         21    1    1    2  503  505  0.12108693842E+03  0.39192536828E+02  0.45980368232E+02  0.13532293177E+03  0.00000000000E+00 0.  1.
         21    1    1    2  504  502 -0.16239678427E+03 -0.71718715614E+02 -0.19658835972E+03  0.26488350815E+03  0.00000000000E+00 0. -1.
         21    1    1    2  505  501  0.70441141805E+02  0.11023648519E+02  0.63567587448E+02  0.95521272288E+02  0.00000000000E+00 0.  1.
          2    1    1    2  501    0 -0.29131295954E+02  0.21502530267E+02 -0.85793241754E+02  0.93120736372E+02  0.00000000000E+00 0. -1.
<scales pt_clust_3="34.16517" pt_clust_4="193.36068" pt_clust_5="34.16517" pt_clust_6="36.20761"></scales>
<clustering>
<clus scale="   34.165">  3  5 -1 -1</clus>
<clus scale="   36.208">  2  6  1 -1</clus>
<clus scale="  193.361">  2  4  1 -1</clus>
<clus scale="  198.676">  1  3  2 -1</clus>
</clustering>
</event>
<event>
 6    0  0.4945982E+002  0.8963912E+02  0.7546771E-02  0.1303728E+00
         21   -1    0    0  503  502  0.00000000000E+00  0.00000000000E+00  0.18062656558E+02  0.18062656558E+02  0.00000000000E+00 0. -1.
          2   -1    0    0  502    0 -0.00000000000E+00 -0.00000000000E+00 -0.27549571952E+04  0.27549571952E+04  0.00000000000E+00 0.  1.
         21    1    1    2  503  505  0.22112813129E+02 -0.38042915386E+02 -0.39209139466E+02  0.58937225360E+02  0.00000000000E+00 0. -1.
         21    1    1    2  504  501  0.70567517663E+02  0.10283283130E+02 -0.41958207412E+03  0.42559915106E+03  0.00000000000E+00 0. -1.
         21    1    1    2  505  504 -0.14279954532E+02 -0.45936619343E+02 -0.14711195181E+03  0.15477731250E+03  0.00000000000E+00 0. -1.
          2    1    1    2  501    0 -0.78400376259E+02  0.73696251598E+02 -0.21309913732E+04  0.21337061628E+04  0.00000000000E+00 0.  1.
<scales pt_clust_3="44.00273" pt_clust_4="14000.00000" pt_clust_5="63.84274" pt_clust_6="89.63912"></scales>
<clustering>
<clus scale="   44.003">  1  3  2 -1</clus>
<clus scale="   63.843">  1  5  2 -1</clus>
<clus scale="   89.639">  2  6  1 -1</clus>
<clus scale="   44.003">  1  3  2 -1</clus>
</clustering>
</event>
<event>
 6    0  0.4945982E+002  0.2059496E+03  0.7546771E-02  0.1144814E+00
          1   -1    0    0  502    0 -0.00000000000E+00  0.00000000000E+00  0.12187505363E+04  0.12187505363E+04  0.00000000000E+00 0. -1.
         21   -1    0    0  505  502  0.00000000000E+00 -0.00000000000E+00 -0.32860045729E+03  0.32860045729E+03  0.00000000000E+00 0. -1.
         21    1    1    2  503  504 -0.44549717030E+02 -0.78353437625E+01 -0.63922786892E+02  0.78308317460E+02  0.00000000000E+00 0.  1.
         21    1    1    2  504  501 -0.10904083416E+03 -0.84747866920E+02 -0.59051413291E+02  0.15019711673E+03  0.00000000000E+00 0. -1.
         21    1    1    2  505  503  0.49171693590E+01 -0.32615994510E+02 -0.14286831007E+03  0.14662651764E+03  0.00000000000E+00 0. -1.
          1    1    1    2  501    0  0.14867338183E+03  0.12519920519E+03  0.11559925893E+04  0.11722190418E+04  0.00000000000E+00 0. -1.
<scales pt_clust_3="39.66905" pt_clust_4="39.66905" pt_clust_5="32.98457" pt_clust_6="193.61006"></scales>
<clustering>
<clus scale="   32.985">  2  5  1 -1</clus>
<clus scale="   39.669">  3  4 -1 -1</clus>
<clus scale="  193.610">  1  6  2 -1</clus>
<clus scale="   32.985">  2  3  1 -1</clus>
</clustering>
</event>
<event>
 6    0  0.4945982E+002  0.1324091E+03  0.7546771E-02  0.1223924E+00
          2   -1    0    0  504    0 -0.00000000000E+00  0.00000000000E+00  0.10827011617E+04  0.10827011617E+04  0.00000000000E+00 0.  1.
         21   -1    0    0  503  502  0.00000000000E+00 -0.00000000000E+00 -0.48235219448E+02  0.48235219448E+02  0.00000000000E+00 0.  1.
         21    1    1    2  503  501 -0.27482738902E+02 -0.15739396938E+03  0.21446072644E+03  0.26743516171E+03  0.00000000000E+00 0.  1.
         21    1    1    2  504  505 -0.48668362071E+01  0.80893550868E+02  0.35119932854E+03  0.36042810799E+03  0.00000000000E+00 0.  1.
         21    1    1    2  505  502  0.53840294695E+02  0.99578258041E+02  0.18058825502E+03  0.21313546082E+03  0.00000000000E+00 0.  1.
          2    1    1    2  501    0 -0.21490719586E+02 -0.23077839528E+02  0.28821763225E+03  0.28993765062E+03  0.00000000000E+00 0.  1.
<scales pt_clust_3="14000.00000" pt_clust_4="72.02195" pt_clust_5="132.40909" pt_clust_6="31.53471"></scales>
<clustering>
<clus scale="   31.535">  1  6  2 -1</clus>
<clus scale="   72.022">  1  4  2 -1</clus>
<clus scale="  132.409">  2  5  1 -1</clus>
<clus scale="  132.409">  2  3  1 -1</clus>
</clustering>
</event>
<event>
 6    0  0.7791572E+002  0.8314913E+02  0.7546771E-02  0.1320345E+00
         -1   -1    0    0    0  501 -0.00000000000E+00  0.00000000000E+00  0.24477500913E+04  0.24477500913E+04  0.00000000000E+00 0.  1.
         21   -1    0    0  501  502  0.00000000000E+00 -0.00000000000E+00 -0.20909837258E+03  0.20909837258E+03  0.00000000000E+00 0.  1.
         21    1    1    2  503  504 -0.36243782004E+02 -0.24009572051E+02  0.85516355060E+02  0.95932884178E+02  0.00000000000E+00 0. -1.
         21    1    1    2  504  505  0.83124274747E+02  0.45488592389E+02  0.92905977649E+02  0.13270409855E+03  0.00000000000E+00 0.  1.
         21    1    1    2  505  502 -0.59528170820E+02 -0.57037087043E+02 -0.17458844376E+03  0.19307500386E+03  0.00000000000E+00 0.  1.
         -1    1    1    2    0  503  0.12647678077E+02  0.35558066705E+02  0.22348178298E+04  0.22351364773E+04  0.00000000000E+00 0.  1.
<scales pt_clust_3="32.09462" pt_clust_4="14000.00000" pt_clust_5="83.14913" pt_clust_6="37.74043"></scales>
<clustering>
<clus scale="   37.740">  1  6  2 -1</clus>
<clus scale="   32.095">  1  3  2 -1</clus>
<clus scale="   83.149">  2  5  1 -1</clus>
<clus scale="   83.149">  2  3  1 -1</clus>
</clustering>
</event>
<event>
 6    0  0.4945982E+002  0.7643039E+02  0.7546771E-02  0.1339498E+00
         21   -1    0    0  504  502  0.00000000000E+00  0.00000000000E+00  0.50486874194E+03  0.50486874194E+03  0.00000000000E+00 0. -1.
         -1   -1    0    0    0  501 -0.00000000000E+00 -0.00000000000E+00 -0.13968022651E+03  0.13968022651E+03  0.00000000000E+00 0. -1.
         21    1    1    2  503  501 -0.11481459494E+03  0.18657812147E+01  0.40172397708E+03  0.41781338671E+03  0.00000000000E+00 0. -1.
         21    1    1    2  504  503  0.42180301170E+02  0.21506246341E+02  0.62898918658E+02  0.78727189755E+02  0.00000000000E+00 0. -1.
         21    1    1    2  505  502  0.69876104819E+02  0.99168681743E+01 -0.43637907640E+02  0.82977595062E+02  0.00000000000E+00 0. -1.
         -1    1    1    2    0  505  0.27581889551E+01 -0.33288895730E+02 -0.55796472671E+02  0.65030796917E+02  0.00000000000E+00 0. -1.
<scales pt_clust_3="14000.00000" pt_clust_4="46.18542" pt_clust_5="76.43039" pt_clust_6="33.40297"></scales>
<clustering>
<clus scale="   33.403">  2  6  1 -1</clus>
<clus scale="   46.185">  1  4  2 -1</clus>
<clus scale="   76.430">  2  5  1 -1</clus>
<clus scale="   46.185">  1  3  2 -1</clus>
</clustering>
</event>
<event>
 6    0  0.4945982E+002  0.9048523E+02  0.7546771E-02  0.1301681E+00
         21   -1    0    0  501  502  0.00000000000E+00  0.00000000000E+00  0.75881150237E+02  0.75881150237E+02  0.00000000000E+00 0.  1.
          2   -1    0    0  504    0 -0.00000000000E+00 -0.00000000000E+00 -0.84849706073E+03  0.84849706073E+03  0.00000000000E+00 0.  1.
         21    1    1    2  503  505  0.43272037627E+02  0.60834465541E+02 -0.78572674275E+02  0.10838342392E+03  0.00000000000E+00 0. -1.
         21    1    1    2  504  503 -0.44782512779E+02  0.36686016105E+02 -0.94231071417E+02  0.11059309223E+03  0.00000000000E+00 0. -1.
         21    1    1    2  505  502  0.58989264141E+02 -0.18869793849E+02  0.29495569936E+02  0.68598768572E+02  0.00000000000E+00 0.  1.
          2    1    1    2  501    0 -0.57478788989E+02 -0.78650687798E+02 -0.62930773473E+03  0.63680292624E+03  0.00000000000E+00 0.  1.
<scales pt_clust_3="90.48523" pt_clust_4="57.89074" pt_clust_5="60.52576" pt_clust_6="14000.00000"></scales>
<clustering>
<clus scale="   57.891">  2  4  1 -1</clus>
<clus scale="   60.526">  1  5  2 -1</clus>
<clus scale="   90.485">  1  3  2 -1</clus>
<clus scale="   60.526">  1  3  2 -1</clus>
</clustering>
</event>
<event>
 6    0  0.4945982E+002  0.1126401E+03  0.7546771E-02  0.1255758E+00
          1   -1    0    0  503    0 -0.00000000000E+00  0.00000000000E+00  0.34571818639E+03  0.34571818639E+03  0.00000000000E+00 0. -1.
         21   -1    0    0  505  502  0.00000000000E+00 -0.00000000000E+00 -0.71816119547E+03  0.71816119547E+03  0.00000000000E+00 0. -1.
         21    1    1    2  503  502  0.28434240774E+02 -0.16444581952E+02 -0.17505416414E+03  0.17810921006E+03  0.00000000000E+00 0. -1.
         21    1    1    2  504  501 -0.19027551811E+02 -0.96020195425E+02 -0.34322246811E+03  0.35690837518E+03  0.00000000000E+00 0. -1.
         21    1    1    2  505  504 -0.70773769020E+02  0.17299375453E+02 -0.17450215526E+03  0.18910102317E+03  0.00000000000E+00 0.  1.
          1    1    1    2  501    0  0.61367080057E+02  0.95165401923E+02  0.32033577843E+03  0.33976077346E+03  0.00000000000E+00 0. -1.
<scales pt_clust_3="32.84707" pt_clust_4="112.64008" pt_clust_5="62.35148" pt_clust_6="14000.00000"></scales>
<clustering>
<clus scale="   32.847">  2  3  1 -1</clus>
<clus scale="   62.351">  2  5  1 -1</clus>
<clus scale="  112.640">  2  4  1 -1</clus>
<clus scale="   32.847">  2  3  1 -1</clus>
</clustering>
</event>
<event>
 6    0  0.4945982E+002  0.1982886E+03  0.7546771E-02  0.1151191E+00
          1   -1    0    0  503    0 -0.00000000000E+00  0.00000000000E+00  0.14197746779E+04  0.14197746779E+04  0.00000000000E+00 0. -1.
         21   -1    0    0  505  502  0.00000000000E+00 -0.00000000000E+00 -0.12515069610E+03  0.12515069610E+03  0.00000000000E+00 0. -1.
         21    1    1    2  503  504  0.79329613725E+02 -0.15059351899E+02  0.17498906188E+03  0.19272037638E+03  0.00000000000E+00 0.  1.
         21    1    1    2  504  502 -0.18787439398E+03  0.58974935218E+02 -0.26713329518E+02  0.19871696675E+03  0.00000000000E+00 0. -1.
         21    1    1    2  505  501  0.68763798772E+02 -0.66268626352E+01  0.48490083615E+03  0.48979709700E+03  0.00000000000E+00 0. -1.
          1    1    1    2  501    0  0.39780981487E+02 -0.37288720684E+02  0.66144741329E+03  0.66369093389E+03  0.00000000000E+00 0. -1.
<scales pt_clust_3="80.74634" pt_clust_4="191.33375" pt_clust_5="46.24675" pt_clust_6="46.24675"></scales>
<clustering>
<clus scale="   46.247">  5  6 -1 -1</clus>
<clus scale="   80.746">  1  3  2 -1</clus>
<clus scale="  191.334">  2  4  1 -1</clus>
<clus scale="  191.334">  2  3  1 -1</clus>
</clustering>
</event>
<event>
 6    0  0.4945982E+002  0.1382240E+03  0.7546771E-02  0.1215739E+00
          2   -1    0    0  505    0 -0.00000000000E+00  0.00000000000E+00  0.14277257890E+04  0.14277257890E+04  0.00000000000E+00 0.  1.
         21   -1    0    0  504  502  0.00000000000E+00 -0.00000000000E+00 -0.71098199373E+02  0.71098199373E+02  0.00000000000E+00 0.  1.
         21    1    1    2  503  501  0.26500465818E+00 -0.91040134340E+02  0.19647766025E+03  0.21654525455E+03  0.00000000000E+00 0. -1.
         21    1    1    2  504  503  0.11038683243E+01  0.48086369669E+02  0.24363718815E+02  0.53917606287E+02  0.00000000000E+00 0.  1.
         21    1    1    2  505  502 -0.12826728729E+03 -0.15722948478E+02  0.58174335446E+02  0.14171789372E+03  0.00000000000E+00 0.  1.
          2    1    1    2  501    0  0.12689841430E+03  0.58676713150E+02  0.10776118751E+04  0.10866432338E+04  0.00000000000E+00 0.  1.
<scales pt_clust_3="82.47470" pt_clust_4="48.09904" pt_clust_5="14000.00000" pt_clust_6="138.22399"></scales>
<clustering>
<clus scale="   48.099">  2  4  1 -1</clus>
<clus scale="   82.475">  2  3  1 -1</clus>
<clus scale="  138.224">  1  6  2 -1</clus>
<clus scale="   48.099">  2  3  1 -1</clus>
</clustering>
</event>
<event>
 6    0  0.4945982E+002  0.1240021E+03  0.7546771E-02  0.1236637E+00
          1   -1    0    0  503    0 -0.00000000000E+00  0.00000000000E+00  0.17676419531E+04  0.17676419531E+04  0.00000000000E+00 0.  1.
         21   -1    0    0  505  502  0.00000000000E+00 -0.00000000000E+00 -0.47131480532E+02  0.47131480532E+02  0.00000000000E+00 0.  1.
         21    1    1    2  503  502  0.25411789523E+02  0.77530569962E+02  0.16418705225E+03  0.18334158408E+03  0.00000000000E+00 0. -1.
         21    1    1    2  504  501 -0.10247807265E+03 -0.14711564716E+03  0.67929633050E+03  0.70255837739E+03  0.00000000000E+00 0.  1.
         21    1    1    2  505  504  0.48819553195E+02  0.49303511447E+02  0.21498734277E+02  0.72638698988E+02  0.00000000000E+00 0.  1.
          1    1    1    2  501    0  0.28246729929E+02  0.20281565747E+02  0.85552835551E+03  0.85623477314E+03  0.00000000000E+00 0.  1.
<scales pt_clust_3="124.00213" pt_clust_4="14000.00000" pt_clust_5="71.15496" pt_clust_6="34.77384"></scales>
<clustering>
<clus scale="   34.774">  1  6  2 -1</clus>
<clus scale="   71.155">  2  5  1 -1</clus>
<clus scale="  124.002">  2  3  1 -1</clus>
<clus scale="   71.155">  2  3  1 -1</clus>
</clustering>
</event>
<event>
 6    0  0.4945982E+002  0.1197571E+03  0.7546771E-02  0.1243498E+00
         21   -1    0    0  501  502  0.00000000000E+00  0.00000000000E+00  0.35098247153E+03  0.35098247153E+03  0.00000000000E+00 0.  1.
          2   -1    0    0  503    0 -0.00000000000E+00 -0.00000000000E+00 -0.12997939861E+04  0.12997939861E+04  0.00000000000E+00 0. -1.
         21    1    1    2  503  505 -0.40150535187E+02  0.96879697117E+02 -0.13263991580E+03  0.16908899566E+03  0.00000000000E+00 0.  1.
         21    1    1    2  504  502  0.43585714905E+02  0.92619541206E+00  0.22228788488E+03  0.22652257315E+03  0.00000000000E+00 0.  1.
         21    1    1    2  505  504  0.28779812127E+02 -0.10703207298E+03  0.79692926011E+02  0.13651045633E+03  0.00000000000E+00 0.  1.
          2    1    1    2  501    0 -0.32214991846E+02  0.92261804484E+01 -0.11181524097E+04  0.11186544325E+04  0.00000000000E+00 0. -1.
<scales pt_clust_3="119.75706" pt_clust_4="43.22204" pt_clust_5="14000.00000" pt_clust_6="33.51012"></scales>
<clustering>
<clus scale="   33.510">  2  6  1 -1</clus>
<clus scale="   43.222">  1  4  2 -1</clus>
<clus scale="  119.757">  2  3  1 -1</clus>
<clus scale="   43.222">  1  3  2 -1</clus>
</clustering>
</event>
<event>
 6    0  0.4945982E+002  0.1344203E+03  0.7546771E-02  0.1221040E+00
         21   -1    0    0  503  502  0.00000000000E+00  0.00000000000E+00  0.40373448462E+03  0.40373448462E+03  0.00000000000E+00 0. -1.
          1   -1    0    0  504    0 -0.00000000000E+00 -0.00000000000E+00 -0.83551297108E+03  0.83551297108E+03  0.00000000000E+00 0.  1.
         21    1    1    2  503  501 -0.28281975368E+02  0.82304264514E+02 -0.84916468744E+02  0.12159222324E+03  0.00000000000E+00 0.  1.
         21    1    1    2  504  505  0.69182110462E+02 -0.14876734222E+03  0.50519208175E+02  0.17166850880E+03  0.00000000000E+00 0. -1.
         21    1    1    2  505  502 -0.45847566029E+02 -0.14195590127E+02  0.26974623442E+03  0.27398274594E+03  0.00000000000E+00 0. -1.
          1    1    1    2  501    0  0.49474309360E+01  0.80658667834E+02 -0.66712746031E+03  0.67200397772E+03  0.00000000000E+00 0.  1.
<scales pt_clust_3="14000.00000" pt_clust_4="134.42026" pt_clust_5="47.99494" pt_clust_6="80.50066"></scales>
<clustering>
<clus scale="   47.995">  1  5  2 -1</clus>
<clus scale="   80.501">  2  6  1 -1</clus>
<clus scale="  134.420">  1  4  2 -1</clus>
<clus scale="   47.995">  1  3  2 -1</clus>
</clustering>
</event>
<event>
 6    0  0.4945982E+002  0.7462053E+02  0.7546771E-02  0.1345050E+00
         -1   -1    0    0    0  501 -0.00000000000E+00  0.00000000000E+00  0.30545665030E+03  0.30545665030E+03  0.00000000000E+00 0. -1.
         21   -1    0    0  505  502  0.00000000000E+00 -0.00000000000E+00 -0.93688557820E+02  0.93688557820E+02  0.00000000000E+00 0. -1.
         21    1    1    2  503  504  0.60990998906E+02  0.65101514122E+02  0.12509157365E+03  0.15364247748E+03  0.00000000000E+00 0. -1.
         21    1    1    2  504  502  0.42646926863E+02  0.13514702289E+02  0.13516470072E+01  0.44757507733E+02  0.00000000000E+00 0. -1.
         21    1    1    2  505  501 -0.37283156692E+02 -0.59652772256E+02 -0.21508825941E+02  0.73560292305E+02  0.00000000000E+00 0. -1.
         -1    1    1    2    0  503 -0.66354769077E+02 -0.18963444155E+02  0.10683369776E+03  0.12718493059E+03  0.00000000000E+00 0. -1.
<scales pt_clust_3="74.62053" pt_clust_4="44.73709" pt_clust_5="51.54218" pt_clust_6="14000.00000"></scales>
<clustering>
<clus scale="   44.737">  2  4  1 -1</clus>
<clus scale="   51.542">  2  5  1 -1</clus>
<clus scale="   74.621">  2  3  1 -1</clus>
<clus scale="   44.737">  2  3  1 -1</clus>
</clustering>
</event>
<event>
 6    0  0.4945982E+002  0.2744205E+03  0.7546771E-02  0.1098776E+00
          2   -1    0    0  504    0 -0.00000000000E+00  0.00000000000E+00  0.21168694629E+04  0.21168694629E+04  0.00000000000E+00 0. -1.
         21   -1    0    0  505  502  0.00000000000E+00 -0.00000000000E+00 -0.28161588702E+03  0.28161588702E+03  0.00000000000E+00 0. -1.
         21    1    1    2  503  502  0.63155614051E+02  0.18534453701E+03 -0.25463206422E+02  0.19745785339E+03  0.00000000000E+00 0. -1.
         21    1    1    2  504  503  0.85703254882E+02  0.11498521349E+03 -0.61772093146E+02  0.15614877108E+03  0.00000000000E+00 0. -1.
         21    1    1    2  505  501 -0.10223203541E+03 -0.41822024615E+02  0.61567886426E+01  0.11062719762E+03  0.00000000000E+00 0. -1.
          2    1    1    2  501    0 -0.46626833524E+02 -0.25850772588E+03  0.19163320868E+04  0.19342515278E+04  0.00000000000E+00 0. -1.
<scales pt_clust_3="60.94098" pt_clust_4="60.94098" pt_clust_5="110.45574" pt_clust_6="265.02056"></scales>
<clustering>
<clus scale="   60.941">  3  4 -1 -1</clus>
<clus scale="  110.456">  2  5  1 -1</clus>
<clus scale="  265.021">  1  6  2 -1</clus>
<clus scale="  110.456">  2  3  1 -1</clus>
</clustering>
</event>
<event>
 6    0  0.4945982E+002  0.1083274E+03  0.7546771E-02  0.1263699E+00
          1   -1    0    0  503    0 -0.00000000000E+00  0.00000000000E+00  0.35216646813E+04  0.35216646813E+04  0.00000000000E+00 0.  1.
         21   -1    0    0  504  502  0.00000000000E+00 -0.00000000000E+00 -0.42001260553E+03  0.42001260553E+03  0.00000000000E+00 0. -1.
         21    1    1    2  503  502 -0.12964664625E+03 -0.94670800473E+02 -0.29842665912E+03  0.33886469899E+03  0.00000000000E+00 0. -1.
         21    1    1    2  504  505  0.48678920806E+02 -0.15021588337E+02  0.30212176182E+01  0.51033451803E+02  0.00000000000E+00 0.  1.
         21    1    1    2  505  501  0.46584168859E+02  0.61169524624E+02 -0.57936892464E+02  0.96272940328E+02  0.00000000000E+00 0.  1.
          1    1    1    2  501    0  0.34383556584E+02  0.48522864187E+02  0.34549944097E+04  0.34555061957E+04  0.00000000000E+00 0.  1.
<scales pt_clust_3="108.32744" pt_clust_4="50.94394" pt_clust_5="14000.00000" pt_clust_6="59.48041"></scales>
<clustering>
<clus scale="   50.944">  2  4  1 -1</clus>
<clus scale="   59.480">  1  6  2 -1</clus>
<clus scale="  108.327">  2  3  1 -1</clus>
<clus scale="   50.944">  2  3  1 -1</clus>
</clustering>
</event>
<event>
 6    0  0.5744737E+002  0.9880211E+02  0.7546771E-02  0.1282835E+00
         -1   -1    0    0    0  501 -0.00000000000E+00  0.00000000000E+00  0.24047317549E+04  0.24047317549E+04  0.00000000000E+00 0. -1.
         21   -1    0    0  504  502  0.00000000000E+00 -0.00000000000E+00 -0.34106640119E+03  0.34106640119E+03  0.00000000000E+00 0.  1.
         21    1    1    2  503  505 -0.81395224524E+02  0.41300299331E+02  0.96516310313E+02  0.13283935959E+03  0.00000000000E+00 0.  1.
         21    1    1    2  504  501  0.29290656588E+02 -0.30173989093E+02 -0.42172308555E+02  0.59555988699E+02  0.00000000000E+00 0.  1.
         21    1    1    2  505  502  0.21396392266E+02 -0.62490726957E+02 -0.26763236703E+03  0.27566280206E+03  0.00000000000E+00 0.  1.
         -1    1    1    2    0  503  0.30708175670E+02  0.51364416719E+02  0.22769537190E+04  0.22777400057E+04  0.00000000000E+00 0. -1.
<scales pt_clust_3="98.80211" pt_clust_4="42.05249" pt_clust_5="14000.00000" pt_clust_6="59.82923"></scales>
<clustering>
<clus scale="   42.052">  2  4  1 -1</clus>
<clus scale="   59.829">  1  6  2 -1</clus>
<clus scale="   98.802">  1  3  2 -1</clus>
<clus scale="   42.052">  2  3  1 -1</clus>
</clustering>
</event>
<event>
 6    0  0.4945982E+002  0.2178396E+03  0.7546771E-02  0.1135504E+00
          1   -1    0    0  503    0 -0.00000000000E+00  0.00000000000E+00  0.85833976594E+03  0.85833976594E+03  0.00000000000E+00 0. -1.
         21   -1    0    0  504  502  0.00000000000E+00 -0.00000000000E+00 -0.16628133237E+03  0.16628133237E+03  0.00000000000E+00 0.  1.
         21    1    1    2  503  505 -0.13967392372E+03 -0.72491876806E+02 -0.14204485212E+02  0.15800520425E+03  0.00000000000E+00 0.  1.
         21    1    1    2  504  501  0.22758884818E+02 -0.21067364685E+02  0.13772758986E+02  0.33933605512E+02  0.00000000000E+00 0.  1.
         21    1    1    2  505  502 -0.43624196768E+02 -0.41171433320E+02 -0.39140334486E+02  0.71624878701E+02  0.00000000000E+00 0.  1.
          1    1    1    2  501    0  0.16053923567E+03  0.13473067481E+03  0.73163049427E+03  0.76105740984E+03  0.00000000000E+00 0. -1.
<scales pt_clust_3="36.47947" pt_clust_4="31.01291" pt_clust_5="36.47947" pt_clust_6="209.96982"></scales>
<clustering>
<clus scale="   31.013">  2  4  1 -1</clus>
<clus scale="   36.479">  3  5 -1 -1</clus>
<clus scale="  209.970">  1  6  2 -1</clus>
<clus scale="   31.013">  2  3  1 -1</clus>
</clustering>
</event>
<event>
 6    0  0.4945982E+002  0.1338110E+03  0.7546771E-02  0.1221908E+00
         21   -1    0    0  501  502  0.00000000000E+00  0.00000000000E+00  0.17147712850E+02  0.17147712850E+02  0.00000000000E+00 0.  1.
          2   -1    0    0  503    0 -0.00000000000E+00 -0.00000000000E+00 -0.36470771551E+04  0.36470771551E+04  0.00000000000E+00 0. -1.
         21    1    1    2  503  504 -0.14373640936E+03 -0.11928757566E+02 -0.71141676227E+03  0.72588997807E+03  0.00000000000E+00 0.  1.
         21    1    1    2  504  505  0.33000801952E+02 -0.46040702262E+02 -0.12144985310E+03  0.13401069365E+03  0.00000000000E+00 0.  1.
         21    1    1    2  505  502 -0.19909467735E+02  0.44695076991E+02 -0.31380033566E+03  0.31759201418E+03  0.00000000000E+00 0.  1.
          2    1    1    2  501    0  0.13064507514E+03  0.13274382838E+02 -0.24832624912E+04  0.24867321821E+04  0.00000000000E+00 0. -1.
<scales pt_clust_3="133.81097" pt_clust_4="37.13381" pt_clust_5="48.92890" pt_clust_6="14000.00000"></scales>
<clustering>
<clus scale="   48.929">  1  5  2 -1</clus>
<clus scale="   37.134">  1  4  2 -1</clus>
<clus scale="  133.811">  1  3  2 -1</clus>
<clus scale="   48.929">  1  3  2 -1</clus>
</clustering>
</event>
<event>
 6    0  0.4945982E+002  0.1510813E+03  0.7546771E-02  0.1199151E+00
         21   -1    0    0  504  502  0.00000000000E+00  0.00000000000E+00  0.78889803509E+02  0.78889803509E+02  0.00000000000E+00 0. -1.
         -1   -1    0    0    0  501 -0.00000000000E+00 -0.00000000000E+00 -0.25039554925E+04  0.25039554925E+04  0.00000000000E+00 0. -1.
         21    1    1    2  503  505  0.67420863078E+02 -0.30021555682E+02 -0.38370559675E+02  0.83181526997E+02  0.00000000000E+00 0. -1.
         21    1    1    2  504  501 -0.12789698564E+02 -0.77716220041E+02 -0.21776086479E+02  0.81716492761E+02  0.00000000000E+00 0. -1.
         21    1    1    2  505  502  0.33070653265E+02 -0.10364461486E+02  0.11852703611E+02  0.36627540897E+02  0.00000000000E+00 0. -1.
         -1    1    1    2    0  503 -0.87701817779E+02  0.11810223721E+03 -0.23767717464E+04  0.23813197353E+04  0.00000000000E+00 0. -1.
<scales pt_clust_3="30.03798" pt_clust_4="78.76158" pt_clust_5="30.03798" pt_clust_6="144.58258"></scales>
<clustering>
<clus scale="   30.038">  3  5 -1 -1</clus>
<clus scale="   78.762">  1  4  2 -1</clus>
<clus scale="  144.583">  2  6  1 -1</clus>
<clus scale="   78.762">  1  3  2 -1</clus>
</clustering>
</event>
<event>
 6    0  0.4945982E+002  0.1404226E+03  0.7546771E-02  0.1212761E+00
         -3   -1    0    0    0  501 -0.00000000000E+00  0.00000000000E+00  0.34034522412E+04  0.34034522412E+04  0.00000000000E+00 0. -1.
         21   -1    0    0  503  502  0.00000000000E+00 -0.00000000000E+00 -0.27345683917E+02  0.27345683917E+02  0.00000000000E+00 0.  1.
         21    1    1    2  503  505 -0.49152920089E+02 -0.95808358632E+02  0.13609847196E+03  0.17354551336E+03  0.00000000000E+00 0.  1.
         21    1    1    2  504  502 -0.74534374727E+02  0.38001834409E+01  0.22205358895E+03  0.23425970796E+03  0.00000000000E+00 0. -1.
         21    1    1    2  505  501  0.36906553603E+02  0.24396008717E+02  0.35198832732E+03  0.35475772227E+03  0.00000000000E+00 0. -1.
         -3    1    1    2    0  504  0.86780741212E+02  0.67612166474E+02  0.26659661691E+04  0.26682349816E+04  0.00000000000E+00 0. -1.
<scales pt_clust_3="140.42263" pt_clust_4="71.99372" pt_clust_5="44.24092" pt_clust_6="14000.00000"></scales>
<clustering>
<clus scale="   44.241">  1  5  2 -1</clus>
<clus scale="   71.994">  2  4  1 -1</clus>
<clus scale="  140.423">  2  3  1 -1</clus>
<clus scale="   71.994">  2  3  1 -1</clus>
</clustering>
</event>
<event>
 6    0  0.4945982E+002  0.7353532E+02  0.7546771E-02  0.1348468E+00
         21   -1    0    0  503  502  0.00000000000E+00  0.00000000000E+00  0.57153274383E+02  0.57153274383E+02  0.00000000000E+00 0.  1.
          2   -1    0    0  505    0 -0.00000000000E+00 -0.00000000000E+00 -0.43983823486E+03  0.43983823486E+03  0.00000000000E+00 0. -1.
         21    1    1    2  503  501  0.49951616883E+02 -0.41077386593E+02 -0.52779143784E+02  0.83475467876E+02  0.00000000000E+00 0.  1.
         21    1    1    2  504  502 -0.51322682487E+02 -0.43236857615E+01 -0.47482513357E+02  0.70052131095E+02  0.00000000000E+00 0.  1.
         21    1    1    2  505  504 -0.52223669604E+02  0.87700186517E+02 -0.79549491111E+02  0.12940925747E+03  0.00000000000E+00 0.  1.
          2    1    1    2  501    0  0.53594735209E+02 -0.42299114163E+02 -0.20287381222E+03  0.21405465280E+03  0.00000000000E+00 0. -1.
<scales pt_clust_3="53.69103" pt_clust_4="51.50449" pt_clust_5="73.53532" pt_clust_6="14000.00000"></scales>
<clustering>
<clus scale="   51.504">  1  4  2 -1</clus>
<clus scale="   53.691">  1  3  2 -1</clus>
<clus scale="   73.535">  1  5  2 -1</clus>
<clus scale="   51.504">  1  3  2 -1</clus>
</clustering>
</event>
<event>
 6    0  0.4945982E+002  0.7721510E+02  0.7546771E-02  0.1337146E+00
         21   -1    0    0  504  502  0.00000000000E+00  0.00000000000E+00  0.44133627876E+03  0.44133627876E+03  0.00000000000E+00 0.  1.
          1   -1    0    0  503    0 -0.00000000000E+00 -0.00000000000E+00 -0.32749107250E+03  0.32749107250E+03  0.00000000000E+00 0. -1.
         21    1    1    2  503  505 -0.11760105246E+02  0.11330588977E+03 -0.21449390961E+02  0.11591635391E+03  0.00000000000E+00 0. -1.
         21    1    1    2  504  501 -0.65153249670E+02 -0.35850129945E+02  0.25505727928E+02  0.78617554762E+02  0.00000000000E+00 0. -1.
         21    1    1    2  505  502  0.66449497338E+02 -0.40011051110E+02  0.33596362249E+03  0.34480135664E+03  0.00000000000E+00 0.  1.
          1    1    1    2  501    0  0.10463857578E+02 -0.37444708716E+02 -0.22617475320E+03  0.22949208594E+03  0.00000000000E+00 0. -1.
<scales pt_clust_3="14000.00000" pt_clust_4="77.39249" pt_clust_5="77.21510" pt_clust_6="38.87928"></scales>
<clustering>
<clus scale="   38.879">  2  6  1 -1</clus>
<clus scale="   77.392">  2  4  1 -1</clus>
<clus scale="   77.215">  1  5  2 -1</clus>
<clus scale="   77.215">  1  3  2 -1</clus>
</clustering>
</event>
<event>
 6    0  0.4945982E+002  0.7067811E+02  0.7546771E-02  0.1357802E+00
          1   -1    0    0  504    0 -0.00000000000E+00  0.00000000000E+00  0.48956528121E+03  0.48956528121E+03  0.00000000000E+00 0.  1.
         21   -1    0    0  503  502  0.00000000000E+00 -0.00000000000E+00 -0.98141688415E+03  0.98141688415E+03  0.00000000000E+00 0. -1.
         21    1    1    2  503  501  0.70249709744E+02  0.71591601780E+01 -0.90368338773E+03  0.90643805114E+03  0.00000000000E+00 0. -1.
         21    1    1    2  504  505  0.38668448429E+02  0.20827662014E+02 -0.14461343592E+02  0.46240359723E+02  0.00000000000E+00 0. -1.
         21    1    1    2  505  502 -0.25270725884E+02  0.54589697189E+02 -0.14691480062E+02  0.61923212225E+02  0.00000000000E+00 0. -1.
          1    1    1    2  501    0 -0.83647432289E+02 -0.82576519381E+02  0.44098460844E+03  0.45638054227E+03  0.00000000000E+00 0.  1.
<scales pt_clust_3="14000.00000" pt_clust_4="43.92084" pt_clust_5="60.32722" pt_clust_6="70.67811"></scales>
<clustering>
<clus scale="   43.921">  1  4  2 -1</clus>
<clus scale="   60.327">  1  5  2 -1</clus>
<clus scale="   70.678">  1  6  2 -1</clus>
<clus scale="   70.678">  2  3  1 -1</clus>
</clustering>
</event>
<event>
 6    0  0.4945982E+002  0.8663312E+02  0.7546771E-02  0.1311216E+00
          2   -1    0    0  503    0 -0.00000000000E+00  0.00000000000E+00  0.90736072208E+03  0.90736072208E+03  0.00000000000E+00 0.  1.
         21   -1    0    0  504  502  0.00000000000E+00 -0.00000000000E+00 -0.23342595455E+03  0.23342595455E+03  0.00000000000E+00 0.  1.
         21    1    1    2  503  505 -0.24217378735E+02  0.17993834067E+02  0.45762895959E+02  0.54813339104E+02  0.00000000000E+00 0.  1.
         21    1    1    2  504  501 -0.41579305905E+02 -0.28088638973E+02 -0.20448363719E+03  0.21055015602E+03  0.00000000000E+00 0.  1.
         21    1    1    2  505  502 -0.53039450714E+02 -0.36051096235E+02  0.64725021901E+03  0.65041964214E+03  0.00000000000E+00 0.  1.
          2    1    1    2  501    0  0.11883613535E+03  0.46145901141E+02  0.18540528976E+03  0.22500353937E+03  0.00000000000E+00 0.  1.
<scales pt_clust_3="30.17051" pt_clust_4="50.21326" pt_clust_5="14000.00000" pt_clust_6="86.63312"></scales>
<clustering>
<clus scale="   30.171">  1  3  2 -1</clus>
<clus scale="   50.213">  2  4  1 -1</clus>
<clus scale="   86.633">  2  6  1 -1</clus>
<clus scale="   50.213">  2  3  1 -1</clus>
</clustering>
</event>
<event>
 6    0  0.4945982E+002  0.6709098E+02  0.7546771E-02  0.1370274E+00
          2   -1    0    0  503    0 -0.00000000000E+00  0.00000000000E+00  0.33787119533E+04  0.33787119533E+04  0.00000000000E+00 0.  1.
         21   -1    0    0  505  502  0.00000000000E+00 -0.00000000000E+00 -0.80229056774E+02  0.80229056774E+02  0.00000000000E+00 0. -1.
         21    1    1    2  503  502  0.60823994663E+02 -0.53826860866E+02  0.81185097326E+02  0.11483862288E+03  0.00000000000E+00 0.  1.
         21    1    1    2  504  501  0.10043765576E+02  0.61862765513E+02  0.59175763847E+02  0.86195417574E+02  0.00000000000E+00 0. -1.
         21    1    1    2  505  504 -0.46881277509E+02  0.43730790763E+02 -0.28935734254E+02  0.70338559542E+02  0.00000000000E+00 0. -1.
          2    1    1    2  501    0 -0.23986482730E+02 -0.51766695411E+02  0.31870577696E+04  0.31875684101E+04  0.00000000000E+00 0.  1.
<scales pt_clust_3="14000.00000" pt_clust_4="42.21420" pt_clust_5="67.09098" pt_clust_6="57.05385"></scales>
<clustering>
<clus scale="   57.054">  1  6  2 -1</clus>
<clus scale="   42.214">  1  4  2 -1</clus>
<clus scale="   67.091">  2  5  1 -1</clus>
<clus scale="   67.091">  2  3  1 -1</clus>
</clustering>
</event>
<event>
 6    0  0.4945982E+002  0.1543007E+03  0.7546771E-02  0.1195286E+00
         21   -1    0    0  503  502  0.00000000000E+00  0.00000000000E+00  0.10165031323E+03  0.10165031323E+03  0.00000000000E+00 0. -1.
          2   -1    0    0  505    0 -0.00000000000E+00 -0.00000000000E+00 -0.72541102350E+03  0.72541102350E+03  0.00000000000E+00 0.  1.
         21    1    1    2  503  504 -0.18402056783E+02  0.49989545527E+02 -0.57349022126E+02  0.78271966211E+02  0.00000000000E+00 0.  1.
         21    1    1    2  504  501  0.47746918582E+02  0.64999681186E+02 -0.37590290151E+02  0.88981777360E+02  0.00000000000E+00 0. -1.
         21    1    1    2  505  502  0.10657066312E+03 -0.67170922359E+01 -0.38801400582E+01  0.10685261370E+03  0.00000000000E+00 0. -1.
          2    1    1    2  501    0 -0.13591552492E+03 -0.10827213448E+03 -0.52494125794E+03  0.55295497946E+03  0.00000000000E+00 0.  1.
<scales pt_clust_3="53.26904" pt_clust_4="89.81136" pt_clust_5="14000.00000" pt_clust_6="154.30072"></scales>
<clustering>
<clus scale="   53.269">  1  3  2 -1</clus>
<clus scale="   89.811">  1  4  2 -1</clus>
<clus scale="  154.301">  2  6  1 -1</clus>
<clus scale="   53.269">  1  3  2 -1</clus>
</clustering>
</event>
<event>
 6    0  0.4945982E+002  0.6835669E+02  0.7546771E-02  0.1365772E+00
         21   -1    0    0  505  502  0.00000000000E+00  0.00000000000E+00  0.29110134579E+03  0.29110134579E+03  0.00000000000E+00 0.  1.
          1   -1    0    0  504    0 -0.00000000000E+00 -0.00000000000E+00 -0.13980403748E+04  0.13980403748E+04  0.00000000000E+00 0.  1.
         21    1    1    2  503  502  0.33996788795E+02  0.51513747310E+02  0.22449721118E+03  0.23282707239E+03  0.00000000000E+00 0.  1.
         21    1    1    2  504  503 -0.12351641103E+03  0.23419033518E+02 -0.40534205587E+02  0.13209003274E+03  0.00000000000E+00 0. -1.
         21    1    1    2  505  501  0.29279528556E+02 -0.44877724054E+02 -0.29773700303E+02  0.61300686280E+02  0.00000000000E+00 0. -1.
          1    1    1    2  501    0  0.60240093683E+02 -0.30055056773E+02 -0.12611283343E+04  0.12629239292E+04  0.00000000000E+00 0.  1.
<scales pt_clust_3="60.02723" pt_clust_4="14000.00000" pt_clust_5="53.58452" pt_clust_6="68.35669"></scales>
<clustering>
<clus scale="   53.585">  1  5  2 -1</clus>
<clus scale="   60.027">  1  3  2 -1</clus>
<clus scale="   68.357">  2  6  1 -1</clus>
<clus scale="   53.585">  1  3  2 -1</clus>
</clustering>
</event>
<event>
 6    0  0.4945982E+002  0.7694083E+02  0.7546771E-02  0.1337964E+00
          2   -1    0    0  503    0 -0.00000000000E+00  0.00000000000E+00  0.93660309588E+02  0.93660309588E+02  0.00000000000E+00 0.  1.
         21   -1    0    0  504  502  0.00000000000E+00 -0.00000000000E+00 -0.23151160815E+03  0.23151160815E+03  0.00000000000E+00 0.  1.
         21    1    1    2  503  505 -0.53941632885E+02 -0.72218521396E+02 -0.18954325824E+02  0.92111242844E+02  0.00000000000E+00 0.  1.
         21    1    1    2  504  501  0.86592257597E+02  0.32695491115E+02 -0.98977594796E+02  0.13551301962E+03  0.00000000000E+00 0.  1.
         21    1    1    2  505  502 -0.34638160573E+02 -0.57505212132E+01 -0.35205125509E+02  0.49721942080E+02  0.00000000000E+00 0.  1.
          2    1    1    2  501    0  0.19875358609E+01  0.45273551494E+02  0.15285747567E+02  0.47825713193E+02  0.00000000000E+00 0.  1.
<scales pt_clust_3="76.94083" pt_clust_4="14000.00000" pt_clust_5="35.11226" pt_clust_6="44.78967"></scales>
<clustering>
<clus scale="   35.112">  2  5  1 -1</clus>
<clus scale="   44.790">  1  6  2 -1</clus>
<clus scale="   76.941">  1  3  2 -1</clus>
<clus scale="   35.112">  2  3  1 -1</clus>
</clustering>
</event>
<event>
 6    0  0.4945982E+002  0.8734079E+02  0.7546771E-02  0.1309422E+00
         21   -1    0    0  505  502  0.00000000000E+00  0.00000000000E+00  0.93376417278E+03  0.93376417278E+03  0.00000000000E+00 0. -1.
          1   -1    0    0  504    0 -0.00000000000E+00 -0.00000000000E+00 -0.11070091958E+04  0.11070091958E+04  0.00000000000E+00 0.  1.
         21    1    1    2  503  502  0.31852048339E+02 -0.44496911421E+02  0.61905124250E+03  0.62146517919E+03  0.00000000000E+00 0. -1.
         21    1    1    2  504  503 -0.22592852685E+02  0.82649247885E+02  0.72659877933E+02  0.11234230294E+03  0.00000000000E+00 0. -1.
         21    1    1    2  505  501  0.41332014449E+02 -0.55889925186E+02  0.21485740568E+03  0.22582232824E+03  0.00000000000E+00 0. -1.
          1    1    1    2  501    0 -0.50591210103E+02  0.17737588722E+02 -0.10798135491E+04  0.10811435582E+04  0.00000000000E+00 0.  1.
<scales pt_clust_3="52.74509" pt_clust_4="14000.00000" pt_clust_5="87.34079" pt_clust_6="53.61056"></scales>
<clustering>
<clus scale="   53.611">  2  6  1 -1</clus>
<clus scale="   52.745">  1  3  2 -1</clus>
<clus scale="   87.341">  1  5  2 -1</clus>
<clus scale="   52.745">  1  3  2 -1</clus>
</clustering>
</event>
<event>
 6    0  0.4945982E+002  0.1554751E+03  0.7546771E-02  0.1193902E+00
         21   -1    0    0  501  502  0.00000000000E+00  0.00000000000E+00  0.48324046728E+03  0.48324046728E+03  0.00000000000E+00 0. -1.
          4   -1    0    0  505    0 -0.00000000000E+00 -0.00000000000E+00 -0.51115230203E+03  0.51115230203E+03  0.00000000000E+00 0.  1.
         21    1    1    2  503  504  0.14477568306E+03  0.15000951589E+03 -0.57337036230E+02  0.21621838263E+03  0.00000000000E+00 0. -1.
         21    1    1    2  504  502 -0.48855772156E+02 -0.14335925315E+03  0.35774673410E+03  0.38848614865E+03  0.00000000000E+00 0. -1.
         21    1    1    2  505  503 -0.18626904398E+02  0.86415190283E+02 -0.15245050972E+03  0.17622628803E+03  0.00000000000E+00 0. -1.
          4    1    1    2  501    0 -0.77293006504E+02 -0.93065453025E+02 -0.17587102289E+03  0.21346194999E+03  0.00000000000E+00 0.  1.
<scales pt_clust_3="14000.00000" pt_clust_4="155.47513" pt_clust_5="88.39992" pt_clust_6="98.41449"></scales>
<clustering>
<clus scale="   88.400">  2  5  1 -1</clus>
<clus scale="   98.414">  2  6  1 -1</clus>
<clus scale="  155.475">  1  4  2 -1</clus>
<clus scale="  155.475">  1  3  2 -1</clus>
</clustering>
</event>
<event>
 6    0  0.4945982E+002  0.9916485E+02  0.7546771E-02  0.1282062E+00
         21   -1    0    0  504  502  0.00000000000E+00  0.00000000000E+00  0.12536728208E+03  0.12536728208E+03  0.00000000000E+00 0.  1.
          1   -1    0    0  503    0 -0.00000000000E+00 -0.00000000000E+00 -0.84053648332E+03  0.84053648332E+03  0.00000000000E+00 0. -1.
         21    1    1    2  503  505  0.26888452801E+02 -0.74877610334E+02 -0.59326599069E+02  0.99243593146E+02  0.00000000000E+00 0.  1.
         21    1    1    2  504  501 -0.46838884812E+02 -0.49875253864E+02 -0.46781065995E+02  0.82884800863E+02  0.00000000000E+00 0.  1.
         21    1    1    2  505  502  0.58005761184E+02  0.10479731955E+03  0.45259291174E+02  0.12804510905E+03  0.00000000000E+00 0.  1.
          1    1    1    2  501    0 -0.38055329173E+02  0.19955544653E+02 -0.65432082735E+03  0.65573026234E+03  0.00000000000E+00 0. -1.
<scales pt_clust_3="67.19406" pt_clust_4="99.16485" pt_clust_5="14000.00000" pt_clust_6="42.97013"></scales>
<clustering>
<clus scale="   42.970">  2  6  1 -1</clus>
<clus scale="   67.194">  2  3  1 -1</clus>
<clus scale="   99.165">  2  4  1 -1</clus>
<clus scale="   99.165">  1  3  2 -1</clus>
</clustering>
</event>
<event>
 6    0  0.4945982E+002  0.1745011E+03  0.7546771E-02  0.1173234E+00
         21   -1    0    0  504  502  0.00000000000E+00  0.00000000000E+00  0.65100381326E+02  0.65100381326E+02  0.00000000000E+00 0.  1.
          2   -1    0    0  503    0 -0.00000000000E+00 -0.00000000000E+00 -0.11415429904E+04  0.11415429904E+04  0.00000000000E+00 0. -1.
         21    1    1    2  503  505 -0.43459081463E+01 -0.40166573752E+02 -0.65022406151E+02  0.76551641826E+02  0.00000000000E+00 0. -1.
         21    1    1    2  504  501  0.71129947551E+01  0.35729210494E+02 -0.22982662624E+00  0.36431085589E+02  0.00000000000E+00 0.  1.
         21    1    1    2  505  502  0.75400196934E+02 -0.13504033948E+03 -0.14225287826E+03  0.21013558566E+03  0.00000000000E+00 0.  1.
          2    1    1    2  501    0 -0.78167283543E+02  0.13947770274E+03 -0.86893749808E+03  0.88352505870E+03  0.00000000000E+00 0. -1.
<scales pt_clust_3="30.15173" pt_clust_4="36.43036" pt_clust_5="30.15173" pt_clust_6="164.22631"></scales>
<clustering>
<clus scale="   30.152">  3  5 -1 -1</clus>
<clus scale="   36.430">  1  4  2 -1</clus>
<clus scale="  164.226">  2  6  1 -1</clus>
<clus scale="   36.430">  1  3  2 -1</clus>
</clustering>
</event>
<event>
 6    0  0.4945982E+002  0.9759073E+02  0.7546771E-02  0.1285445E+00
          2   -1    0    0  505    0 -0.00000000000E+00  0.00000000000E+00  0.21310618468E+04  0.21310618468E+04  0.00000000000E+00 0.  1.
         21   -1    0    0  503  502  0.00000000000E+00 -0.00000000000E+00 -0.63086710264E+02  0.63086710264E+02  0.00000000000E+00 0. -1.
         21    1    1    2  503  504 -0.25597976248E+02 -0.24588820533E+02 -0.26891327201E+02  0.44531000009E+02  0.00000000000E+00 0. -1.
         21    1    1    2  504  501 -0.34377711220E+02  0.43608205680E+02  0.25963952956E+02  0.61299506397E+02  0.00000000000E+00 0. -1.
         21    1    1    2  505  502  0.20012802045E+01  0.67982102641E+02  0.13104769578E+03  0.14764508109E+03  0.00000000000E+00 0.  1.
          2    1    1    2  501    0  0.57974407263E+02 -0.87001487788E+02  0.19378548150E+04  0.19406729696E+04  0.00000000000E+00 0.  1.
<scales pt_clust_3="35.49460" pt_clust_4="57.96622" pt_clust_5="14000.00000" pt_clust_6="97.59073"></scales>
<clustering>
<clus scale="   35.495">  2  3  1 -1</clus>
<clus scale="   57.966">  2  4  1 -1</clus>
<clus scale="   97.591">  1  6  2 -1</clus>
<clus scale="   35.495">  2  3  1 -1</clus>
</clustering>
</event>
<event>
 6    0  0.4945982E+002  0.1501320E+03  0.7546771E-02  0.1200311E+00
         21   -1    0    0  504  502  0.00000000000E+00  0.00000000000E+00  0.90635352371E+03  0.90635352371E+03  0.00000000000E+00 0. -1.
          1   -1    0    0  505    0 -0.00000000000E+00 -0.00000000000E+00 -0.10707650789E+04  0.10707650789E+04  0.00000000000E+00 0. -1.
         21    1    1    2  503  502 -0.55542653766E+02  0.14365976292E+03  0.76733827946E+03  0.78264369223E+03  0.00000000000E+00 0. -1.
         21    1    1    2  504  501  0.52074931703E+02 -0.11517864243E+03  0.37970703421E+02  0.13198368271E+03  0.00000000000E+00 0. -1.
         21    1    1    2  505  503  0.37961877865E+02 -0.10218929858E+02  0.37609150257E+02  0.54405687952E+02  0.00000000000E+00 0.  1.
          1    1    1    2  501    0 -0.34494155802E+02 -0.18262190637E+02 -0.10073296883E+04  0.10080855397E+04  0.00000000000E+00 0. -1.
<scales pt_clust_3="14000.00000" pt_clust_4="150.13197" pt_clust_5="35.68560" pt_clust_6="39.03017"></scales>
<clustering>
<clus scale="   39.030">  2  6  1 -1</clus>
<clus scale="   35.686">  2  5  1 -1</clus>
<clus scale="  150.132">  2  4  1 -1</clus>
<clus scale="  150.132">  1  3  2 -1</clus>
</clustering>
</event>
<event>
 6    0  0.4945982E+002  0.1604725E+03  0.7546771E-02  0.1188164E+00
         21   -1    0    0  505  502  0.00000000000E+00  0.00000000000E+00  0.32290779092E+03  0.32290779092E+03  0.00000000000E+00 0.  1.
          2   -1    0    0  503    0 -0.00000000000E+00 -0.00000000000E+00 -0.15622144772E+04  0.15622144772E+04  0.00000000000E+00 0. -1.
         21    1    1    2  503  504  0.61293809963E+02  0.12509038170E+02 -0.31813728691E+03  0.32422945656E+03  0.00000000000E+00 0.  1.
         21    1    1    2  504  502 -0.15705657181E+03  0.89051623527E+01  0.29814689696E+03  0.33710182561E+03  0.00000000000E+00 0.  1.
         21    1    1    2  505  501  0.46398884711E+02 -0.26635098921E+02 -0.53152396660E+03  0.53420970795E+03  0.00000000000E+00 0. -1.
          2    1    1    2  501    0  0.49363877139E+02  0.52208983982E+01 -0.68779232969E+03  0.68958127797E+03  0.00000000000E+00 0. -1.
<scales pt_clust_3="62.55723" pt_clust_4="156.35971" pt_clust_5="34.77110" pt_clust_6="34.77110"></scales>
<clustering>
<clus scale="   34.771">  5  6 -1 -1</clus>
<clus scale="   62.557">  2  3  1 -1</clus>
<clus scale="  156.360">  1  4  2 -1</clus>
<clus scale="  156.360">  1  3  2 -1</clus>
</clustering>
</event>
<event>
 6    0  0.4945982E+002  0.1020036E+03  0.7546771E-02  0.1276138E+00
          1   -1    0    0  505    0 -0.00000000000E+00  0.00000000000E+00  0.13509058806E+04  0.13509058806E+04  0.00000000000E+00 0.  1.
         21   -1    0    0  504  502  0.00000000000E+00 -0.00000000000E+00 -0.40461069391E+02  0.40461069391E+02  0.00000000000E+00 0.  1.
         21    1    1    2  503  502 -0.43465945757E+02 -0.97157880318E+02  0.11475720405E+03  0.15651887436E+03  0.00000000000E+00 0.  1.
         21    1    1    2  504  501  0.33570742813E+02  0.80311321943E+01  0.24402347154E+02  0.42272549059E+02  0.00000000000E+00 0.  1.
         21    1    1    2  505  503  0.29923462898E+02 -0.63543931401E+02  0.34894899859E+03  0.35594753611E+03  0.00000000000E+00 0.  1.
          1    1    1    2  501    0 -0.20028259953E+02  0.15267067953E+03  0.82233626143E+03  0.83662799047E+03  0.00000000000E+00 0.  1.
<scales pt_clust_3="14000.00000" pt_clust_4="34.51802" pt_clust_5="71.11707" pt_clust_6="102.00364"></scales>
<clustering>
<clus scale="   34.518">  2  4  1 -1</clus>
<clus scale="   71.117">  1  5  2 -1</clus>
<clus scale="  102.004">  1  6  2 -1</clus>
<clus scale="   34.518">  2  3  1 -1</clus>
</clustering>
</event>
<event>
 6    0  0.4945982E+002  0.9077510E+02  0.7546771E-02  0.1300985E+00
         21   -1    0    0  505  502  0.00000000000E+00  0.00000000000E+00  0.95239069615E+03  0.95239069615E+03  0.00000000000E+00 0.  1.
          2   -1    0    0  502    0 -0.00000000000E+00 -0.00000000000E+00 -0.17175780287E+03  0.17175780287E+03  0.00000000000E+00 0.  1.
         21    1    1    2  503  501  0.24868154220E+02 -0.82015026011E+02  0.21294534554E+03  0.22954435252E+03  0.00000000000E+00 0.  1.
         21    1    1    2  504  503 -0.70823755167E+02 -0.36761513473E+02  0.62143994756E+03  0.62654211478E+03  0.00000000000E+00 0.  1.
         21    1    1    2  505  504  0.12494917938E+02  0.32921522893E+02  0.90377135537E+02  0.96994722907E+02  0.00000000000E+00 0.  1.
          2    1    1    2  501    0  0.33460683009E+02  0.85855016591E+02 -0.14412953536E+03  0.17106730881E+03  0.00000000000E+00 0.  1.
<scales pt_clust_3="14000.00000" pt_clust_4="63.06478" pt_clust_5="35.21292" pt_clust_6="90.77510"></scales>
<clustering>
<clus scale="   35.213">  1  5  2 -1</clus>
<clus scale="   63.065">  1  4  2 -1</clus>
<clus scale="   90.775">  2  6  1 -1</clus>
<clus scale="   35.213">  1  3  2 -1</clus>
</clustering>
</event>
<event>
 6    0  0.4945982E+002  0.8540970E+02  0.7546771E-02  0.1314365E+00
         21   -1    0    0  504  502  0.00000000000E+00  0.00000000000E+00  0.12343648644E+03  0.12343648644E+03  0.00000000000E+00 0.  1.
          1   -1    0    0  505    0 -0.00000000000E+00 -0.00000000000E+00 -0.68414447961E+03  0.68414447961E+03  0.00000000000E+00 0. -1.
         21    1    1    2  503  502  0.78597627588E+01  0.63224337670E+02 -0.87211792023E+02  0.10800458052E+03  0.00000000000E+00 0. -1.
         21    1    1    2  504  501 -0.57797307692E+02 -0.71203175528E+02  0.82996319184E+02  0.12368835830E+03  0.00000000000E+00 0.  1.
         21    1    1    2  505  503  0.61738038434E+02 -0.22019697608E+02 -0.10867821568E+03  0.12691495986E+03  0.00000000000E+00 0. -1.
          1    1    1    2  501    0 -0.11800493501E+02  0.29998535466E+02 -0.44781430465E+03  0.44897306737E+03  0.00000000000E+00 0. -1.
<scales pt_clust_3="85.40970" pt_clust_4="14000.00000" pt_clust_5="56.28256" pt_clust_6="32.23606"></scales>
<clustering>
<clus scale="   32.236">  2  6  1 -1</clus>
<clus scale="   56.283">  2  5  1 -1</clus>
<clus scale="   85.410">  2  3  1 -1</clus>
<clus scale="   85.410">  1  3  2 -1</clus>
</clustering>
</event>
<event>
 6    0  0.4945982E+002  0.1747396E+03  0.7546771E-02  0.1172993E+00
         21   -1    0    0  503  502  0.00000000000E+00  0.00000000000E+00  0.88563637593E+02  0.88563637593E+02  0.00000000000E+00 0. -1.
          2   -1    0    0  504    0 -0.00000000000E+00 -0.00000000000E+00 -0.13340750015E+04  0.13340750015E+04  0.00000000000E+00 0.  1.
         21    1    1    2  503  505 -0.13064036348E+03  0.84194537284E+02 -0.74112794831E+02  0.17218690727E+03  0.00000000000E+00 0. -1.
         21    1    1    2  504  502  0.11311185300E+03 -0.87535582538E+02 -0.12033032690E+03  0.18691216405E+03  0.00000000000E+00 0. -1.
         21    1    1    2  505  501 -0.58880924003E+01  0.32134042589E+02 -0.39362881530E+02  0.51153717046E+02  0.00000000000E+00 0. -1.
          2    1    1    2  501    0  0.23416602876E+02 -0.28792997335E+02 -0.10117053606E+04  0.10123858507E+04  0.00000000000E+00 0.  1.
<scales pt_clust_3="31.86946" pt_clust_4="160.31834" pt_clust_5="31.86946" pt_clust_6="37.11299"></scales>
<clustering>
<clus scale="   31.869">  3  5 -1 -1</clus>
<clus scale="   37.113">  2  6  1 -1</clus>
<clus scale="  160.318">  1  4  2 -1</clus>
<clus scale="  160.318">  1  3  2 -1</clus>
</clustering>
</event>
<event>
 6    0  0.4945982E+002  0.2145139E+03  0.7546771E-02  0.1138041E+00
         21   -1    0    0  504  502  0.00000000000E+00  0.00000000000E+00  0.10477022999E+04  0.10477022999E+04  0.00000000000E+00 0. -1.
          2   -1    0    0  505    0 -0.00000000000E+00 -0.00000000000E+00 -0.10176248482E+04  0.10176248482E+04  0.00000000000E+00 0. -1.
         21    1    1    2  503  502  0.17575277056E+03 -0.17464955007E+03  0.12830882820E+03  0.27902447400E+03  0.00000000000E+00 0. -1.
         21    1    1    2  504  501 -0.69301502024E+01  0.38064811080E+02  0.82008509500E+03  0.82099727154E+03  0.00000000000E+00 0. -1.
         21    1    1    2  505  503 -0.10802547372E+03 -0.13151657901E+02 -0.18712642738E+03  0.21646886359E+03  0.00000000000E+00 0. -1.
          2    1    1    2  501    0 -0.60797146637E+02  0.14973639689E+03 -0.73119004410E+03  0.74883653902E+03  0.00000000000E+00 0. -1.
<scales pt_clust_3="14000.00000" pt_clust_4="38.69053" pt_clust_5="108.99885" pt_clust_6="214.51386"></scales>
<clustering>
<clus scale="   38.691">  1  4  2 -1</clus>
<clus scale="  108.999">  2  5  1 -1</clus>
<clus scale="  214.514">  2  6  1 -1</clus>
<clus scale="   38.691">  1  3  2 -1</clus>
</clustering>
</event>
<event>
 6    0  0.4945982E+002  0.9188932E+02  0.7546771E-02  0.1298340E+00
          2   -1    0    0  505    0 -0.00000000000E+00  0.00000000000E+00  0.29232315109E+04  0.29232315109E+04  0.00000000000E+00 0.  1.
         21   -1    0    0  501  502  0.00000000000E+00 -0.00000000000E+00 -0.18704747757E+02  0.18704747757E+02  0.00000000000E+00 0.  1.
         21    1    1    2  503  504 -0.11024959111E+03 -0.78489457309E+02  0.68419117986E+03  0.69744758788E+03  0.00000000000E+00 0.  1.
         21    1    1    2  504  502  0.38533794670E+02  0.37902375915E+02  0.65211504792E+02  0.84699373013E+02  0.00000000000E+00 0.  1.
         21    1    1    2  505  503  0.33266993249E+02 -0.24153531520E+02  0.26535230108E+03  0.26851802474E+03  0.00000000000E+00 0. -1.
          2    1    1    2  501    0  0.38448803189E+02  0.64740612914E+02  0.18897717774E+04  0.18912712730E+04  0.00000000000E+00 0.  1.
<scales pt_clust_3="91.88932" pt_clust_4="54.25375" pt_clust_5="41.11065" pt_clust_6="14000.00000"></scales>
<clustering>
<clus scale="   41.111">  1  5  2 -1</clus>
<clus scale="   54.254">  2  4  1 -1</clus>
<clus scale="   91.889">  2  3  1 -1</clus>
<clus scale="   54.254">  2  3  1 -1</clus>
</clustering>
</event>
<event>
 6    0  0.4945982E+002  0.1461045E+03  0.7546771E-02  0.1205343E+00
          2   -1    0    0  503    0 -0.00000000000E+00  0.00000000000E+00  0.14993397119E+03  0.14993397119E+03  0.00000000000E+00 0. -1.
         21   -1    0    0  505  502  0.00000000000E+00 -0.00000000000E+00 -0.24624940535E+03  0.24624940535E+03  0.00000000000E+00 0. -1.
         21    1    1    2  503  504  0.11062004286E+02  0.42639650301E+02 -0.68392799730E+01  0.44578957673E+02  0.00000000000E+00 0. -1.
         21    1    1    2  504  502  0.66773337130E+02  0.43925080796E+02 -0.72769706843E+02  0.10809033957E+03  0.00000000000E+00 0. -1.
         21    1    1    2  505  501 -0.14296626955E+02  0.40689326221E+02 -0.77610311598E+02  0.88788373546E+02  0.00000000000E+00 0. -1.
          2    1    1    2  501    0 -0.63538714461E+02 -0.12725405732E+03  0.60903864247E+02  0.15472570575E+03  0.00000000000E+00 0. -1.
<scales pt_clust_3="43.80500" pt_clust_4="43.80500" pt_clust_5="43.12789" pt_clust_6="133.89544"></scales>
<clustering>
<clus scale="   43.128">  2  5  1 -1</clus>
<clus scale="   43.805">  3  4 -1 -1</clus>
<clus scale="  133.895">  1  6  2 -1</clus>
<clus scale="   43.128">  2  3  1 -1</clus>
</clustering>
</event>
<event>
 6    0  0.4945982E+002  0.7337287E+02  0.7546771E-02  0.1348985E+00
         21   -1    0    0  505  502  0.00000000000E+00  0.00000000000E+00  0.45054718771E+03  0.45054718771E+03  0.00000000000E+00 0. -1.
          1   -1    0    0  503    0 -0.00000000000E+00 -0.00000000000E+00 -0.12379096274E+04  0.12379096274E+04  0.00000000000E+00 0. -1.
         21    1    1    2  503  504 -0.44623878691E+02  0.19761208744E+02 -0.72324428110E+01  0.49336641043E+02  0.00000000000E+00 0. -1.
         21    1    1    2  504  502 -0.16605918646E+02  0.40237621498E+02  0.49051432547E+02  0.65580986214E+02  0.00000000000E+00 0. -1.
         21    1    1    2  505  501  0.44327436246E+02 -0.13126011678E+03  0.35811823192E+03  0.38398282239E+03  0.00000000000E+00 0. -1.
          1    1    1    2  501    0  0.16902361091E+02  0.71261286533E+02 -0.11872996613E+04  0.11895563654E+04  0.00000000000E+00 0. -1.
<scales pt_clust_3="50.51443" pt_clust_4="43.52956" pt_clust_5="14000.00000" pt_clust_6="73.37287"></scales>
<clustering>
<clus scale="   43.530">  1  4  2 -1</clus>
<clus scale="   50.514">  1  3  2 -1</clus>
<clus scale="   73.373">  2  6  1 -1</clus>
<clus scale="   43.530">  1  3  2 -1</clus>
</clustering>
</event>
<event>
 6    0  0.4945982E+002  0.3351645E+03  0.7546771E-02  0.1068874E+00
          2   -1    0    0  505    0 -0.00000000000E+00  0.00000000000E+00  0.31936317467E+04  0.31936317467E+04  0.00000000000E+00 0. -1.
         21   -1    0    0  504  502  0.00000000000E+00 -0.00000000000E+00 -0.12557102255E+03  0.12557102255E+03  0.00000000000E+00 0.  1.
         21    1    1    2  503  501 -0.25633396663E+03 -0.58796735130E+02  0.30508212364E+03  0.40278935025E+03  0.00000000000E+00 0.  1.
         21    1    1    2  504  503 -0.83741843616E+02  0.15908720604E+03  0.99426081504E+02  0.20544337707E+03  0.00000000000E+00 0.  1.
         21    1    1    2  505  502 -0.11220700604E+02 -0.33811397563E+02  0.15433152191E+02  0.38823921926E+02  0.00000000000E+00 0.  1.
          2    1    1    2  501    0  0.35129651085E+03 -0.66479073349E+02  0.26481193668E+04  0.26721461200E+04  0.00000000000E+00 0. -1.
<scales pt_clust_3="335.16455" pt_clust_4="168.71119" pt_clust_5="35.62464" pt_clust_6="14000.00000"></scales>
<clustering>
<clus scale="   35.625">  2  5  1 -1</clus>
<clus scale="  168.711">  2  4  1 -1</clus>
<clus scale="  335.165">  2  3  1 -1</clus>
<clus scale="   35.625">  2  3  1 -1</clus>
</clustering>
</event>
<event>
 6    0  0.4945982E+002  0.1662357E+03  0.7546771E-02  0.1181831E+00
         21   -1    0    0  505  502  0.00000000000E+00  0.00000000000E+00  0.20810144713E+03  0.20810144713E+03  0.00000000000E+00 0. -1.
         -1   -1    0    0    0  501 -0.00000000000E+00 -0.00000000000E+00 -0.92815385068E+03  0.92815385068E+03  0.00000000000E+00 0. -1.
         21    1    1    2  503  502 -0.36423916855E+02 -0.31632851890E+02 -0.26095767981E+02  0.54848228269E+02  0.00000000000E+00 0.  1.
         21    1    1    2  504  501  0.73451796503E+02  0.49595378776E+02 -0.17876323888E+03  0.19952735046E+03  0.00000000000E+00 0.  1.
         21    1    1    2  505  504 -0.13188893718E+03 -0.27536274385E+02  0.15475109132E+03  0.20518488838E+03  0.00000000000E+00 0. -1.
         -1    1    1    2    0  503  0.94861057528E+02  0.95737474989E+01 -0.66994448800E+03  0.67669483069E+03  0.00000000000E+00 0. -1.
<scales pt_clust_3="48.24250" pt_clust_4="86.06184" pt_clust_5="14000.00000" pt_clust_6="166.23568"></scales>
<clustering>
<clus scale="   48.243">  1  3  2 -1</clus>
<clus scale="   86.062">  2  4  1 -1</clus>
<clus scale="  166.236">  2  6  1 -1</clus>
<clus scale="   48.243">  1  3  2 -1</clus>
</clustering>
</event>
<event>
 6    0  0.4945982E+002  0.1112358E+03  0.7546771E-02  0.1258298E+00
         21   -1    0    0  503  502  0.00000000000E+00  0.00000000000E+00  0.46237417581E+03  0.46237417581E+03  0.00000000000E+00 0.  1.
          2   -1    0    0  505    0 -0.00000000000E+00 -0.00000000000E+00 -0.71215000854E+03  0.71215000854E+03  0.00000000000E+00 0.  1.
         21    1    1    2  503  501  0.51659269094E+02  0.44790939512E+02 -0.75925931928E+02  0.10217463230E+03  0.00000000000E+00 0.  1.
         21    1    1    2  504  502 -0.34979558747E+02 -0.44635371640E+02  0.34924205564E+03  0.35381619431E+03  0.00000000000E+00 0.  1.
         21    1    1    2  505  504 -0.10101764230E+02 -0.11123797945E+03  0.58709892022E+02  0.12618551871E+03  0.00000000000E+00 0.  1.
          2    1    1    2  501    0 -0.65779461169E+01  0.11108241158E+03 -0.58180184846E+03  0.59234783903E+03  0.00000000000E+00 0.  1.
<scales pt_clust_3="61.79519" pt_clust_4="56.70878" pt_clust_5="14000.00000" pt_clust_6="111.23581"></scales>
<clustering>
<clus scale="   56.709">  1  4  2 -1</clus>
<clus scale="   61.795">  1  3  2 -1</clus>
<clus scale="  111.236">  2  6  1 -1</clus>
<clus scale="   56.709">  1  3  2 -1</clus>
</clustering>
</event>
<event>
 6    0  0.4945982E+002  0.1024924E+03  0.7546771E-02  0.1275140E+00
         21   -1    0    0  503  502  0.00000000000E+00  0.00000000000E+00  0.10412054491E+03  0.10412054491E+03  0.00000000000E+00 0.  1.
          2   -1    0    0  505    0 -0.00000000000E+00 -0.00000000000E+00 -0.25758043318E+04  0.25758043318E+04  0.00000000000E+00 0.  1.
         21    1    1    2  503  504  0.51640272943E+01 -0.30925679096E+02  0.16634178552E+02  0.35493107803E+02  0.00000000000E+00 0. -1.
         21    1    1    2  504  501  0.10602848807E+03  0.30534409417E+02  0.29307164860E+02  0.11416348082E+03  0.00000000000E+00 0.  1.
         21    1    1    2  505  502 -0.69922457474E+02 -0.11877317191E+02 -0.19930426835E+03  0.21154765918E+03  0.00000000000E+00 0.  1.
          2    1    1    2  501    0 -0.41270057891E+02  0.12268586870E+02 -0.23183208619E+04  0.23187206289E+04  0.00000000000E+00 0.  1.
<scales pt_clust_3="31.35386" pt_clust_4="102.49242" pt_clust_5="14000.00000" pt_clust_6="43.01985"></scales>
<clustering>
<clus scale="   31.354">  1  3  2 -1</clus>
<clus scale="   43.020">  2  6  1 -1</clus>
<clus scale="  102.492">  1  4  2 -1</clus>
<clus scale="   31.354">  1  3  2 -1</clus>
</clustering>
</event>
<event>
 6    0  0.4945982E+002  0.6793496E+02  0.7546771E-02  0.1367259E+00
          2   -1    0    0  503    0 -0.00000000000E+00  0.00000000000E+00  0.29670474012E+04  0.29670474012E+04  0.00000000000E+00 0.  1.
         21   -1    0    0  505  502  0.00000000000E+00 -0.00000000000E+00 -0.37934583759E+02  0.37934583759E+02  0.00000000000E+00 0.  1.
         21    1    1    2  503  504  0.11540366628E+03  0.57842611826E+02  0.30407580653E+03  0.33034205008E+03  0.00000000000E+00 0.  1.
         21    1    1    2  504  502 -0.17045973463E+01 -0.34710175807E+02  0.29172672190E+02  0.45373414676E+02  0.00000000000E+00 0.  1.
         21    1    1    2  505  501 -0.47352510844E+02 -0.22626739978E+02  0.26040195760E+02  0.58586017448E+02  0.00000000000E+00 0.  1.
          2    1    1    2  501    0 -0.66346558090E+02 -0.50569604100E+00  0.25698241430E+04  0.25706805028E+04  0.00000000000E+00 0.  1.
<scales pt_clust_3="67.93496" pt_clust_4="34.75201" pt_clust_5="63.70515" pt_clust_6="14000.00000"></scales>
<clustering>
<clus scale="   34.752">  2  4  1 -1</clus>
<clus scale="   63.705">  2  5  1 -1</clus>
<clus scale="   67.935">  2  3  1 -1</clus>
<clus scale="   34.752">  2  3  1 -1</clus>
</clustering>
</event>
<event>
 6    0  0.4945982E+002  0.1176875E+03  0.7546771E-02  0.1246961E+00
         21   -1    0    0  504  502  0.00000000000E+00  0.00000000000E+00  0.48392961514E+03  0.48392961514E+03  0.00000000000E+00 0. -1.
         -3   -1    0    0    0  501 -0.00000000000E+00 -0.00000000000E+00 -0.39264924735E+02  0.39264924735E+02  0.00000000000E+00 0. -1.
         21    1    1    2  503  501  0.19865541611E+02  0.39316065586E+02  0.51581670333E+02  0.67831124649E+02  0.00000000000E+00 0.  1.
         21    1    1    2  504  503  0.70394674909E+01  0.80500154653E+02  0.20290847962E+03  0.21840714297E+03  0.00000000000E+00 0. -1.
         21    1    1    2  505  502 -0.61089346777E+01 -0.97642866483E+02  0.18005313123E+03  0.20491602798E+03  0.00000000000E+00 0. -1.
         -3    1    1    2    0  505 -0.20796074424E+02 -0.22173353757E+02  0.10121409225E+02  0.32040244271E+02  0.00000000000E+00 0. -1.
<scales pt_clust_3="31.66607" pt_clust_4="31.66607" pt_clust_5="108.45754" pt_clust_6="30.39958"></scales>
<clustering>
<clus scale="   30.400">  2  6  1 -1</clus>
<clus scale="   31.666">  3  4 -1 -1</clus>
<clus scale="  108.458">  1  5  2 -1</clus>
<clus scale="  108.458">  1  3  2 -1</clus>
</clustering>
</event>
<event>
 6    0  0.4945982E+002  0.1220229E+03  0.7546771E-02  0.1239797E+00
         21   -1    0    0  503  502  0.00000000000E+00  0.00000000000E+00  0.55981243739E+03  0.55981243739E+03  0.00000000000E+00 0. -1.
          1   -1    0    0  505    0 -0.00000000000E+00 -0.00000000000E+00 -0.19258391814E+03  0.19258391814E+03  0.00000000000E+00 0.  1.
         21    1    1    2  503  501  0.59812185958E+01 -0.14645285429E+03  0.44150606078E+03  0.46520083320E+03  0.00000000000E+00 0. -1.
         21    1    1    2  504  502  0.34371085451E+01  0.30179877580E+02  0.30986989255E+02  0.43391614731E+02  0.00000000000E+00 0.  1.
         21    1    1    2  505  504 -0.52951522574E+02  0.12073826231E+03 -0.22267064385E+01  0.13185806744E+03  0.00000000000E+00 0. -1.
          1    1    1    2  501    0  0.43533195433E+02 -0.44652856050E+01 -0.10303782435E+03  0.11194584015E+03  0.00000000000E+00 0.  1.
<scales pt_clust_3="122.02295" pt_clust_4="30.37497" pt_clust_5="14000.00000" pt_clust_6="43.76526"></scales>
<clustering>
<clus scale="   30.375">  1  4  2 -1</clus>
<clus scale="   43.765">  2  6  1 -1</clus>
<clus scale="  122.023">  1  3  2 -1</clus>
<clus scale="   30.375">  1  3  2 -1</clus>
</clustering>
</event>
<event>
 6    0  0.4945982E+002  0.1977266E+03  0.7546771E-02  0.1151671E+00
          2   -1    0    0  505    0 -0.00000000000E+00  0.00000000000E+00  0.22339462818E+04  0.22339462818E+04  0.00000000000E+00 0.  1.
         21   -1    0    0  503  502  0.00000000000E+00 -0.00000000000E+00 -0.27815231693E+02  0.27815231693E+02  0.00000000000E+00 0.  1.
         21    1    1    2  503  501  0.25241194896E+02 -0.17700109748E+03  0.69334389408E+03  0.71602532210E+03  0.00000000000E+00 0.  1.
         21    1    1    2  504  502 -0.28844085791E+02  0.94566987368E+02  0.19049232218E+03  0.21462111079E+03  0.00000000000E+00 0.  1.
         21    1    1    2  505  504 -0.27442446356E+02  0.77803733413E+02  0.40676442393E+03  0.41504675082E+03  0.00000000000E+00 0.  1.
          2    1    1    2  501    0  0.31045337252E+02  0.46303766989E+01  0.91553040994E+03  0.91606832981E+03  0.00000000000E+00 0.  1.
<scales pt_clust_3="179.47045" pt_clust_4="75.43747" pt_clust_5="75.43747" pt_clust_6="31.38875"></scales>
<clustering>
<clus scale="   31.389">  1  6  2 -1</clus>
<clus scale="   75.437">  4  5 -1 -1</clus>
<clus scale="  179.470">  1  3  2 -1</clus>
<clus scale="  197.727">  2  3  1 -1</clus>
</clustering>
</event>
<event>
 6    0  0.4945982E+002  0.1016726E+03  0.7546771E-02  0.1276817E+00
         21   -1    0    0  505  502  0.00000000000E+00  0.00000000000E+00  0.56656614958E+03  0.56656614958E+03  0.00000000000E+00 0. -1.
          1   -1    0    0  503    0 -0.00000000000E+00 -0.00000000000E+00 -0.63774912311E+02  0.63774912311E+02  0.00000000000E+00 0.  1.
         21    1    1    2  503  504  0.12190573347E+03 -0.20474419564E+01  0.25732853888E+03  0.28475107865E+03  0.00000000000E+00 0. -1.
         21    1    1    2  504  502 -0.10434297557E+02 -0.33181810293E+02  0.19234739327E+03  0.19546720133E+03  0.00000000000E+00 0. -1.
         21    1    1    2  505  501 -0.74185823050E+02  0.33293895871E+02  0.71705769809E+02  0.10841465430E+03  0.00000000000E+00 0. -1.
          1    1    1    2  501    0 -0.37285612866E+02  0.19353563790E+01 -0.18590464685E+02  0.41708127605E+02  0.00000000000E+00 0.  1.
<scales pt_clust_3="14000.00000" pt_clust_4="34.78372" pt_clust_5="101.67262" pt_clust_6="37.62017"></scales>
<clustering>
<clus scale="   34.784">  1  4  2 -1</clus>
<clus scale="   37.620">  2  6  1 -1</clus>
<clus scale="  101.673">  2  5  1 -1</clus>
<clus scale="   34.784">  1  3  2 -1</clus>
</clustering>
</event>
<event>
 6    0  0.4945982E+002  0.2305318E+03  0.7546771E-02  0.1126266E+00
         21   -1    0    0  503  502  0.00000000000E+00  0.00000000000E+00  0.52004639379E+03  0.52004639379E+03  0.00000000000E+00 0.  1.
          2   -1    0    0  504    0 -0.00000000000E+00 -0.00000000000E+00 -0.23621869529E+03  0.23621869529E+03  0.00000000000E+00 0.  1.
         21    1    1    2  503  501 -0.49552981643E+02 -0.19846260490E+03  0.26788489923E+03  0.33705373869E+03  0.00000000000E+00 0.  1.
         21    1    1    2  504  505  0.75053343057E+02  0.19863333736E+03  0.79159852631E+02  0.22661528916E+03  0.00000000000E+00 0.  1.
         21    1    1    2  505  502  0.19082913723E+02  0.28728325527E+02  0.53900804635E+02  0.63990397905E+02  0.00000000000E+00 0. -1.
          2    1    1    2  501    0 -0.44583275138E+02 -0.28899057989E+02 -0.11711785800E+03  0.12860566331E+03  0.00000000000E+00 0.  1.
<scales pt_clust_3="216.68722" pt_clust_4="31.71197" pt_clust_5="31.71197" pt_clust_6="53.13025"></scales>
<clustering>
<clus scale="   31.712">  4  5 -1 -1</clus>
<clus scale="   53.130">  2  6  1 -1</clus>
<clus scale="  216.687">  1  3  2 -1</clus>
<clus scale="  216.687">  1  3  2 -1</clus>
</clustering>
</event>
<event>
 6    0  0.4945982E+002  0.6309281E+02  0.7546771E-02  0.1385293E+00
         -2   -1    0    0    0  501 -0.00000000000E+00  0.00000000000E+00  0.24720252528E+03  0.24720252528E+03  0.00000000000E+00 0.  1.
         21   -1    0    0  503  502  0.00000000000E+00 -0.00000000000E+00 -0.41750447079E+03  0.41750447079E+03  0.00000000000E+00 0. -1.
         21    1    1    2  503  504  0.26748507355E+02  0.21269980792E+02 -0.35643225813E+03  0.35806682249E+03  0.00000000000E+00 0. -1.
         21    1    1    2  504  501 -0.46006505384E+02  0.30609422802E+02  0.85196711177E+02  0.10154809155E+03  0.00000000000E+00 0.  1.
         21    1    1    2  505  502 -0.64056801995E+02 -0.48312731528E+02  0.86280213072E+01  0.80695951951E+02  0.00000000000E+00 0.  1.
         -2    1    1    2    0  505  0.83314800024E+02 -0.35666720650E+01  0.92305580146E+02  0.12439613008E+03  0.00000000000E+00 0.  1.
<scales pt_clust_3="34.17447" pt_clust_4="54.01635" pt_clust_5="63.09281" pt_clust_6="14000.00000"></scales>
<clustering>
<clus scale="   34.174">  2  3  1 -1</clus>
<clus scale="   54.016">  1  4  2 -1</clus>
<clus scale="   63.093">  2  5  1 -1</clus>
<clus scale="   34.174">  2  3  1 -1</clus>
</clustering>
</event>
<event>
 6    0  0.4945982E+002  0.1338669E+03  0.7546771E-02  0.1221828E+00
         21   -1    0    0  504  502  0.00000000000E+00  0.00000000000E+00  0.13447540412E+04  0.13447540412E+04  0.00000000000E+00 0.  1.
          1   -1    0    0  505    0 -0.00000000000E+00 -0.00000000000E+00 -0.72433741221E+02  0.72433741221E+02  0.00000000000E+00 0.  1.
         21    1    1    2  503  501 -0.11896352170E+03  0.91515017257E+01  0.48793933859E+03  0.50231550606E+03  0.00000000000E+00 0.  1.
         21    1    1    2  504  503 -0.11869019202E+02 -0.37024622981E+02  0.32243204006E+03  0.32476778902E+03  0.00000000000E+00 0.  1.
         21    1    1    2  505  502 -0.35061257315E+01  0.49650679853E+02  0.45081823721E+03  0.45355767652E+03  0.00000000000E+00 0.  1.
          1    1    1    2  501    0  0.13433866664E+03 -0.21777558597E+02  0.11130684091E+02  0.13654681080E+03  0.00000000000E+00 0.  1.
<scales pt_clust_3="133.86685" pt_clust_4="38.88054" pt_clust_5="34.39033" pt_clust_6="14000.00000"></scales>
<clustering>
<clus scale="   38.881">  1  4  2 -1</clus>
<clus scale="   34.390">  1  5  2 -1</clus>
<clus scale="  133.867">  1  3  2 -1</clus>
<clus scale="   38.881">  1  3  2 -1</clus>
</clustering>
</event>
<event>
 6    0  0.4945982E+002  0.7452176E+02  0.7546771E-02  0.1345358E+00
         21   -1    0    0  504  502  0.00000000000E+00  0.00000000000E+00  0.51985084442E+02  0.51985084442E+02  0.00000000000E+00 0.  1.
          1   -1    0    0  503    0 -0.00000000000E+00 -0.00000000000E+00 -0.89593536667E+03  0.89593536667E+03  0.00000000000E+00 0.  1.
         21    1    1    2  503  502  0.54524290711E+02  0.24763969037E+02 -0.90859085444E+02  0.10881877525E+03  0.00000000000E+00 0. -1.
         21    1    1    2  504  505 -0.42263598310E+02 -0.43376088764E+02 -0.49431365669E+02  0.78173887779E+02  0.00000000000E+00 0.  1.
         21    1    1    2  505  501  0.22072293036E+02  0.83867697541E+02 -0.44161525437E+02  0.97320178481E+02  0.00000000000E+00 0.  1.
          1    1    1    2  501    0 -0.34332985436E+02 -0.65255577813E+02 -0.65949830568E+03  0.66360760960E+03  0.00000000000E+00 0.  1.
<scales pt_clust_3="59.88449" pt_clust_4="42.54546" pt_clust_5="14000.00000" pt_clust_6="74.52176"></scales>
<clustering>
<clus scale="   59.884">  1  3  2 -1</clus>
<clus scale="   42.545">  1  4  2 -1</clus>
<clus scale="   74.522">  2  6  1 -1</clus>
<clus scale="   59.884">  1  3  2 -1</clus>
</clustering>
</event>
<event>
 6    0  0.4945982E+002  0.9828461E+02  0.7546771E-02  0.1283945E+00
         -4   -1    0    0    0  501 -0.00000000000E+00  0.00000000000E+00  0.66382655969E+03  0.66382655969E+03  0.00000000000E+00 0.  1.
         21   -1    0    0  504  502  0.00000000000E+00 -0.00000000000E+00 -0.37800062218E+03  0.37800062218E+03  0.00000000000E+00 0.  1.
         21    1    1    2  503  502 -0.70221803548E+02 -0.83122079959E+01 -0.23229871930E+03  0.24282275323E+03  0.00000000000E+00 0.  1.
         21    1    1    2  504  505 -0.20271114508E+02  0.36621489582E+02 -0.74168788641E+00  0.41864085844E+02  0.00000000000E+00 0.  1.
         21    1    1    2  505  501  0.12695612306E+03  0.18148525288E+01 -0.84116903530E+02  0.15230497146E+03  0.00000000000E+00 0.  1.
         -4    1    1    2    0  503 -0.36463205004E+02 -0.30124134115E+02  0.60298324823E+03  0.60483537133E+03  0.00000000000E+00 0.  1.
<scales pt_clust_3="98.28461" pt_clust_4="41.85752" pt_clust_5="14000.00000" pt_clust_6="47.27738"></scales>
<clustering>
<clus scale="   41.858">  2  4  1 -1</clus>
<clus scale="   47.277">  1  6  2 -1</clus>
<clus scale="   98.285">  2  3  1 -1</clus>
<clus scale="   41.858">  2  3  1 -1</clus>
</clustering>
</event>
<event>
 6    0  0.4945982E+002  0.8326924E+02  0.7546771E-02  0.1320022E+00
         21   -1    0    0  503  502  0.00000000000E+00  0.00000000000E+00  0.77901167590E+01  0.77901167590E+01  0.00000000000E+00 0. -1.
          1   -1    0    0  505    0 -0.00000000000E+00 -0.00000000000E+00 -0.32202757928E+04  0.32202757928E+04  0.00000000000E+00 0.  1.
         21    1    1    2  503  501 -0.59778754242E+01  0.37149669307E+02 -0.28694156355E+03  0.28939815794E+03  0.00000000000E+00 0. -1.
         21    1    1    2  504  502  0.79638578387E+02 -0.81408586784E+02 -0.61760312544E+03  0.62801535150E+03  0.00000000000E+00 0. -1.
         21    1    1    2  505  504 -0.39478288125E+02 -0.36878715017E+01 -0.43982435685E+03  0.44160797152E+03  0.00000000000E+00 0. -1.
          1    1    1    2  501    0 -0.34182414838E+02  0.47946788979E+02 -0.18681166302E+04  0.18690444286E+04  0.00000000000E+00 0.  1.
<scales pt_clust_3="37.62756" pt_clust_4="83.26924" pt_clust_5="40.31372" pt_clust_6="14000.00000"></scales>
<clustering>
<clus scale="   37.628">  1  3  2 -1</clus>
<clus scale="   40.314">  2  5  1 -1</clus>
<clus scale="   83.269">  1  4  2 -1</clus>
<clus scale="   37.628">  1  3  2 -1</clus>
</clustering>
</event>
<event>
 6    0  0.4945982E+002  0.8820742E+02  0.7546771E-02  0.1307252E+00
         21   -1    0    0  504  502  0.00000000000E+00  0.00000000000E+00  0.14045927248E+03  0.14045927248E+03  0.00000000000E+00 0. -1.
          1   -1    0    0  505    0 -0.00000000000E+00 -0.00000000000E+00 -0.45551127002E+04  0.45551127002E+04  0.00000000000E+00 0.  1.
         21    1    1    2  503  501  0.53928321201E+01  0.93256199675E+02  0.42793779027E+01  0.93509970011E+02  0.00000000000E+00 0. -1.
         21    1    1    2  504  503 -0.46864713426E+02  0.21394334605E+02  0.77679712798E+02  0.93210282148E+02  0.00000000000E+00 0. -1.
         21    1    1    2  505  502  0.18033824456E+02 -0.29616892616E+02 -0.47215808608E+02  0.58580813713E+02  0.00000000000E+00 0.  1.
          1    1    1    2  501    0  0.23438056851E+02 -0.85033641665E+02 -0.44493967099E+04  0.44502709069E+04  0.00000000000E+00 0.  1.
<scales pt_clust_3="88.20742" pt_clust_4="35.52832" pt_clust_5="34.67534" pt_clust_6="14000.00000"></scales>
<clustering>
<clus scale="   34.675">  1  5  2 -1</clus>
<clus scale="   35.528">  1  4  2 -1</clus>
<clus scale="   88.207">  1  3  2 -1</clus>
<clus scale="   34.675">  1  3  2 -1</clus>
</clustering>
</event>
<event>
 6    0  0.4945982E+002  0.1688092E+03  0.7546771E-02  0.1179095E+00
          2   -1    0    0  505    0 -0.00000000000E+00  0.00000000000E+00  0.90028585606E+03  0.90028585606E+03  0.00000000000E+00 0. -1.
         21   -1    0    0  503  502  0.00000000000E+00 -0.00000000000E+00 -0.21134560628E+03  0.21134560628E+03  0.00000000000E+00 0.  1.
         21    1    1    2  503  501 -0.31494545104E+02 -0.21759802872E+01 -0.17738958579E+03  0.18017687534E+03  0.00000000000E+00 0.  1.
         21    1    1    2  504  502 -0.34744354765E+02 -0.56685556648E+02  0.83438333956E+02  0.10668822847E+03  0.00000000000E+00 0. -1.
         21    1    1    2  505  504 -0.72282850742E+02 -0.40627624090E+02  0.17932985447E+03  0.19757178709E+03  0.00000000000E+00 0.  1.
          2    1    1    2  501    0  0.13852175061E+03  0.99489161026E+02  0.60356164714E+03  0.62719457145E+03  0.00000000000E+00 0. -1.
<scales pt_clust_3="31.56963" pt_clust_4="45.88094" pt_clust_5="45.88094" pt_clust_6="160.91667"></scales>
<clustering>
<clus scale="   31.570">  2  3  1 -1</clus>
<clus scale="   45.881">  4  5 -1 -1</clus>
<clus scale="  160.917">  1  6  2 -1</clus>
<clus scale="   31.570">  2  3  1 -1</clus>
</clustering>
</event>
<event>
 6    0  0.4945982E+002  0.1495875E+03  0.7546771E-02  0.1200981E+00
         21   -1    0    0  504  502  0.00000000000E+00  0.00000000000E+00  0.38706479965E+03  0.38706479965E+03  0.00000000000E+00 0.  1.
          1   -1    0    0  505    0 -0.00000000000E+00 -0.00000000000E+00 -0.22758325772E+04  0.22758325772E+04  0.00000000000E+00 0. -1.
         21    1    1    2  503  501  0.17237357212E+03 -0.72137638696E+02  0.19153304758E+03  0.26758437099E+03  0.00000000000E+00 0.  1.
         21    1    1    2  504  503  0.30284322578E+02  0.40994191540E+01  0.99775301020E+02  0.10435064027E+03  0.00000000000E+00 0.  1.
         21    1    1    2  505  502 -0.75942751704E+02 -0.10734335473E+02  0.25133672601E+02  0.80710773710E+02  0.00000000000E+00 0.  1.
          1    1    1    2  501    0 -0.12671514300E+03  0.78772555016E+02 -0.22052097987E+04  0.22102515919E+04  0.00000000000E+00 0. -1.
<scales pt_clust_3="149.58753" pt_clust_4="30.56052" pt_clust_5="71.02293" pt_clust_6="14000.00000"></scales>
<clustering>
<clus scale="   30.561">  1  4  2 -1</clus>
<clus scale="   71.023">  1  5  2 -1</clus>
<clus scale="  149.588">  1  3  2 -1</clus>
<clus scale="   30.561">  1  3  2 -1</clus>
</clustering>
</event>
<event>
 6    0  0.4945982E+002  0.8567097E+02  0.7546771E-02  0.1313687E+00
         21   -1    0    0  503  502  0.00000000000E+00  0.00000000000E+00  0.40859515825E+02  0.40859515825E+02  0.00000000000E+00 0.  1.
          2   -1    0    0  504    0 -0.00000000000E+00 -0.00000000000E+00 -0.94849273868E+03  0.94849273868E+03  0.00000000000E+00 0. -1.
         21    1    1    2  503  501  0.19777141863E+02 -0.44480031893E+02 -0.28352965955E+02  0.56333819824E+02  0.00000000000E+00 0.  1.
         21    1    1    2  504  505 -0.49103815177E+02 -0.54728658555E+02 -0.24925466143E+03  0.25987361732E+03  0.00000000000E+00 0.  1.
         21    1    1    2  505  502  0.65333995997E+02  0.78938562609E+02 -0.10577768941E+03  0.14727099944E+03  0.00000000000E+00 0.  1.
          2    1    1    2  501    0 -0.36007322683E+02  0.20270127839E+02 -0.52424790606E+03  0.52587381792E+03  0.00000000000E+00 0. -1.
<scales pt_clust_3="45.43054" pt_clust_4="14000.00000" pt_clust_5="85.67097" pt_clust_6="41.32076"></scales>
<clustering>
<clus scale="   41.321">  2  6  1 -1</clus>
<clus scale="   45.431">  1  3  2 -1</clus>
<clus scale="   85.671">  1  5  2 -1</clus>
<clus scale="   45.431">  1  3  2 -1</clus>
</clustering>
</event>
<event>
 6    0  0.4945982E+002  0.9430022E+02  0.7546771E-02  0.1292760E+00
         21   -1    0    0  504  502  0.00000000000E+00  0.00000000000E+00  0.73784252467E+03  0.73784252467E+03  0.00000000000E+00 0.  1.
          4   -1    0    0  505    0 -0.00000000000E+00 -0.00000000000E+00 -0.48811694933E+03  0.48811694933E+03  0.00000000000E+00 0.  1.
         21    1    1    2  503  501 -0.15848067760E+01 -0.10609093688E+03  0.14363416204E+03  0.17857371308E+03  0.00000000000E+00 0. -1.
         21    1    1    2  504  503 -0.15255990869E+02 -0.80185711605E+02  0.46527874668E+03  0.47238417174E+03  0.00000000000E+00 0.  1.
         21    1    1    2  505  502  0.11703713002E+01  0.93618350148E+02  0.81669361620E+02  0.12424029089E+03  0.00000000000E+00 0.  1.
          4    1    1    2  501    0  0.15670426345E+02  0.92658298334E+02 -0.44085669499E+03  0.45076129829E+03  0.00000000000E+00 0.  1.
<scales pt_clust_3="94.30022" pt_clust_4="81.62410" pt_clust_5="63.10292" pt_clust_6="14000.00000"></scales>
<clustering>
<clus scale="   81.624">  1  4  2 -1</clus>
<clus scale="   63.103">  1  5  2 -1</clus>
<clus scale="   94.300">  1  3  2 -1</clus>
<clus scale="   81.624">  1  3  2 -1</clus>
</clustering>
</event>
<event>
 6    0  0.4945982E+002  0.1063773E+03  0.7546771E-02  0.1267429E+00
         21   -1    0    0  505  502  0.00000000000E+00  0.00000000000E+00  0.16119177092E+03  0.16119177092E+03  0.00000000000E+00 0. -1.
          1   -1    0    0  504    0 -0.00000000000E+00 -0.00000000000E+00 -0.22791123121E+04  0.22791123121E+04  0.00000000000E+00 0.  1.
         21    1    1    2  503  502  0.11586208361E+02  0.32109206684E+02  0.14162949648E+03  0.14568512502E+03  0.00000000000E+00 0. -1.
         21    1    1    2  504  503 -0.83654071145E+02  0.21632860462E+02 -0.80417944943E+03  0.80880811764E+03  0.00000000000E+00 0.  1.
         21    1    1    2  505  501  0.63223765585E+01  0.81944746632E+02 -0.14402341605E+03  0.16582417893E+03  0.00000000000E+00 0.  1.
          1    1    1    2  501    0  0.65745486226E+02 -0.13568681378E+03 -0.13113471722E+04  0.13199866614E+04  0.00000000000E+00 0.  1.
<scales pt_clust_3="34.13563" pt_clust_4="86.10337" pt_clust_5="106.37731" pt_clust_6="14000.00000"></scales>
<clustering>
<clus scale="   34.136">  1  3  2 -1</clus>
<clus scale="   86.103">  2  4  1 -1</clus>
<clus scale="  106.377">  1  5  2 -1</clus>
<clus scale="   34.136">  1  3  2 -1</clus>
</clustering>
</event>
<event>
 6    0  0.4945982E+002  0.7806430E+02  0.7546771E-02  0.1334636E+00
          2   -1    0    0  502    0 -0.00000000000E+00  0.00000000000E+00  0.94114750504E+03  0.94114750504E+03  0.00000000000E+00 0. -1.
         21   -1    0    0  504  502  0.00000000000E+00 -0.00000000000E+00 -0.17455068026E+03  0.17455068026E+03  0.00000000000E+00 0.  1.
         21    1    1    2  503  501 -0.47837865258E+02 -0.40339484268E+02  0.37101823063E+03  0.37625823952E+03  0.00000000000E+00 0. -1.
         21    1    1    2  504  505 -0.18044406220E+02 -0.42266409589E+02 -0.14103889685E+03  0.14833752189E+03  0.00000000000E+00 0.  1.
         21    1    1    2  505  503  0.98719999485E+02  0.36982056268E+02  0.83422271556E+02  0.13443431919E+03  0.00000000000E+00 0.  1.
          2    1    1    2  501    0 -0.32837728007E+02  0.45623837589E+02  0.45319521943E+03  0.45666810471E+03  0.00000000000E+00 0. -1.
<scales pt_clust_3="14000.00000" pt_clust_4="45.95704" pt_clust_5="78.06430" pt_clust_6="54.87843"></scales>
<clustering>
<clus scale="   45.957">  2  4  1 -1</clus>
<clus scale="   54.878">  1  6  2 -1</clus>
<clus scale="   78.064">  2  5  1 -1</clus>
<clus scale="   45.957">  2  3  1 -1</clus>
</clustering>
</event>
<event>
 6    0  0.4945982E+002  0.1584815E+03  0.7546771E-02  0.1190422E+00
         21   -1    0    0  501  502  0.00000000000E+00  0.00000000000E+00  0.26016410024E+03  0.26016410024E+03  0.00000000000E+00 0. -1.
          2   -1    0    0  503    0 -0.00000000000E+00 -0.00000000000E+00 -0.37551627774E+03  0.37551627774E+03  0.00000000000E+00 0.  1.
         21    1    1    2  503  505  0.18679520556E+02  0.52648053962E+02 -0.23153690895E+02  0.60471774211E+02  0.00000000000E+00 0.  1.
         21    1    1    2  504  502 -0.63593838667E+02 -0.52485758410E+02  0.13160637228E+03  0.15530347188E+03  0.00000000000E+00 0. -1.
         21    1    1    2  505  504 -0.67063680326E+02 -0.36125287803E+02  0.69988278997E+02  0.10344531326E+03  0.00000000000E+00 0. -1.
          2    1    1    2  501    0  0.11197799844E+03  0.35962992251E+02 -0.29379313788E+03  0.31645981863E+03  0.00000000000E+00 0.  1.
<scales pt_clust_3="55.86360" pt_clust_4="35.79881" pt_clust_5="35.79881" pt_clust_6="154.04273"></scales>
<clustering>
<clus scale="   35.799">  4  5 -1 -1</clus>
<clus scale="   55.864">  2  3  1 -1</clus>
<clus scale="  154.043">  2  6  1 -1</clus>
<clus scale="  158.482">  1  3  2 -1</clus>
</clustering>
</event>
<event>
 6    0  0.4945982E+002  0.1019807E+03  0.7546771E-02  0.1276185E+00
         21   -1    0    0  504  502  0.00000000000E+00  0.00000000000E+00  0.49958647899E+02  0.49958647899E+02  0.00000000000E+00 0. -1.
          2   -1    0    0  503    0 -0.00000000000E+00 -0.00000000000E+00 -0.12577064064E+04  0.12577064064E+04  0.00000000000E+00 0.  1.
         21    1    1    2  503  505 -0.32190704653E+02 -0.38563357264E+02 -0.39954386559E+03  0.40268930271E+03  0.00000000000E+00 0.  1.
         21    1    1    2  504  501  0.86901197960E+02 -0.34678303571E+02 -0.14700427828E+02  0.94712752699E+02  0.00000000000E+00 0. -1.
         21    1    1    2  505  502 -0.54224983723E+02 -0.29116033585E+02 -0.28935119058E+03  0.29582461655E+03  0.00000000000E+00 0.  1.
          2    1    1    2  501    0 -0.48550958396E+00  0.10235769442E+03 -0.50415227456E+03  0.51443838238E+03  0.00000000000E+00 0.  1.
<scales pt_clust_3="32.53729" pt_clust_4="93.56497" pt_clust_5="32.53729" pt_clust_6="95.40932"></scales>
<clustering>
<clus scale="   32.537">  3  5 -1 -1</clus>
<clus scale="   93.565">  1  4  2 -1</clus>
<clus scale="   95.409">  1  6  2 -1</clus>
<clus scale="   93.565">  1  3  2 -1</clus>
</clustering>
</event>
<event>
 6    0  0.4945982E+002  0.8741026E+02  0.7546771E-02  0.1309247E+00
          2   -1    0    0  504    0 -0.00000000000E+00  0.00000000000E+00  0.65642706191E+03  0.65642706191E+03  0.00000000000E+00 0. -1.
         21   -1    0    0  505  502  0.00000000000E+00 -0.00000000000E+00 -0.74211882172E+02  0.74211882172E+02  0.00000000000E+00 0. -1.
         21    1    1    2  503  502  0.60810011213E+02  0.14567271257E+02  0.57144980381E+02  0.84708982041E+02  0.00000000000E+00 0. -1.
         21    1    1    2  504  503  0.28917350630E+02 -0.86400318765E+02  0.32153996656E+03  0.33419930931E+03  0.00000000000E+00 0. -1.
         21    1    1    2  505  501  0.21858882368E+02  0.43996052411E+02 -0.25571094543E+02  0.55383609870E+02  0.00000000000E+00 0. -1.
          2    1    1    2  501    0 -0.11158624421E+03  0.27836995097E+02  0.22910132734E+03  0.25634704286E+03  0.00000000000E+00 0. -1.
<scales pt_clust_3="76.95883" pt_clust_4="14000.00000" pt_clust_5="49.12701" pt_clust_6="87.41026"></scales>
<clustering>
<clus scale="   49.127">  2  5  1 -1</clus>
<clus scale="   76.959">  2  3  1 -1</clus>
<clus scale="   87.410">  2  6  1 -1</clus>
<clus scale="   49.127">  2  3  1 -1</clus>
</clustering>
</event>
<event>
 6    0  0.4945982E+002  0.2238003E+03  0.7546771E-02  0.1131081E+00
          2   -1    0    0  505    0 -0.00000000000E+00  0.00000000000E+00  0.22875071264E+04  0.22875071264E+04  0.00000000000E+00 0. -1.
         21   -1    0    0  504  502  0.00000000000E+00 -0.00000000000E+00 -0.12789146235E+04  0.12789146235E+04  0.00000000000E+00 0.  1.
         21    1    1    2  503  502  0.16242714730E+03 -0.11548993858E+03 -0.55657915866E+03  0.59118598085E+03  0.00000000000E+00 0.  1.
         21    1    1    2  504  501 -0.13487072226E+01 -0.35896684297E+02 -0.59948591486E+03  0.60056119844E+03  0.00000000000E+00 0.  1.
         21    1    1    2  505  503 -0.21588851154E+03  0.18245126341E+03  0.86551508717E+02  0.29561372870E+03  0.00000000000E+00 0.  1.
          2    1    1    2  501    0  0.54810071461E+02 -0.31064640532E+02  0.20781060677E+04  0.20790608420E+04  0.00000000000E+00 0. -1.
<scales pt_clust_3="223.80033" pt_clust_4="35.92201" pt_clust_5="14000.00000" pt_clust_6="63.01286"></scales>
<clustering>
<clus scale="   35.922">  2  4  1 -1</clus>
<clus scale="   63.013">  1  6  2 -1</clus>
<clus scale="  223.800">  2  3  1 -1</clus>
<clus scale="   35.922">  2  3  1 -1</clus>
</clustering>
</event>
<event>
 6    0  0.4945982E+002  0.2171471E+03  0.7546771E-02  0.1136028E+00
          2   -1    0    0  503    0 -0.00000000000E+00  0.00000000000E+00  0.17894859069E+04  0.17894859069E+04  0.00000000000E+00 0. -1.
         21   -1    0    0  504  502  0.00000000000E+00 -0.00000000000E+00 -0.12879434980E+03  0.12879434980E+03  0.00000000000E+00 0. -1.
         21    1    1    2  503  505  0.10884845371E+03 -0.64388310586E+01  0.68803829362E+01  0.10925559066E+03  0.00000000000E+00 0.  1.
         21    1    1    2  504  501  0.42480472486E+02  0.74372475669E+02  0.67847271864E+02  0.10926622524E+03  0.00000000000E+00 0. -1.
         21    1    1    2  505  502  0.59236858960E+02 -0.26954413001E+02 -0.28541282622E+02  0.71064412004E+02  0.00000000000E+00 0. -1.
          2    1    1    2  501    0 -0.21056578515E+03 -0.40979231610E+02  0.16145051849E+04  0.16286940288E+04  0.00000000000E+00 0. -1.
<scales pt_clust_3="39.98240" pt_clust_4="85.64961" pt_clust_5="39.98240" pt_clust_6="210.88982"></scales>
<clustering>
<clus scale="   39.982">  3  5 -1 -1</clus>
<clus scale="   85.650">  2  4  1 -1</clus>
<clus scale="  210.890">  1  6  2 -1</clus>
<clus scale="   85.650">  2  3  1 -1</clus>
</clustering>
</event>
<event>
 6    0  0.4945982E+002  0.1365262E+03  0.7546771E-02  0.1218081E+00
         21   -1    0    0  501  502  0.00000000000E+00  0.00000000000E+00  0.69064073815E+02  0.69064073815E+02  0.00000000000E+00 0.  1.
          2   -1    0    0  504    0 -0.00000000000E+00 -0.00000000000E+00 -0.19361814133E+04  0.19361814133E+04  0.00000000000E+00 0.  1.
         21    1    1    2  503  505 -0.24036064748E+02 -0.63028987264E+02  0.62547337429E+01  0.67745902742E+02  0.00000000000E+00 0.  1.
         21    1    1    2  504  503  0.33171714507E+02  0.24998587293E+02 -0.13464652669E+03  0.14090769731E+03  0.00000000000E+00 0.  1.
         21    1    1    2  505  502 -0.37938715924E+01 -0.68459721599E+02 -0.15788922853E+02  0.70359200023E+02  0.00000000000E+00 0.  1.
          2    1    1    2  501    0 -0.53417781671E+01  0.10649012157E+03 -0.17229366237E+04  0.17262326871E+04  0.00000000000E+00 0.  1.
<scales pt_clust_3="30.05810" pt_clust_4="41.53663" pt_clust_5="30.05810" pt_clust_6="133.12047"></scales>
<clustering>
<clus scale="   30.058">  3  5 -1 -1</clus>
<clus scale="   41.537">  2  4  1 -1</clus>
<clus scale="  133.120">  2  6  1 -1</clus>
<clus scale="  136.526">  1  3  2 -1</clus>
</clustering>
</event>
<event>
 6    0  0.4945982E+002  0.6768207E+02  0.7546771E-02  0.1368157E+00
         21   -1    0    0  505  502  0.00000000000E+00  0.00000000000E+00  0.54913464385E+03  0.54913464385E+03  0.00000000000E+00 0.  1.
          1   -1    0    0  504    0 -0.00000000000E+00 -0.00000000000E+00 -0.43291202152E+02  0.43291202152E+02  0.00000000000E+00 0.  1.
         21    1    1    2  503  502 -0.48758737669E+02  0.76340675748E+00  0.21469424479E+03  0.22016270355E+03  0.00000000000E+00 0.  1.
         21    1    1    2  504  503 -0.77591596119E+02 -0.26374504309E+02  0.12527129029E+03  0.14969624724E+03  0.00000000000E+00 0.  1.
         21    1    1    2  505  501  0.62542308680E+02  0.33865724184E+02  0.13178590525E+03  0.14975297150E+03  0.00000000000E+00 0.  1.
          1    1    1    2  501    0  0.63808025109E+02 -0.82546266318E+01  0.34092001357E+02  0.72813923707E+02  0.00000000000E+00 0.  1.
<scales pt_clust_3="48.76471" pt_clust_4="67.68207" pt_clust_5="54.04040" pt_clust_6="14000.00000"></scales>
<clustering>
<clus scale="   48.765">  1  3  2 -1</clus>
<clus scale="   54.040">  1  5  2 -1</clus>
<clus scale="   67.682">  1  4  2 -1</clus>
<clus scale="   48.765">  1  3  2 -1</clus>
</clustering>
</event>
<event>
 6    0  0.4945982E+002  0.1078564E+03  0.7546771E-02  0.1264592E+00
          2   -1    0    0  505    0 -0.00000000000E+00  0.00000000000E+00  0.18743201389E+04  0.18743201389E+04  0.00000000000E+00 0.  1.
         21   -1    0    0  503  502  0.00000000000E+00 -0.00000000000E+00 -0.22571265111E+02  0.22571265111E+02  0.00000000000E+00 0.  1.
         21    1    1    2  503  504 -0.49427295334E+02 -0.37865044313E+02  0.13501365481E+03  0.14867920530E+03  0.00000000000E+00 0.  1.
         21    1    1    2  504  501 -0.50066396273E+02 -0.10938809810E+02  0.17860823682E+03  0.18581497210E+03  0.00000000000E+00 0.  1.
         21    1    1    2  505  502  0.63539091132E+02 -0.50097569806E+02  0.15124529267E+03  0.17152877647E+03  0.00000000000E+00 0.  1.
          2    1    1    2  501    0  0.35954600475E+02  0.98901423929E+02  0.13868816895E+04  0.13908684501E+04  0.00000000000E+00 0.  1.
<scales pt_clust_3="32.03501" pt_clust_4="32.03501" pt_clust_5="80.91343" pt_clust_6="101.91246"></scales>
<clustering>
<clus scale="   32.035">  3  4 -1 -1</clus>
<clus scale="   80.913">  2  5  1 -1</clus>
<clus scale="  101.912">  1  6  2 -1</clus>
<clus scale="   80.913">  2  3  1 -1</clus>
</clustering>
</event>
<event>
 6    0  0.4945982E+002  0.9246545E+02  0.7546771E-02  0.1296989E+00
         21   -1    0    0  504  502  0.00000000000E+00  0.00000000000E+00  0.23402656065E+03  0.23402656065E+03  0.00000000000E+00 0. -1.
          2   -1    0    0  503    0 -0.00000000000E+00 -0.00000000000E+00 -0.13326262673E+04  0.13326262673E+04  0.00000000000E+00 0. -1.
         21    1    1    2  503  502  0.16238744000E+02  0.62844608067E+02 -0.33557950630E+02  0.73070360751E+02  0.00000000000E+00 0. -1.
         21    1    1    2  504  505 -0.34229181512E+01 -0.78628805042E+02  0.10612583160E+03  0.13212455292E+03  0.00000000000E+00 0. -1.
         21    1    1    2  505  501  0.44027377207E+02  0.88608294499E+02  0.67227506969E+02  0.11962181026E+03  0.00000000000E+00 0. -1.
          2    1    1    2  501    0 -0.56843203056E+02 -0.72824097525E+02 -0.12383950946E+04  0.12418361041E+04  0.00000000000E+00 0. -1.
<scales pt_clust_3="64.90872" pt_clust_4="44.04796" pt_clust_5="14000.00000" pt_clust_6="92.46545"></scales>
<clustering>
<clus scale="   64.909">  1  3  2 -1</clus>
<clus scale="   44.048">  1  4  2 -1</clus>
<clus scale="   92.465">  2  6  1 -1</clus>
<clus scale="   64.909">  1  3  2 -1</clus>
</clustering>
</event>
<event>
 6    0  0.4945982E+002  0.1156882E+03  0.7546771E-02  0.1250385E+00
          3   -1    0    0  503    0 -0.00000000000E+00  0.00000000000E+00  0.41028272173E+03  0.41028272173E+03  0.00000000000E+00 0.  1.
         21   -1    0    0  505  502  0.00000000000E+00 -0.00000000000E+00 -0.35810716262E+03  0.35810716262E+03  0.00000000000E+00 0.  1.
         21    1    1    2  503  502  0.28279323622E+02 -0.24357168214E+02 -0.54510714939E+02  0.66063680121E+02  0.00000000000E+00 0.  1.
         21    1    1    2  504  501 -0.34193563472E+01  0.18657144015E+03  0.70197844356E+02  0.19936983631E+03  0.00000000000E+00 0.  1.
         21    1    1    2  505  504 -0.35177637065E+02 -0.58281347797E+02 -0.21772742835E+03  0.22812149111E+03  0.00000000000E+00 0.  1.
          3    1    1    2  501    0  0.10317669790E+02 -0.10393292414E+03  0.25421585804E+03  0.27483487681E+03  0.00000000000E+00 0.  1.
<scales pt_clust_3="37.32281" pt_clust_4="115.68820" pt_clust_5="77.78527" pt_clust_6="14000.00000"></scales>
<clustering>
<clus scale="   37.323">  2  3  1 -1</clus>
<clus scale="   77.785">  2  5  1 -1</clus>
<clus scale="  115.688">  2  4  1 -1</clus>
<clus scale="   37.323">  2  3  1 -1</clus>
</clustering>
</event>
<event>
 6    0  0.4945982E+002  0.7788299E+02  0.7546771E-02  0.1335169E+00
          1   -1    0    0  504    0 -0.00000000000E+00  0.00000000000E+00  0.28893630070E+03  0.28893630070E+03  0.00000000000E+00 0.  1.
         21   -1    0    0  503  502  0.00000000000E+00 -0.00000000000E+00 -0.15098386891E+03  0.15098386891E+03  0.00000000000E+00 0.  1.
         21    1    1    2  503  501  0.30743764590E+02 -0.37107585067E+01 -0.10476792206E+02  0.32691160347E+02  0.00000000000E+00 0.  1.
         21    1    1    2  504  505 -0.62380849948E+02  0.93644401985E+02 -0.66586462874E+02  0.13074556016E+03  0.00000000000E+00 0.  1.
         21    1    1    2  505  502 -0.13024666995E+02 -0.28748287992E+02 -0.14541873926E+02  0.34750138274E+02  0.00000000000E+00 0.  1.
          1    1    1    2  501    0  0.44661752352E+02 -0.61185355486E+02  0.22955756079E+03  0.24173331083E+03  0.00000000000E+00 0.  1.
<scales pt_clust_3="30.96690" pt_clust_4="14000.00000" pt_clust_5="30.31495" pt_clust_6="77.88299"></scales>
<clustering>
<clus scale="   30.967">  2  3  1 -1</clus>
<clus scale="   30.315">  2  5  1 -1</clus>
<clus scale="   77.883">  1  6  2 -1</clus>
<clus scale="   30.967">  2  3  1 -1</clus>
</clustering>
</event>
<event>
 6    0  0.4945982E+002  0.9944161E+02  0.7546771E-02  0.1281475E+00
         21   -1    0    0  501  502  0.00000000000E+00  0.00000000000E+00  0.18648351358E+02  0.18648351358E+02  0.00000000000E+00 0. -1.
          1   -1    0    0  505    0 -0.00000000000E+00 -0.00000000000E+00 -0.20881919340E+04  0.20881919340E+04  0.00000000000E+00 0. -1.
         21    1    1    2  503  504 -0.55478288012E+02  0.64182901956E+02 -0.31602800209E+03  0.32721702806E+03  0.00000000000E+00 0. -1.
         21    1    1    2  504  502  0.70051278982E+02  0.32108368222E+02 -0.23944442493E+03  0.25153878752E+03  0.00000000000E+00 0. -1.
         21    1    1    2  505  503  0.14022852397E+02  0.52796465444E+02 -0.41400250874E+03  0.41759092949E+03  0.00000000000E+00 0. -1.
          1    1    1    2  501    0 -0.28595843367E+02 -0.14908773562E+03 -0.11000686469E+04  0.11104935403E+04  0.00000000000E+00 0. -1.
<scales pt_clust_3="14000.00000" pt_clust_4="82.39235" pt_clust_5="54.62698" pt_clust_6="99.44161"></scales>
<clustering>
<clus scale="   54.627">  2  5  1 -1</clus>
<clus scale="   82.392">  1  4  2 -1</clus>
<clus scale="   99.442">  2  6  1 -1</clus>
<clus scale="   82.392">  1  3  2 -1</clus>
</clustering>
</event>
<event>
 6    0  0.4945982E+002  0.1825853E+03  0.7546771E-02  0.1165324E+00
         21   -1    0    0  505  502  0.00000000000E+00  0.00000000000E+00  0.15778449242E+04  0.15778449242E+04  0.00000000000E+00 0.  1.
         -1   -1    0    0    0  501 -0.00000000000E+00 -0.00000000000E+00 -0.12057245911E+04  0.12057245911E+04  0.00000000000E+00 0.  1.
         21    1    1    2  503  502  0.69494053627E+02  0.45747159929E+02  0.43819418370E+01  0.83315229972E+02  0.00000000000E+00 0.  1.
         21    1    1    2  504  501 -0.16661308182E+03 -0.10195062900E+03  0.68902918613E+03  0.71618089135E+03  0.00000000000E+00 0.  1.
         21    1    1    2  505  504 -0.37577605047E+02 -0.66920704543E+02  0.82237039174E+03  0.82594401645E+03  0.00000000000E+00 0.  1.
         -1    1    1    2    0  503  0.13469663324E+03  0.12312417362E+03 -0.11436611867E+04  0.11581293775E+04  0.00000000000E+00 0.  1.
<scales pt_clust_3="79.25961" pt_clust_4="14000.00000" pt_clust_5="76.74931" pt_clust_6="182.58528"></scales>
<clustering>
<clus scale="   76.749">  1  5  2 -1</clus>
<clus scale="   79.260">  1  3  2 -1</clus>
<clus scale="  182.585">  2  6  1 -1</clus>
<clus scale="   76.749">  1  3  2 -1</clus>
</clustering>
</event>
<event>
 6    0  0.4945982E+002  0.8462660E+02  0.7546771E-02  0.1316412E+00
         -1   -1    0    0    0  501 -0.00000000000E+00  0.00000000000E+00  0.42971109037E+03  0.42971109037E+03  0.00000000000E+00 0. -1.
         21   -1    0    0  505  502  0.00000000000E+00 -0.00000000000E+00 -0.10160370508E+04  0.10160370508E+04  0.00000000000E+00 0.  1.
         21    1    1    2  503  502  0.59137006891E+02  0.40707799978E+01 -0.28669933845E+03  0.29276315940E+03  0.00000000000E+00 0. -1.
         21    1    1    2  504  501 -0.92426729493E+02 -0.56393306019E+00 -0.23661791979E+03  0.25402964062E+03  0.00000000000E+00 0.  1.
         21    1    1    2  505  504 -0.33511382962E+02 -0.55781451590E+02 -0.47443452719E+03  0.47887650153E+03  0.00000000000E+00 0.  1.
         -1    1    1    2    0  503  0.66801105564E+02  0.52274604653E+02  0.41142582501E+03  0.42007883960E+03  0.00000000000E+00 0. -1.
<scales pt_clust_3="59.27695" pt_clust_4="84.62660" pt_clust_5="53.37357" pt_clust_6="14000.00000"></scales>
<clustering>
<clus scale="   59.277">  2  3  1 -1</clus>
<clus scale="   53.374">  2  5  1 -1</clus>
<clus scale="   84.627">  2  4  1 -1</clus>
<clus scale="   59.277">  2  3  1 -1</clus>
</clustering>
</event>
<event>
 6    0  0.4945982E+002  0.1340200E+03  0.7546771E-02  0.1221610E+00
         21   -1    0    0  505  502  0.00000000000E+00  0.00000000000E+00  0.86463367210E+03  0.86463367210E+03  0.00000000000E+00 0. -1.
          2   -1    0    0  503    0 -0.00000000000E+00 -0.00000000000E+00 -0.24277311110E+03  0.24277311110E+03  0.00000000000E+00 0. -1.
         21    1    1    2  503  504  0.18386923161E+03 -0.66025302423E+01  0.22681920188E+03  0.29205896336E+03  0.00000000000E+00 0. -1.
         21    1    1    2  504  502 -0.76150738600E+02 -0.38790999342E+02  0.48141396745E+03  0.48894077829E+03  0.00000000000E+00 0. -1.
         21    1    1    2  505  501 -0.61040428121E+02 -0.42758000095E+01  0.10595710761E+03  0.12235654859E+03  0.00000000000E+00 0. -1.
          2    1    1    2  501    0 -0.46678064887E+02  0.49669329594E+02 -0.19232971594E+03  0.20405049296E+03  0.00000000000E+00 0. -1.
<scales pt_clust_3="14000.00000" pt_clust_4="134.02004" pt_clust_5="61.19000" pt_clust_6="68.46382"></scales>
<clustering>
<clus scale="   61.190">  1  5  2 -1</clus>
<clus scale="   68.464">  2  6  1 -1</clus>
<clus scale="  134.020">  1  4  2 -1</clus>
<clus scale="   61.190">  1  3  2 -1</clus>
</clustering>
</event>
<event>
 6    0  0.4945982E+002  0.6709350E+02  0.7546771E-02  0.1370265E+00
         21   -1    0    0  504  502  0.00000000000E+00  0.00000000000E+00  0.68093897243E+02  0.68093897243E+02  0.00000000000E+00 0. -1.
         -3   -1    0    0    0  501 -0.00000000000E+00 -0.00000000000E+00 -0.12365640087E+04  0.12365640087E+04  0.00000000000E+00 0. -1.
         21    1    1    2  503  502 -0.81552262886E+02  0.50519182102E+01 -0.53351439089E+02  0.97584166299E+02  0.00000000000E+00 0. -1.
         21    1    1    2  504  505 -0.28377234610E+02 -0.37042848428E+02  0.23597306779E+02  0.52290275874E+02  0.00000000000E+00 0. -1.
         21    1    1    2  505  501  0.64573539682E+02 -0.18510853621E+02 -0.15755774976E+03  0.17127999953E+03  0.00000000000E+00 0.  1.
         -3    1    1    2    0  503  0.45355957813E+02  0.50501783839E+02 -0.98115822936E+03  0.98350346422E+03  0.00000000000E+00 0. -1.
<scales pt_clust_3="67.09350" pt_clust_4="46.66305" pt_clust_5="64.05658" pt_clust_6="14000.00000"></scales>
<clustering>
<clus scale="   46.663">  1  4  2 -1</clus>
<clus scale="   64.057">  1  5  2 -1</clus>
<clus scale="   67.094">  1  3  2 -1</clus>
<clus scale="   46.663">  1  3  2 -1</clus>
</clustering>
</event>
<event>
 6    0  0.4945982E+002  0.9491758E+02  0.7546771E-02  0.1291362E+00
         -3   -1    0    0    0  501 -0.00000000000E+00  0.00000000000E+00  0.58860023321E+03  0.58860023321E+03  0.00000000000E+00 0.  1.
         21   -1    0    0  503  502  0.00000000000E+00 -0.00000000000E+00 -0.60250577610E+03  0.60250577610E+03  0.00000000000E+00 0. -1.
         21    1    1    2  503  504 -0.32992144997E+02 -0.16963617252E+02 -0.28361281313E+03  0.28602879875E+03  0.00000000000E+00 0. -1.
         21    1    1    2  504  501  0.65804786834E+02  0.80882489715E+02 -0.17535505241E+03  0.20401382678E+03  0.00000000000E+00 0.  1.
         21    1    1    2  505  502 -0.48829966426E+02  0.30187079128E+02 -0.11733299101E+03  0.13062410248E+03  0.00000000000E+00 0.  1.
         -3    1    1    2    0  505  0.16017324588E+02 -0.94105951591E+02  0.56239531367E+03  0.57043928130E+03  0.00000000000E+00 0.  1.
<scales pt_clust_3="37.09779" pt_clust_4="14000.00000" pt_clust_5="66.05264" pt_clust_6="94.91758"></scales>
<clustering>
<clus scale="   37.098">  2  3  1 -1</clus>
<clus scale="   66.053">  2  5  1 -1</clus>
<clus scale="   94.918">  1  6  2 -1</clus>
<clus scale="   37.098">  2  3  1 -1</clus>
</clustering>
</event>
<event>
 6    0  0.4945982E+002  0.8873340E+02  0.7546771E-02  0.1305948E+00
         21   -1    0    0  503  502  0.00000000000E+00  0.00000000000E+00  0.39850101832E+03  0.39850101832E+03  0.00000000000E+00 0. -1.
          2   -1    0    0  504    0 -0.00000000000E+00 -0.00000000000E+00 -0.24092277125E+03  0.24092277125E+03  0.00000000000E+00 0.  1.
         21    1    1    2  503  501 -0.49820466187E+02  0.23834382640E+02  0.31530058068E+03  0.32010094162E+03  0.00000000000E+00 0. -1.
         21    1    1    2  504  505  0.11355144318E+03 -0.46017122110E+02 -0.15666372316E+03  0.19888445874E+03  0.00000000000E+00 0.  1.
         21    1    1    2  505  502 -0.50742141503E+01  0.49468626103E+02  0.18177669058E+02  0.52946390530E+02  0.00000000000E+00 0. -1.
          2    1    1    2  501    0 -0.58656762840E+02 -0.27285886633E+02 -0.19236279507E+02  0.67491998678E+02  0.00000000000E+00 0.  1.
<scales pt_clust_3="14000.00000" pt_clust_4="88.73340" pt_clust_5="49.72819" pt_clust_6="63.68808"></scales>
<clustering>
<clus scale="   49.728">  1  5  2 -1</clus>
<clus scale="   63.688">  2  6  1 -1</clus>
<clus scale="   88.733">  2  4  1 -1</clus>
<clus scale="   49.728">  1  3  2 -1</clus>
</clustering>
</event>
<event>
 6    0  0.4945982E+002  0.1493882E+03  0.7546771E-02  0.1201227E+00
         21   -1    0    0  501  502  0.00000000000E+00  0.00000000000E+00  0.87401169750E+03  0.87401169750E+03  0.00000000000E+00 0. -1.
          2   -1    0    0  504    0 -0.00000000000E+00 -0.00000000000E+00 -0.27750992714E+04  0.27750992714E+04  0.00000000000E+00 0.  1.
         21    1    1    2  503  502 -0.32839779883E+02  0.83868240809E+01  0.60119396574E+03  0.60214863149E+03  0.00000000000E+00 0. -1.
         21    1    1    2  504  505 -0.62867499484E+02 -0.29468422436E+01  0.11047408035E+03  0.12714373284E+03  0.00000000000E+00 0.  1.
         21    1    1    2  505  503 -0.47399574609E+02 -0.29014410894E+02  0.14653458339E+03  0.15671930271E+03  0.00000000000E+00 0. -1.
          2    1    1    2  501    0  0.14310685398E+03  0.23574429057E+02 -0.27592902034E+04  0.27630993019E+04  0.00000000000E+00 0.  1.
<scales pt_clust_3="33.89380" pt_clust_4="34.92772" pt_clust_5="34.92772" pt_clust_6="144.81856"></scales>
<clustering>
<clus scale="   33.894">  1  3  2 -1</clus>
<clus scale="   34.928">  4  5 -1 -1</clus>
<clus scale="  144.819">  2  6  1 -1</clus>
<clus scale="   33.894">  1  3  2 -1</clus>
</clustering>
</event>
<event>
 6    0  0.4945982E+002  0.1161457E+03  0.7546771E-02  0.1249594E+00
         21   -1    0    0  505  502  0.00000000000E+00  0.00000000000E+00  0.10234942103E+03  0.10234942103E+03  0.00000000000E+00 0. -1.
          2   -1    0    0  503    0 -0.00000000000E+00 -0.00000000000E+00 -0.68779971575E+03  0.68779971575E+03  0.00000000000E+00 0. -1.
         21    1    1    2  503  504 -0.24918486665E+02 -0.24540144972E+02 -0.68239198892E+02  0.76679449387E+02  0.00000000000E+00 0. -1.
         21    1    1    2  504  502 -0.85075437804E+02 -0.61845333488E+02 -0.18322186400E+02  0.10676318610E+03  0.00000000000E+00 0. -1.
         21    1    1    2  505  501  0.14568090595E+03  0.13581887457E+02 -0.56329776501E+02  0.15678149682E+03  0.00000000000E+00 0. -1.
          2    1    1    2  501    0 -0.35686981477E+02  0.72803591003E+02 -0.44255913293E+03  0.44992500447E+03  0.00000000000E+00 0. -1.
<scales pt_clust_3="34.97356" pt_clust_4="116.14575" pt_clust_5="14000.00000" pt_clust_6="76.91350"></scales>
<clustering>
<clus scale="   34.974">  2  3  1 -1</clus>
<clus scale="   76.914">  2  6  1 -1</clus>
<clus scale="  116.146">  1  4  2 -1</clus>
<clus scale="  116.146">  1  3  2 -1</clus>
</clustering>
</event>
<event>
 6    0  0.4945982E+002  0.7238138E+02  0.7546771E-02  0.1352177E+00
         -2   -1    0    0    0  501 -0.00000000000E+00  0.00000000000E+00  0.13015362833E+03  0.13015362833E+03  0.00000000000E+00 0. -1.
         21   -1    0    0  503  502  0.00000000000E+00 -0.00000000000E+00 -0.21647661042E+03  0.21647661042E+03  0.00000000000E+00 0. -1.
         21    1    1    2  503  504 -0.33143733871E+02  0.17849269280E+01 -0.71668719226E+02  0.78981633147E+02  0.00000000000E+00 0. -1.
         21    1    1    2  504  501 -0.87000564117E+02 -0.42843013787E+02 -0.18231343503E+02  0.98676257899E+02  0.00000000000E+00 0. -1.
         21    1    1    2  505  502  0.77818476012E+02  0.38469607285E+01 -0.48882115037E+02  0.91978125041E+02  0.00000000000E+00 0.  1.
         -2    1    1    2    0  505  0.42325821976E+02  0.37211126130E+02  0.52459195675E+02  0.76994222671E+02  0.00000000000E+00 0. -1.
<scales pt_clust_3="33.19176" pt_clust_4="72.38138" pt_clust_5="14000.00000" pt_clust_6="54.33386"></scales>
<clustering>
<clus scale="   33.192">  2  3  1 -1</clus>
<clus scale="   54.334">  1  6  2 -1</clus>
<clus scale="   72.381">  1  4  2 -1</clus>
<clus scale="   33.192">  2  3  1 -1</clus>
</clustering>
</event>
<event>
 6    0  0.4945982E+002  0.1388419E+03  0.7546771E-02  0.1214896E+00
         21   -1    0    0  501  502  0.00000000000E+00  0.00000000000E+00  0.29579001743E+02  0.29579001743E+02  0.00000000000E+00 0.  1.
          2   -1    0    0  505    0 -0.00000000000E+00 -0.00000000000E+00 -0.18287842464E+04  0.18287842464E+04  0.00000000000E+00 0. -1.
         21    1    1    2  503  504 -0.38393266328E+02  0.87041973198E+02 -0.16018494162E+03  0.18630502817E+03  0.00000000000E+00 0.  1.
         21    1    1    2  504  502 -0.89441632583E+01  0.40807381984E+02 -0.22335148426E+02  0.47371925610E+02  0.00000000000E+00 0.  1.
         21    1    1    2  505  503 -0.22703247632E+02 -0.55036647373E+02 -0.66093443964E+03  0.66361043053E+03  0.00000000000E+00 0.  1.
          2    1    1    2  501    0  0.70040677219E+02 -0.72812707810E+02 -0.95575071501E+03  0.96107586388E+03  0.00000000000E+00 0. -1.
<scales pt_clust_3="34.46552" pt_clust_4="34.46552" pt_clust_5="59.53545" pt_clust_6="128.73241"></scales>
<clustering>
<clus scale="   34.466">  3  4 -1 -1</clus>
<clus scale="   59.535">  2  5  1 -1</clus>
<clus scale="  128.732">  2  6  1 -1</clus>
<clus scale="  138.842">  1  3  2 -1</clus>
</clustering>
</event>
<event>
 6    0  0.4945982E+002  0.1110854E+03  0.7546771E-02  0.1258573E+00
         21   -1    0    0  504  502  0.00000000000E+00  0.00000000000E+00  0.26824677772E+03  0.26824677772E+03  0.00000000000E+00 0.  1.
          1   -1    0    0  503    0 -0.00000000000E+00 -0.00000000000E+00 -0.36356310536E+03  0.36356310536E+03  0.00000000000E+00 0.  1.
         21    1    1    2  503  505 -0.13143327429E+02 -0.11761879088E+03  0.17579140250E+02  0.11964929250E+03  0.00000000000E+00 0.  1.
         21    1    1    2  504  501 -0.34543951292E+02 -0.15049680857E+01  0.92724588191E+02  0.98961602427E+02  0.00000000000E+00 0. -1.
         21    1    1    2  505  502  0.11958534679E+03  0.29169455029E+02  0.49983093747E+02  0.13285263239E+03  0.00000000000E+00 0.  1.
          1    1    1    2  501    0 -0.71898068064E+02  0.89954303933E+02 -0.25560314983E+03  0.28034635577E+03  0.00000000000E+00 0.  1.
<scales pt_clust_3="14000.00000" pt_clust_4="34.57672" pt_clust_5="105.16748" pt_clust_6="111.08544"></scales>
<clustering>
<clus scale="   34.577">  1  4  2 -1</clus>
<clus scale="  105.167">  1  5  2 -1</clus>
<clus scale="  111.085">  2  6  1 -1</clus>
<clus scale="   34.577">  1  3  2 -1</clus>
</clustering>
</event>
<event>
 6    0  0.4945982E+002  0.9961213E+02  0.7546771E-02  0.1281114E+00
         21   -1    0    0  501  502  0.00000000000E+00  0.00000000000E+00  0.65334957423E+02  0.65334957423E+02  0.00000000000E+00 0. -1.
          2   -1    0    0  505    0 -0.00000000000E+00 -0.00000000000E+00 -0.24521709747E+04  0.24521709747E+04  0.00000000000E+00 0. -1.
         21    1    1    2  503  504 -0.11312769372E+03 -0.73845610869E+02 -0.88845294390E+02  0.16169271989E+03  0.00000000000E+00 0. -1.
         21    1    1    2  504  502  0.22192875708E+02  0.30329907091E+02  0.11932005895E+02  0.39430949278E+02  0.00000000000E+00 0. -1.
         21    1    1    2  505  503  0.56281471966E+02  0.53547581692E+02 -0.49147830940E+03  0.49758001990E+03  0.00000000000E+00 0. -1.
          2    1    1    2  501    0  0.34653346041E+02 -0.10031877915E+02 -0.18184444193E+04  0.18188022430E+04  0.00000000000E+00 0. -1.
<scales pt_clust_3="99.61213" pt_clust_4="37.85781" pt_clust_5="14000.00000" pt_clust_6="36.07621"></scales>
<clustering>
<clus scale="   36.076">  2  6  1 -1</clus>
<clus scale="   37.858">  1  4  2 -1</clus>
<clus scale="   99.612">  1  3  2 -1</clus>
<clus scale="   37.858">  1  3  2 -1</clus>
</clustering>
</event>
<event>
 6    0  0.4945982E+002  0.7563455E+02  0.7546771E-02  0.1341917E+00
         -1   -1    0    0    0  501 -0.00000000000E+00  0.00000000000E+00  0.17817444598E+04  0.17817444598E+04  0.00000000000E+00 0. -1.
         21   -1    0    0  505  502  0.00000000000E+00 -0.00000000000E+00 -0.76230706250E+02  0.76230706250E+02  0.00000000000E+00 0.  1.
         21    1    1    2  503  502  0.21125387003E+02  0.65885798442E+02  0.16464584385E+03  0.17859304105E+03  0.00000000000E+00 0. -1.
         21    1    1    2  504  501 -0.46059165307E+02  0.32462870346E+02  0.39713517566E+03  0.40111299207E+03  0.00000000000E+00 0. -1.
         21    1    1    2  505  504  0.46820729626E+02 -0.24763364188E+02 -0.55420722936E+02  0.76660690444E+02  0.00000000000E+00 0.  1.
         -1    1    1    2    0  503 -0.21886951322E+02 -0.73585304600E+02  0.11991534569E+04  0.12016084425E+04  0.00000000000E+00 0. -1.
<scales pt_clust_3="75.63455" pt_clust_4="46.11419" pt_clust_5="52.96607" pt_clust_6="14000.00000"></scales>
<clustering>
<clus scale="   52.966">  2  5  1 -1</clus>
<clus scale="   46.114">  2  4  1 -1</clus>
<clus scale="   75.635">  2  3  1 -1</clus>
<clus scale="   52.966">  2  3  1 -1</clus>
</clustering>
</event>
<event>
 6    0  0.4945982E+002  0.1371207E+03  0.7546771E-02  0.1217257E+00
          3   -1    0    0  504    0 -0.00000000000E+00  0.00000000000E+00  0.97642668506E+03  0.97642668506E+03  0.00000000000E+00 0. -1.
         21   -1    0    0  503  502  0.00000000000E+00 -0.00000000000E+00 -0.17845976763E+03  0.17845976763E+03  0.00000000000E+00 0. -1.
         21    1    1    2  503  501 -0.12591077191E+03 -0.59568913391E+02 -0.13515483116E+03  0.19408453393E+03  0.00000000000E+00 0. -1.
         21    1    1    2  504  505  0.28246616192E+02  0.51316895415E+02  0.14514706554E+03  0.15652145449E+03  0.00000000000E+00 0. -1.
         21    1    1    2  505  502  0.72188132155E+02  0.53149251571E+02  0.66346660487E+03  0.66949526148E+03  0.00000000000E+00 0.  1.
          3    1    1    2  501    0  0.25476023558E+02 -0.44897233595E+02  0.12450807818E+03  0.13478520279E+03  0.00000000000E+00 0. -1.
<scales pt_clust_3="137.12066" pt_clust_4="54.32685" pt_clust_5="14000.00000" pt_clust_6="51.62160"></scales>
<clustering>
<clus scale="   51.622">  1  6  2 -1</clus>
<clus scale="   54.327">  1  4  2 -1</clus>
<clus scale="  137.121">  2  3  1 -1</clus>
<clus scale="  137.121">  2  3  1 -1</clus>
</clustering>
</event>
<event>
 6    0  0.4945982E+002  0.2335606E+03  0.7546771E-02  0.1124158E+00
         21   -1    0    0  501  502  0.00000000000E+00  0.00000000000E+00  0.42133665341E+03  0.42133665341E+03  0.00000000000E+00 0. -1.
          2   -1    0    0  504    0 -0.00000000000E+00 -0.00000000000E+00 -0.76712328761E+03  0.76712328761E+03  0.00000000000E+00 0. -1.
         21    1    1    2  503  505  0.34446577844E+01  0.93360721404E+02  0.17058138788E+03  0.19448933096E+03  0.00000000000E+00 0. -1.
         21    1    1    2  504  503 -0.32843469273E+02  0.11856091089E+03  0.13359380397E+03  0.18161136397E+03  0.00000000000E+00 0. -1.
         21    1    1    2  505  502 -0.36040733833E+02  0.59662695155E+01  0.58108775181E+02  0.68637894928E+02  0.00000000000E+00 0. -1.
          2    1    1    2  501    0  0.65439545321E+02 -0.21788790181E+03 -0.70807060122E+03  0.74372135115E+03  0.00000000000E+00 0. -1.
<scales pt_clust_3="48.53655" pt_clust_4="48.53655" pt_clust_5="36.53123" pt_clust_6="226.70779"></scales>
<clustering>
<clus scale="   36.531">  1  5  2 -1</clus>
<clus scale="   48.537">  3  4 -1 -1</clus>
<clus scale="  226.708">  2  6  1 -1</clus>
<clus scale="   36.531">  1  3  2 -1</clus>
</clustering>
</event>
<event>
 6    0  0.4945982E+002  0.8572909E+02  0.7546771E-02  0.1313537E+00
         21   -1    0    0  503  502  0.00000000000E+00  0.00000000000E+00  0.16391097113E+03  0.16391097113E+03  0.00000000000E+00 0. -1.
          2   -1    0    0  504    0 -0.00000000000E+00 -0.00000000000E+00 -0.24111388761E+03  0.24111388761E+03  0.00000000000E+00 0. -1.
         21    1    1    2  503  505  0.29493751282E+02  0.13912135754E+02  0.42669070414E+02  0.53703616786E+02  0.00000000000E+00 0. -1.
         21    1    1    2  504  502 -0.40656575678E+02  0.10913142376E+03  0.49679834974E+02  0.12661244331E+03  0.00000000000E+00 0. -1.
         21    1    1    2  505  501  0.97619832404E+01 -0.40140829678E+02 -0.65448286991E+01  0.41826036230E+02  0.00000000000E+00 0. -1.
          2    1    1    2  501    0  0.14008411557E+01 -0.82902729832E+02 -0.16300699317E+03  0.18288276242E+03  0.00000000000E+00 0. -1.
<scales pt_clust_3="32.61026" pt_clust_4="14000.00000" pt_clust_5="40.60563" pt_clust_6="85.72909"></scales>
<clustering>
<clus scale="   32.610">  1  3  2 -1</clus>
<clus scale="   40.606">  1  5  2 -1</clus>
<clus scale="   85.729">  2  6  1 -1</clus>
<clus scale="   32.610">  1  3  2 -1</clus>
</clustering>
</event>
<event>
 6    0  0.4945982E+002  0.1438795E+03  0.7546771E-02  0.1208202E+00
         21   -1    0    0  505  502  0.00000000000E+00  0.00000000000E+00  0.11568723898E+04  0.11568723898E+04  0.00000000000E+00 0.  1.
          2   -1    0    0  503    0 -0.00000000000E+00 -0.00000000000E+00 -0.39407315141E+04  0.39407315141E+04  0.00000000000E+00 0. -1.
         21    1    1    2  503  504  0.42765077166E+02  0.27711907933E+02 -0.90828013103E+02  0.10414667364E+03  0.00000000000E+00 0. -1.
         21    1    1    2  504  502  0.21107230419E+02  0.14102803996E+03  0.11014534014E+04  0.11106457665E+04  0.00000000000E+00 0.  1.
         21    1    1    2  505  501 -0.43452274563E+02 -0.21848677179E+03 -0.23825284557E+03  0.32617324850E+03  0.00000000000E+00 0. -1.
          2    1    1    2  501    0 -0.20420033021E+02  0.49746823903E+02 -0.35562316671E+04  0.35566382152E+04  0.00000000000E+00 0. -1.
<scales pt_clust_3="50.95882" pt_clust_4="14000.00000" pt_clust_5="143.87954" pt_clust_6="77.78570"></scales>
<clustering>
<clus scale="   50.959">  2  3  1 -1</clus>
<clus scale="   77.786">  2  6  1 -1</clus>
<clus scale="  143.880">  2  5  1 -1</clus>
<clus scale="  143.880">  1  3  2 -1</clus>
</clustering>
</event>
<event>
 6    0  0.4945982E+002  0.2564704E+03  0.7546771E-02  0.1109283E+00
         21   -1    0    0  503  502  0.00000000000E+00  0.00000000000E+00  0.14225015045E+03  0.14225015045E+03  0.00000000000E+00 0.  1.
          2   -1    0    0  505    0 -0.00000000000E+00 -0.00000000000E+00 -0.11655236192E+04  0.11655236192E+04  0.00000000000E+00 0.  1.
         21    1    1    2  503  501 -0.13988080205E+02  0.26879454963E+02 -0.76740703597E+01  0.31258004459E+02  0.00000000000E+00 0. -1.
         21    1    1    2  504  502 -0.77154627288E+02 -0.10804548670E+03 -0.34831674600E+02  0.13725854897E+03  0.00000000000E+00 0.  1.
         21    1    1    2  505  504 -0.56479156654E+02 -0.12336777016E+03 -0.97721568601E+01  0.13603307282E+03  0.00000000000E+00 0.  1.
          2    1    1    2  501    0  0.14762186415E+03  0.20453380190E+03 -0.97099556689E+03  0.10032241434E+04  0.00000000000E+00 0.  1.
<scales pt_clust_3="30.30134" pt_clust_4="35.81304" pt_clust_5="35.81304" pt_clust_6="253.94556"></scales>
<clustering>
<clus scale="   30.301">  1  3  2 -1</clus>
<clus scale="   35.813">  4  5 -1 -1</clus>
<clus scale="  253.946">  2  6  1 -1</clus>
<clus scale="   30.301">  1  3  2 -1</clus>
</clustering>
</event>
<event>
 6    0  0.4945982E+002  0.1100205E+03  0.7546771E-02  0.1260532E+00
          2   -1    0    0  503    0 -0.00000000000E+00  0.00000000000E+00  0.41557284687E+03  0.41557284687E+03  0.00000000000E+00 0.  1.
         21   -1    0    0  504  502  0.00000000000E+00 -0.00000000000E+00 -0.26558411972E+03  0.26558411972E+03  0.00000000000E+00 0. -1.
         21    1    1    2  503  502  0.11300385221E+03 -0.77695771628E+02 -0.11037182169E+03  0.17603534465E+03  0.00000000000E+00 0. -1.
         21    1    1    2  504  505 -0.91713509005E+02 -0.35186966828E+02 -0.58592154526E+02  0.11437889202E+03  0.00000000000E+00 0.  1.
         21    1    1    2  505  501  0.17558818996E+02  0.11605722984E+03  0.65712613150E+02  0.13452040831E+03  0.00000000000E+00 0. -1.
          2    1    1    2  501    0 -0.38849162198E+02 -0.31744913874E+01  0.25324009022E+03  0.25622232162E+03  0.00000000000E+00 0.  1.
<scales pt_clust_3="14000.00000" pt_clust_4="104.73645" pt_clust_5="110.02047" pt_clust_6="38.97865"></scales>
<clustering>
<clus scale="   38.979">  1  6  2 -1</clus>
<clus scale="  104.736">  2  4  1 -1</clus>
<clus scale="  110.020">  1  5  2 -1</clus>
<clus scale="  104.736">  2  3  1 -1</clus>
</clustering>
</event>
<event>
 6    0  0.4945982E+002  0.9533530E+02  0.7546771E-02  0.1290423E+00
          1   -1    0    0  503    0 -0.00000000000E+00  0.00000000000E+00  0.26951660179E+04  0.26951660179E+04  0.00000000000E+00 0. -1.
         21   -1    0    0  505  502  0.00000000000E+00 -0.00000000000E+00 -0.48422172761E+02  0.48422172761E+02  0.00000000000E+00 0. -1.
         21    1    1    2  503  504  0.32616438204E+02 -0.40455671235E+01  0.17533717983E+03  0.17839093387E+03  0.00000000000E+00 0.  1.
         21    1    1    2  504  502 -0.67636365368E+02  0.77021757010E+02  0.42128059096E+02  0.11082329329E+03  0.00000000000E+00 0. -1.
         21    1    1    2  505  501  0.43751361136E+01 -0.93655544099E+02  0.16487690796E+03  0.18967049727E+03  0.00000000000E+00 0.  1.
          1    1    1    2  501    0  0.30644791051E+02  0.20679354212E+02  0.22644016982E+04  0.22647034662E+04  0.00000000000E+00 0. -1.
<scales pt_clust_3="32.86638" pt_clust_4="95.33530" pt_clust_5="14000.00000" pt_clust_6="62.34884"></scales>
<clustering>
<clus scale="   32.866">  1  3  2 -1</clus>
<clus scale="   62.349">  1  6  2 -1</clus>
<clus scale="   95.335">  2  4  1 -1</clus>
<clus scale="   95.335">  2  3  1 -1</clus>
</clustering>
</event>
<event>
 6    0  0.4945982E+002  0.7106629E+02  0.7546771E-02  0.1356504E+00
          2   -1    0    0  503    0 -0.00000000000E+00  0.00000000000E+00  0.19604305120E+03  0.19604305120E+03  0.00000000000E+00 0. -1.
         21   -1    0    0  504  502  0.00000000000E+00 -0.00000000000E+00 -0.14202388393E+03  0.14202388393E+03  0.00000000000E+00 0. -1.
         21    1    1    2  503  502 -0.65724333066E+01  0.72789691719E+02 -0.32455084089E+02  0.79967922214E+02  0.00000000000E+00 0. -1.
         21    1    1    2  504  505 -0.50728665556E+02 -0.10766680346E+02 -0.10213040647E+02  0.52854754886E+02  0.00000000000E+00 0. -1.
         21    1    1    2  505  501  0.95447355298E+02 -0.22778866583E+02  0.47406745674E+01  0.98242294312E+02  0.00000000000E+00 0. -1.
          2    1    1    2  501    0 -0.38146256436E+02 -0.39244144790E+02  0.91946617439E+02  0.10700196372E+03  0.00000000000E+00 0. -1.
<scales pt_clust_3="71.06629" pt_clust_4="51.85864" pt_clust_5="14000.00000" pt_clust_6="57.69726"></scales>
<clustering>
<clus scale="   51.859">  2  4  1 -1</clus>
<clus scale="   57.697">  1  6  2 -1</clus>
<clus scale="   71.066">  2  3  1 -1</clus>
<clus scale="   51.859">  2  3  1 -1</clus>
</clustering>
</event>
<event>
 6    0  0.4945982E+002  0.1455461E+03  0.7546771E-02  0.1206055E+00
          1   -1    0    0  503    0 -0.00000000000E+00  0.00000000000E+00  0.45809767214E+03  0.45809767214E+03  0.00000000000E+00 0. -1.
         21   -1    0    0  504  502  0.00000000000E+00 -0.00000000000E+00 -0.33173585255E+03  0.33173585255E+03  0.00000000000E+00 0. -1.
         21    1    1    2  503  502  0.86763924604E+02 -0.19752546457E+02  0.52646228885E+02  0.10339133000E+03  0.00000000000E+00 0. -1.
         21    1    1    2  504  505 -0.39165874860E+02 -0.72934973249E+00 -0.45655265372E+02  0.60157301807E+02  0.00000000000E+00 0. -1.
         21    1    1    2  505  501 -0.92762950561E+02  0.67794895847E+02 -0.23730738716E+03  0.26365869775E+03  0.00000000000E+00 0. -1.
          1    1    1    2  501    0  0.45164900816E+02 -0.47312999658E+02  0.35667824323E+03  0.36262619513E+03  0.00000000000E+00 0. -1.
<scales pt_clust_3="135.26905" pt_clust_4="31.36767" pt_clust_5="31.36767" pt_clust_6="65.40939"></scales>
<clustering>
<clus scale="   31.368">  4  5 -1 -1</clus>
<clus scale="   65.409">  1  6  2 -1</clus>
<clus scale="  135.269">  1  3  2 -1</clus>
<clus scale="  145.546">  2  3  1 -1</clus>
</clustering>
</event>
<event>
 6    0  0.4945982E+002  0.3401691E+03  0.7546771E-02  0.1066724E+00
          2   -1    0    0  504    0 -0.00000000000E+00  0.00000000000E+00  0.10642191156E+04  0.10642191156E+04  0.00000000000E+00 0.  1.
         21   -1    0    0  503  502  0.00000000000E+00 -0.00000000000E+00 -0.21298424237E+04  0.21298424237E+04  0.00000000000E+00 0.  1.
         21    1    1    2  503  501 -0.22774823347E+03  0.34166946006E+03 -0.72862514159E+03  0.83636228677E+03  0.00000000000E+00 0.  1.
         21    1    1    2  504  505  0.66637988745E+02 -0.34442674767E+02 -0.36775992718E+03  0.37533223074E+03  0.00000000000E+00 0.  1.
         21    1    1    2  505  502  0.16758470956E+02 -0.23677392819E+03 -0.95476876307E+03  0.98383236903E+03  0.00000000000E+00 0.  1.
          2    1    1    2  501    0  0.14435177377E+03 -0.70452857104E+02  0.98553052371E+03  0.99853465279E+03  0.00000000000E+00 0.  1.
<scales pt_clust_3="313.02105" pt_clust_4="74.85961" pt_clust_5="74.85961" pt_clust_6="160.62702"></scales>
<clustering>
<clus scale="   74.860">  4  5 -1 -1</clus>
<clus scale="  160.627">  1  6  2 -1</clus>
<clus scale="  313.021">  1  3  2 -1</clus>
<clus scale="  340.169">  2  3  1 -1</clus>
</clustering>
</event>
<event>
 6    0  0.4945982E+002  0.1023877E+03  0.7546771E-02  0.1275354E+00
         -4   -1    0    0    0  501 -0.00000000000E+00  0.00000000000E+00  0.88314338734E+03  0.88314338734E+03  0.00000000000E+00 0. -1.
         21   -1    0    0  504  502  0.00000000000E+00 -0.00000000000E+00 -0.33878305306E+03  0.33878305306E+03  0.00000000000E+00 0. -1.
         21    1    1    2  503  502 -0.62800660898E+01 -0.67311687548E+02  0.20582448530E+01  0.67635337528E+02  0.00000000000E+00 0. -1.
         21    1    1    2  504  501 -0.30557386369E+02  0.76146351567E+02 -0.23372427611E+03  0.24770760578E+03  0.00000000000E+00 0. -1.
         21    1    1    2  505  503 -0.25563274810E+02 -0.51407194511E+02 -0.50590782896E+02  0.76521944438E+02  0.00000000000E+00 0.  1.
         -4    1    1    2    0  505  0.62400727269E+02  0.42572530493E+02  0.82661714843E+03  0.83006155266E+03  0.00000000000E+00 0. -1.
<scales pt_clust_3="53.08086" pt_clust_4="84.64931" pt_clust_5="53.08086" pt_clust_6="75.53986"></scales>
<clustering>
<clus scale="   53.081">  3  5 -1 -1</clus>
<clus scale="   75.540">  1  6  2 -1</clus>
<clus scale="   84.649">  2  4  1 -1</clus>
<clus scale="   84.649">  2  3  1 -1</clus>
</clustering>
</event>
<event>
 6    0  0.4945982E+002  0.1189600E+03  0.7546771E-02  0.1244823E+00
          3   -1    0    0  503    0 -0.00000000000E+00  0.00000000000E+00  0.17311347086E+03  0.17311347086E+03  0.00000000000E+00 0. -1.
         21   -1    0    0  505  502  0.00000000000E+00 -0.00000000000E+00 -0.56667770344E+03  0.56667770344E+03  0.00000000000E+00 0. -1.
         21    1    1    2  503  504 -0.24768711789E+02  0.41840097857E+02 -0.20551659672E+02  0.52786869462E+02  0.00000000000E+00 0.  1.
         21    1    1    2  504  502  0.43656884818E+02 -0.67820827369E+02 -0.42708224308E+03  0.43463183336E+03  0.00000000000E+00 0. -1.
         21    1    1    2  505  501  0.39534042254E+02 -0.29768113660E+02 -0.81048099782E+02  0.94962495577E+02  0.00000000000E+00 0.  1.
          3    1    1    2  501    0 -0.58422215283E+02  0.55748843172E+02  0.13511776996E+03  0.15740997590E+03  0.00000000000E+00 0. -1.
<scales pt_clust_3="48.62184" pt_clust_4="14000.00000" pt_clust_5="47.50316" pt_clust_6="118.96000"></scales>
<clustering>
<clus scale="   48.622">  1  3  2 -1</clus>
<clus scale="   47.503">  2  5  1 -1</clus>
<clus scale="  118.960">  1  6  2 -1</clus>
<clus scale="   47.503">  2  3  1 -1</clus>
</clustering>
</event>
<event>
 6    0  0.4945982E+002  0.1827857E+03  0.7546771E-02  0.1165134E+00
         21   -1    0    0  503  502  0.00000000000E+00  0.00000000000E+00  0.59102451946E+03  0.59102451946E+03  0.00000000000E+00 0.  1.
          3   -1    0    0  504    0 -0.00000000000E+00 -0.00000000000E+00 -0.76250002642E+03  0.76250002642E+03  0.00000000000E+00 0. -1.
         21    1    1    2  503  501  0.14198101394E+03  0.36069380055E+02 -0.18840852366E+03  0.23865745387E+03  0.00000000000E+00 0. -1.
         21    1    1    2  504  505  0.52019793359E+02 -0.34078492219E+02 -0.18006505817E+03  0.19050151629E+03  0.00000000000E+00 0.  1.
         21    1    1    2  505  502 -0.18219914122E+03 -0.34380334916E+02  0.54447668425E+03  0.57518118379E+03  0.00000000000E+00 0.  1.
          3    1    1    2  501    0 -0.11801666076E+02  0.32389447081E+02 -0.34747860937E+03  0.34918439194E+03  0.00000000000E+00 0. -1.
<scales pt_clust_3="14000.00000" pt_clust_4="50.67899" pt_clust_5="182.78571" pt_clust_6="34.47253"></scales>
<clustering>
<clus scale="   34.473">  2  6  1 -1</clus>
<clus scale="   50.679">  2  4  1 -1</clus>
<clus scale="  182.786">  1  5  2 -1</clus>
<clus scale="  182.786">  1  3  2 -1</clus>
</clustering>
</event>
<event>
 6    0  0.4945982E+002  0.1204639E+03  0.7546771E-02  0.1242334E+00
          3   -1    0    0  503    0 -0.00000000000E+00  0.00000000000E+00  0.62617116073E+02  0.62617116073E+02  0.00000000000E+00 0.  1.
         21   -1    0    0  505  502  0.00000000000E+00 -0.00000000000E+00 -0.15923048980E+04  0.15923048980E+04  0.00000000000E+00 0.  1.
         21    1    1    2  503  502 -0.44735129433E+01  0.40018100257E+02 -0.16855543989E+03  0.17329857756E+03  0.00000000000E+00 0.  1.
         21    1    1    2  504  501  0.42869510028E+02 -0.94973544009E+02 -0.64832166673E+03  0.65664202767E+03  0.00000000000E+00 0.  1.
         21    1    1    2  505  504 -0.84574339164E+01 -0.63652206291E+02 -0.69892455113E+03  0.70186797884E+03  0.00000000000E+00 0.  1.
          3    1    1    2  501    0 -0.29938563168E+02  0.11860765004E+03 -0.13886124227E+02  0.12311343005E+03  0.00000000000E+00 0.  1.
<scales pt_clust_3="40.26736" pt_clust_4="14000.00000" pt_clust_5="45.20815" pt_clust_6="120.46390"></scales>
<clustering>
<clus scale="   40.267">  2  3  1 -1</clus>
<clus scale="   45.208">  2  5  1 -1</clus>
<clus scale="  120.464">  1  6  2 -1</clus>
<clus scale="   40.267">  2  3  1 -1</clus>
</clustering>
</event>
<event>
 6    0  0.4945982E+002  0.8157621E+02  0.7546771E-02  0.1324637E+00
          2   -1    0    0  503    0 -0.00000000000E+00  0.00000000000E+00  0.31935833344E+04  0.31935833344E+04  0.00000000000E+00 0.  1.
         21   -1    0    0  505  502  0.00000000000E+00 -0.00000000000E+00 -0.20020645098E+02  0.20020645098E+02  0.00000000000E+00 0.  1.
         21    1    1    2  503  502  0.36886827638E+02  0.32781672495E+02  0.19022133354E+03  0.19651827354E+03  0.00000000000E+00 0.  1.
         21    1    1    2  504  501 -0.39597699698E+02 -0.52104793168E+02  0.25208486569E+03  0.26044129243E+03  0.00000000000E+00 0.  1.
         21    1    1    2  505  504 -0.69496832604E+00 -0.66647610206E+02  0.80584874149E+02  0.10457680847E+03  0.00000000000E+00 0.  1.
          2    1    1    2  501    0  0.34058403853E+01  0.85970730879E+02  0.26506716159E+04  0.26520676051E+04  0.00000000000E+00 0.  1.
<scales pt_clust_3="49.34852" pt_clust_4="14000.00000" pt_clust_5="50.30120" pt_clust_6="81.57621"></scales>
<clustering>
<clus scale="   49.349">  2  3  1 -1</clus>
<clus scale="   50.301">  2  5  1 -1</clus>
<clus scale="   81.576">  1  6  2 -1</clus>
<clus scale="   49.349">  2  3  1 -1</clus>
</clustering>
</event>
<event>
 6    0  0.4945982E+002  0.1084857E+03  0.7546771E-02  0.1263400E+00
         21   -1    0    0  504  502  0.00000000000E+00  0.00000000000E+00  0.19963090309E+02  0.19963090309E+02  0.00000000000E+00 0.  1.
          1   -1    0    0  503    0 -0.00000000000E+00 -0.00000000000E+00 -0.35629107976E+04  0.35629107976E+04  0.00000000000E+00 0. -1.
         21    1    1    2  503  505 -0.29142671691E+02  0.25276298647E+02 -0.96961113539E+02  0.10435345766E+03  0.00000000000E+00 0.  1.
         21    1    1    2  504  501  0.69753268396E+02 -0.31513144389E+02 -0.58620048469E+03  0.59117645840E+03  0.00000000000E+00 0.  1.
         21    1    1    2  505  502 -0.20677754401E+02  0.74671842910E+02 -0.99368100392E+02  0.12600584521E+03  0.00000000000E+00 0.  1.
          1    1    1    2  501    0 -0.19932842305E+02 -0.68434997169E+02 -0.27604180087E+04  0.27613381266E+04  0.00000000000E+00 0. -1.
<scales pt_clust_3="31.93644" pt_clust_4="98.59315" pt_clust_5="31.93644" pt_clust_6="71.27880"></scales>
<clustering>
<clus scale="   31.936">  3  5 -1 -1</clus>
<clus scale="   71.279">  2  6  1 -1</clus>
<clus scale="   98.593">  2  4  1 -1</clus>
<clus scale="  108.486">  1  3  2 -1</clus>
</clustering>
</event>
<event>
 6    0  0.4945982E+002  0.1377211E+03  0.7546771E-02  0.1216429E+00
          1   -1    0    0  505    0 -0.00000000000E+00  0.00000000000E+00  0.30411555944E+04  0.30411555944E+04  0.00000000000E+00 0.  1.
         21   -1    0    0  503  502  0.00000000000E+00 -0.00000000000E+00 -0.36948114055E+02  0.36948114055E+02  0.00000000000E+00 0. -1.
         21    1    1    2  503  504 -0.58581288193E+02  0.20433051847E+02  0.23817007155E+03  0.24611838598E+03  0.00000000000E+00 0. -1.
         21    1    1    2  504  501  0.78823961094E+02  0.15368849901E+03  0.11977579567E+04  0.12101477159E+04  0.00000000000E+00 0.  1.
         21    1    1    2  505  502 -0.85963083907E+02 -0.66505830574E+02  0.98563712478E+02  0.14672246833E+03  0.00000000000E+00 0. -1.
          1    1    1    2  501    0  0.65720411006E+02 -0.10761572028E+03  0.14697157397E+04  0.14751151382E+04  0.00000000000E+00 0.  1.
<scales pt_clust_3="62.04254" pt_clust_4="14000.00000" pt_clust_5="137.72112" pt_clust_6="122.21140"></scales>
<clustering>
<clus scale="   62.043">  2  3  1 -1</clus>
<clus scale="  122.211">  1  6  2 -1</clus>
<clus scale="  137.721">  2  5  1 -1</clus>
<clus scale="   62.043">  2  3  1 -1</clus>
</clustering>
</event>
<event>
 6    0  0.4945982E+002  0.1010705E+03  0.7546771E-02  0.1278061E+00
         21   -1    0    0  501  502  0.00000000000E+00  0.00000000000E+00  0.55344777812E+03  0.55344777812E+03  0.00000000000E+00 0.  1.
          3   -1    0    0  504    0 -0.00000000000E+00 -0.00000000000E+00 -0.69467872885E+02  0.69467872885E+02  0.00000000000E+00 0.  1.
         21    1    1    2  503  505  0.12951922158E+03 -0.35095509991E+02  0.95395639172E+02  0.16464279989E+03  0.00000000000E+00 0.  1.
         21    1    1    2  504  503 -0.79105961587E+02 -0.41897863742E+02  0.76597286947E+02  0.11781480600E+03  0.00000000000E+00 0.  1.
         21    1    1    2  505  502 -0.28041976426E+02 -0.20529116599E+02  0.10405672894E+03  0.10970688177E+03  0.00000000000E+00 0.  1.
          3    1    1    2  501    0 -0.22371283571E+02  0.97522490332E+02  0.20793025017E+03  0.23075116335E+03  0.00000000000E+00 0.  1.
<scales pt_clust_3="101.07053" pt_clust_4="14000.00000" pt_clust_5="34.75337" pt_clust_6="94.61526"></scales>
<clustering>
<clus scale="   34.753">  1  5  2 -1</clus>
<clus scale="   94.615">  1  6  2 -1</clus>
<clus scale="  101.071">  1  3  2 -1</clus>
<clus scale="   34.753">  1  3  2 -1</clus>
</clustering>
</event>
<event>
 6    0  0.4945982E+002  0.1458680E+03  0.7546771E-02  0.1205644E+00
         -3   -1    0    0    0  501 -0.00000000000E+00  0.00000000000E+00  0.51757347482E+03  0.51757347482E+03  0.00000000000E+00 0.  1.
         21   -1    0    0  503  502  0.00000000000E+00 -0.00000000000E+00 -0.17852712453E+03  0.17852712453E+03  0.00000000000E+00 0.  1.
         21    1    1    2  503  505  0.71142627856E+02  0.76170025892E+02 -0.49620584595E+02  0.11543547444E+03  0.00000000000E+00 0.  1.
         21    1    1    2  504  501 -0.57491872030E+02 -0.10298128627E+03  0.65026152835E+02  0.13468058963E+03  0.00000000000E+00 0.  1.
         21    1    1    2  505  504  0.48485318806E+02  0.15824136723E+02 -0.47393418548E+02  0.69623024671E+02  0.00000000000E+00 0. -1.
         -3    1    1    2    0  502 -0.62136074631E+02  0.10987123657E+02  0.37103420060E+03  0.37636151062E+03  0.00000000000E+00 0.  1.
<scales pt_clust_3="31.75862" pt_clust_4="138.62292" pt_clust_5="31.75862" pt_clust_6="63.09999"></scales>
<clustering>
<clus scale="   31.759">  3  5 -1 -1</clus>
<clus scale="   63.100">  1  6  2 -1</clus>
<clus scale="  138.623">  1  4  2 -1</clus>
<clus scale="  145.868">  2  3  1 -1</clus>
</clustering>
</event>
<event>
 6    0  0.4945982E+002  0.1360966E+03  0.7546771E-02  0.1218680E+00
          2   -1    0    0  503    0 -0.00000000000E+00  0.00000000000E+00  0.25146639845E+04  0.25146639845E+04  0.00000000000E+00 0. -1.
         21   -1    0    0  504  502  0.00000000000E+00 -0.00000000000E+00 -0.16171491933E+02  0.16171491933E+02  0.00000000000E+00 0.  1.
         21    1    1    2  503  505 -0.42730983412E+02  0.85031105985E+02  0.36837688895E+03  0.38047044332E+03  0.00000000000E+00 0.  1.
         21    1    1    2  504  501  0.58986513720E+02 -0.10115873668E+03  0.57220119067E+03  0.58406052889E+03  0.00000000000E+00 0.  1.
         21    1    1    2  505  502  0.73836852858E+01  0.53692078088E+02  0.18761044976E+03  0.19528194723E+03  0.00000000000E+00 0.  1.
          2    1    1    2  501    0 -0.23639215594E+02 -0.37564447393E+02  0.13703039632E+04  0.13710225570E+04  0.00000000000E+00 0. -1.
<scales pt_clust_3="32.68079" pt_clust_4="129.02304" pt_clust_5="32.68079" pt_clust_6="44.38356"></scales>
<clustering>
<clus scale="   32.681">  3  5 -1 -1</clus>
<clus scale="   44.384">  1  6  2 -1</clus>
<clus scale="  129.023">  1  4  2 -1</clus>
<clus scale="  136.097">  2  3  1 -1</clus>
</clustering>
</event>
<event>
 6    0  0.4945982E+002  0.1497478E+03  0.7546771E-02  0.1200783E+00
         21   -1    0    0  501  502  0.00000000000E+00  0.00000000000E+00  0.10952029564E+04  0.10952029564E+04  0.00000000000E+00 0. -1.
          1   -1    0    0  503    0 -0.00000000000E+00 -0.00000000000E+00 -0.56324908062E+03  0.56324908062E+03  0.00000000000E+00 0.  1.
         21    1    1    2  503  504 -0.52875416744E+02 -0.33861782014E+02  0.14164989989E+02  0.64366737671E+02  0.00000000000E+00 0.  1.
         21    1    1    2  504  505  0.92576231890E+01 -0.92672520651E+02  0.15860824550E+03  0.18393062609E+03  0.00000000000E+00 0. -1.
         21    1    1    2  505  502 -0.48863510006E+02 -0.68605886432E+02  0.86033852282E+03  0.86445172457E+03  0.00000000000E+00 0. -1.
          1    1    1    2  501    0  0.92481303561E+02  0.19514018910E+03 -0.50115788257E+03  0.54570294865E+03  0.00000000000E+00 0.  1.
<scales pt_clust_3="62.78877" pt_clust_4="149.74775" pt_clust_5="84.45100" pt_clust_6="14000.00000"></scales>
<clustering>
<clus scale="   62.789">  2  3  1 -1</clus>
<clus scale="   84.451">  1  5  2 -1</clus>
<clus scale="  149.748">  1  4  2 -1</clus>
<clus scale="   84.451">  1  3  2 -1</clus>
</clustering>
</event>
<event>
 6    0  0.4945982E+002  0.9561688E+02  0.7546771E-02  0.1289793E+00
         -1   -1    0    0    0  501 -0.00000000000E+00  0.00000000000E+00  0.27194260368E+03  0.27194260368E+03  0.00000000000E+00 0. -1.
         21   -1    0    0  505  502  0.00000000000E+00 -0.00000000000E+00 -0.69505210673E+03  0.69505210673E+03  0.00000000000E+00 0.  1.
         21    1    1    2  503  502  0.66279863025E+00  0.66089387586E+02 -0.60637571288E+03  0.60996700864E+03  0.00000000000E+00 0.  1.
         21    1    1    2  504  501 -0.19825152608E+02  0.35257584961E+02  0.14172534163E+03  0.14738455290E+03  0.00000000000E+00 0. -1.
         21    1    1    2  505  504 -0.17700463566E+02  0.36714715275E+02  0.52339191765E+02  0.66337528766E+02  0.00000000000E+00 0. -1.
         -1    1    1    2    0  503  0.36862817543E+02 -0.13806168782E+03 -0.10798323554E+02  0.14330562010E+03  0.00000000000E+00 0. -1.
<scales pt_clust_3="66.09271" pt_clust_4="37.64379" pt_clust_5="37.64379" pt_clust_6="87.83329"></scales>
<clustering>
<clus scale="   37.644">  4  5 -1 -1</clus>
<clus scale="   66.093">  2  3  1 -1</clus>
<clus scale="   87.833">  2  6  1 -1</clus>
<clus scale="   66.093">  2  3  1 -1</clus>
</clustering>
</event>
<event>
 6    0  0.4945982E+002  0.9775397E+02  0.7546771E-02  0.1285091E+00
         21   -1    0    0  503  502  0.00000000000E+00  0.00000000000E+00  0.25848396782E+03  0.25848396782E+03  0.00000000000E+00 0. -1.
         -2   -1    0    0    0  501 -0.00000000000E+00 -0.00000000000E+00 -0.96348157642E+03  0.96348157642E+03  0.00000000000E+00 0.  1.
         21    1    1    2  503  501 -0.35997286947E+02  0.89679028859E+02  0.21911113990E+03  0.23947405812E+03  0.00000000000E+00 0. -1.
         21    1    1    2  504  502  0.95250233198E+02 -0.84214069280E+02 -0.12748364363E+03  0.18004637120E+03  0.00000000000E+00 0.  1.
         21    1    1    2  505  504 -0.31103778649E+02 -0.22323544354E+02 -0.14421444426E+03  0.14920989113E+03  0.00000000000E+00 0. -1.
         -2    1    1    2    0  505 -0.28149167603E+02  0.16858584775E+02 -0.65241066061E+03  0.65323522379E+03  0.00000000000E+00 0.  1.
<scales pt_clust_3="97.75397" pt_clust_4="14000.00000" pt_clust_5="46.66269" pt_clust_6="32.81139"></scales>
<clustering>
<clus scale="   32.811">  2  6  1 -1</clus>
<clus scale="   46.663">  2  5  1 -1</clus>
<clus scale="   97.754">  1  3  2 -1</clus>
<clus scale="   97.754">  1  3  2 -1</clus>
</clustering>
</event>
<event>
 6    0  0.4945982E+002  0.1478397E+03  0.7546771E-02  0.1203153E+00
         21   -1    0    0  504  502  0.00000000000E+00  0.00000000000E+00  0.36423396376E+03  0.36423396376E+03  0.00000000000E+00 0.  1.
          1   -1    0    0  505    0 -0.00000000000E+00 -0.00000000000E+00 -0.70489230751E+03  0.70489230751E+03  0.00000000000E+00 0. -1.
         21    1    1    2  503  502 -0.77216389864E+02 -0.44789897719E+02 -0.92438382022E+01  0.89743826228E+02  0.00000000000E+00 0.  1.
         21    1    1    2  504  501  0.65783266918E+02 -0.35837134350E+02  0.27557396702E+03  0.28557442060E+03  0.00000000000E+00 0.  1.
         21    1    1    2  505  503 -0.18522088218E+02 -0.54891605877E+02  0.12244351886E+02  0.59212163453E+02  0.00000000000E+00 0.  1.
          1    1    1    2  501    0  0.29955211163E+02  0.13551863795E+03 -0.61923282445E+03  0.63459586098E+03  0.00000000000E+00 0. -1.
<scales pt_clust_3="44.68416" pt_clust_4="74.91154" pt_clust_5="44.68416" pt_clust_6="137.03992"></scales>
<clustering>
<clus scale="   44.684">  3  5 -1 -1</clus>
<clus scale="   74.912">  1  4  2 -1</clus>
<clus scale="  137.040">  2  6  1 -1</clus>
<clus scale="   74.912">  1  3  2 -1</clus>
</clustering>
</event>
<event>
 6    0  0.4945982E+002  0.7046542E+02  0.7546771E-02  0.1358517E+00
         21   -1    0    0  503  502  0.00000000000E+00  0.00000000000E+00  0.46555920455E+03  0.46555920455E+03  0.00000000000E+00 0.  1.
         -2   -1    0    0    0  501 -0.00000000000E+00 -0.00000000000E+00 -0.32656293965E+03  0.32656293965E+03  0.00000000000E+00 0.  1.
         21    1    1    2  503  504 -0.32620754421E+02 -0.56365281594E+02  0.42164011722E+03  0.42663983293E+03  0.00000000000E+00 0.  1.
         21    1    1    2  504  501  0.40314824923E+02  0.11696956306E+02 -0.16435370880E+01  0.42009583544E+02  0.00000000000E+00 0.  1.
         21    1    1    2  505  502  0.68128101986E+02 -0.20227780902E+01 -0.91513925760E+02  0.11410665414E+03  0.00000000000E+00 0.  1.
         -2    1    1    2    0  505 -0.75822172488E+02  0.46691103378E+02 -0.18948638947E+03  0.20936607359E+03  0.00000000000E+00 0.  1.
<scales pt_clust_3="64.87591" pt_clust_4="41.97742" pt_clust_5="70.46542" pt_clust_6="14000.00000"></scales>
<clustering>
<clus scale="   41.977">  2  4  1 -1</clus>
<clus scale="   64.876">  1  3  2 -1</clus>
<clus scale="   70.465">  1  5  2 -1</clus>
<clus scale="   64.876">  1  3  2 -1</clus>
</clustering>
</event>
<event>
 6    0  0.4945982E+002  0.9193408E+02  0.7546771E-02  0.1298234E+00
          2   -1    0    0  505    0 -0.00000000000E+00  0.00000000000E+00  0.26678802520E+04  0.26678802520E+04  0.00000000000E+00 0.  1.
         21   -1    0    0  504  502  0.00000000000E+00 -0.00000000000E+00 -0.69988034715E+02  0.69988034715E+02  0.00000000000E+00 0. -1.
         21    1    1    2  503  501 -0.53851989427E+02 -0.21016400906E+02  0.38706723422E+03  0.39136015341E+03  0.00000000000E+00 0.  1.
         21    1    1    2  504  503 -0.74959781167E+02  0.84771416332E+01  0.33474387527E+03  0.34313888260E+03  0.00000000000E+00 0.  1.
         21    1    1    2  505  502  0.75548069652E+02 -0.28559711278E+02 -0.37188944440E+02  0.88916733661E+02  0.00000000000E+00 0. -1.
          2    1    1    2  501    0  0.53263700942E+02  0.41098970551E+02  0.19132700522E+04  0.19144525170E+04  0.00000000000E+00 0.  1.
<scales pt_clust_3="36.38747" pt_clust_4="36.38747" pt_clust_5="82.00015" pt_clust_6="67.27665"></scales>
<clustering>
<clus scale="   36.387">  3  4 -1 -1</clus>
<clus scale="   67.277">  1  6  2 -1</clus>
<clus scale="   82.000">  2  5  1 -1</clus>
<clus scale="   82.000">  2  3  1 -1</clus>
</clustering>
</event>
<event>
 6    0  0.4945982E+002  0.1629750E+03  0.7546771E-02  0.1185378E+00
         21   -1    0    0  505  502  0.00000000000E+00  0.00000000000E+00  0.32976520841E+03  0.32976520841E+03  0.00000000000E+00 0. -1.
          1   -1    0    0  503    0 -0.00000000000E+00 -0.00000000000E+00 -0.80093312997E+03  0.80093312997E+03  0.00000000000E+00 0.  1.
         21    1    1    2  503  504 -0.15771114176E+03  0.17121936524E+03 -0.27334578944E+03  0.35903592561E+03  0.00000000000E+00 0. -1.
         21    1    1    2  504  502 -0.38136268441E+02  0.10348146602E+02  0.22694797238E+03  0.23036241290E+03  0.00000000000E+00 0. -1.
         21    1    1    2  505  501  0.13500809162E+03 -0.52658338385E+02 -0.74089260555E+02  0.16275534994E+03  0.00000000000E+00 0. -1.
          1    1    1    2  501    0  0.60839318583E+02 -0.12890917346E+03 -0.35068084394E+03  0.37854464993E+03  0.00000000000E+00 0.  1.
<scales pt_clust_3="162.97498" pt_clust_4="39.51530" pt_clust_5="127.70038" pt_clust_6="14000.00000"></scales>
<clustering>
<clus scale="   39.515">  1  4  2 -1</clus>
<clus scale="  127.700">  1  5  2 -1</clus>
<clus scale="  162.975">  1  3  2 -1</clus>
<clus scale="   39.515">  1  3  2 -1</clus>
</clustering>
</event>
<event>
 6    0  0.7621542E+002  0.9682957E+02  0.7546771E-02  0.1287108E+00
         21   -1    0    0  501  502  0.00000000000E+00  0.00000000000E+00  0.12740598637E+04  0.12740598637E+04  0.00000000000E+00 0. -1.
          2   -1    0    0  503    0 -0.00000000000E+00 -0.00000000000E+00 -0.94592904261E+03  0.94592904261E+03  0.00000000000E+00 0. -1.
         21    1    1    2  503  505  0.11953960982E+03  0.49206546251E+02  0.11246172309E+04  0.11320224903E+04  0.00000000000E+00 0. -1.
         21    1    1    2  504  502  0.27987447087E+02 -0.29219217727E+02  0.22598544330E+02  0.46343867824E+02  0.00000000000E+00 0.  1.
         21    1    1    2  505  504 -0.50748580565E+02 -0.20205289007E+02  0.10187321321E+03  0.11559335492E+03  0.00000000000E+00 0.  1.
          2    1    1    2  501    0 -0.96778476345E+02  0.21796048291E+00 -0.92095816729E+03  0.92602919332E+03  0.00000000000E+00 0. -1.
<scales pt_clust_3="96.82957" pt_clust_4="40.46060" pt_clust_5="53.39165" pt_clust_6="14000.00000"></scales>
<clustering>
<clus scale="   40.461">  1  4  2 -1</clus>
<clus scale="   53.392">  1  5  2 -1</clus>
<clus scale="   96.830">  1  3  2 -1</clus>
<clus scale="   40.461">  1  3  2 -1</clus>
</clustering>
</event>
<event>
 6    0  0.4945982E+002  0.1104353E+03  0.7546771E-02  0.1259766E+00
         21   -1    0    0  501  502  0.00000000000E+00  0.00000000000E+00  0.31587580442E+03  0.31587580442E+03  0.00000000000E+00 0.  1.
          2   -1    0    0  503    0 -0.00000000000E+00 -0.00000000000E+00 -0.36235879417E+03  0.36235879417E+03  0.00000000000E+00 0.  1.
         21    1    1    2  503  505 -0.17510838091E+02  0.34692112641E+02 -0.23092595043E+02  0.45204425402E+02  0.00000000000E+00 0. -1.
         21    1    1    2  504  502  0.31233973537E+02 -0.10827817075E+03  0.28271768906E+03  0.30435015208E+03  0.00000000000E+00 0.  1.
         21    1    1    2  505  504  0.38966194016E+02  0.21603902504E+02 -0.93892583699E+02  0.10392742734E+03  0.00000000000E+00 0. -1.
          2    1    1    2  501    0 -0.52689329462E+02  0.51982155610E+02 -0.21221550006E+03  0.22475259377E+03  0.00000000000E+00 0.  1.
<scales pt_clust_3="38.86093" pt_clust_4="14000.00000" pt_clust_5="46.50506" pt_clust_6="110.43528"></scales>
<clustering>
<clus scale="   38.861">  2  3  1 -1</clus>
<clus scale="   46.505">  2  5  1 -1</clus>
<clus scale="  110.435">  2  6  1 -1</clus>
<clus scale="  110.435">  1  3  2 -1</clus>
</clustering>
</event>
<event>
 6    0  0.4945982E+002  0.2088759E+03  0.7546771E-02  0.1142459E+00
         -1   -1    0    0    0  501 -0.00000000000E+00  0.00000000000E+00  0.46101935460E+03  0.46101935460E+03  0.00000000000E+00 0. -1.
         21   -1    0    0  503  502  0.00000000000E+00 -0.00000000000E+00 -0.55504319323E+03  0.55504319323E+03  0.00000000000E+00 0. -1.
         21    1    1    2  503  504  0.19290456589E+03  0.61504370745E+02 -0.23206160579E+03  0.30797329112E+03  0.00000000000E+00 0. -1.
         21    1    1    2  504  501  0.53452622147E+02 -0.19095246132E+02 -0.20072662900E+02  0.60205672782E+02  0.00000000000E+00 0. -1.
         21    1    1    2  505  502 -0.14833647083E+03  0.73231533364E+02 -0.19967933222E+03  0.25930368639E+03  0.00000000000E+00 0.  1.
         -1    1    1    2    0  505 -0.98020717201E+02 -0.11564065798E+03  0.35778976229E+03  0.38857989754E+03  0.00000000000E+00 0. -1.
<scales pt_clust_3="51.58926" pt_clust_4="51.58926" pt_clust_5="184.75789" pt_clust_6="151.59427"></scales>
<clustering>
<clus scale="   51.589">  3  4 -1 -1</clus>
<clus scale="  151.594">  1  6  2 -1</clus>
<clus scale="  184.758">  2  5  1 -1</clus>
<clus scale="  184.758">  2  3  1 -1</clus>
</clustering>
</event>
<event>
 6    0  0.4945982E+002  0.1013050E+03  0.7546771E-02  0.1277575E+00
          2   -1    0    0  505    0 -0.00000000000E+00  0.00000000000E+00  0.17297994935E+04  0.17297994935E+04  0.00000000000E+00 0.  1.
         21   -1    0    0  503  502  0.00000000000E+00 -0.00000000000E+00 -0.20713928656E+02  0.20713928656E+02  0.00000000000E+00 0. -1.
         21    1    1    2  503  504 -0.35456137235E+02 -0.21509036421E+02  0.72182490630E+02  0.83247151716E+02  0.00000000000E+00 0. -1.
         21    1    1    2  504  501 -0.12074444760E+02 -0.33915075258E+02  0.30992373470E+02  0.47503176308E+02  0.00000000000E+00 0. -1.
         21    1    1    2  505  502 -0.54606800284E+02  0.54009768151E+02  0.29348946281E+03  0.30337274511E+03  0.00000000000E+00 0. -1.
          2    1    1    2  501    0  0.10213738228E+03  0.14143435278E+01  0.13124212379E+04  0.13163903490E+04  0.00000000000E+00 0.  1.
<scales pt_clust_3="31.17584" pt_clust_4="31.17584" pt_clust_5="76.80467" pt_clust_6="95.61958"></scales>
<clustering>
<clus scale="   31.176">  3  4 -1 -1</clus>
<clus scale="   76.805">  2  5  1 -1</clus>
<clus scale="   95.620">  1  6  2 -1</clus>
<clus scale="   76.805">  2  3  1 -1</clus>
</clustering>
</event>
<event>
 6    0  0.4945982E+002  0.1746061E+03  0.7546771E-02  0.1173128E+00
         21   -1    0    0  505  502  0.00000000000E+00  0.00000000000E+00  0.10310413094E+03  0.10310413094E+03  0.00000000000E+00 0.  1.
          1   -1    0    0  503    0 -0.00000000000E+00 -0.00000000000E+00 -0.11194521990E+04  0.11194521990E+04  0.00000000000E+00 0. -1.
         21    1    1    2  503  504 -0.29498812306E+00 -0.34475492692E+02 -0.12158419440E+03  0.12637785780E+03  0.00000000000E+00 0. -1.
         21    1    1    2  504  502  0.14800003924E+03 -0.81742693144E+02 -0.41873388963E+03  0.45157939482E+03  0.00000000000E+00 0. -1.
         21    1    1    2  505  501 -0.38860129371E+02 -0.42391442803E+02  0.55138521172E+02  0.79670575463E+02  0.00000000000E+00 0.  1.
          1    1    1    2  501    0 -0.10884492175E+03  0.15860962864E+03 -0.53116850515E+03  0.56492850181E+03  0.00000000000E+00 0. -1.
<scales pt_clust_3="34.47675" pt_clust_4="174.60612" pt_clust_5="57.82407" pt_clust_6="14000.00000"></scales>
<clustering>
<clus scale="   34.477">  2  3  1 -1</clus>
<clus scale="   57.824">  1  5  2 -1</clus>
<clus scale="  174.606">  1  4  2 -1</clus>
<clus scale="   57.824">  1  3  2 -1</clus>
</clustering>
</event>
<event>
 6    0  0.4945982E+002  0.1592633E+03  0.7546771E-02  0.1189531E+00
         21   -1    0    0  504  502  0.00000000000E+00  0.00000000000E+00  0.67750222848E+03  0.67750222848E+03  0.00000000000E+00 0. -1.
          1   -1    0    0  505    0 -0.00000000000E+00 -0.00000000000E+00 -0.44552052968E+03  0.44552052968E+03  0.00000000000E+00 0. -1.
         21    1    1    2  503  501  0.12360120377E+03  0.56714641997E+02 -0.85374522424E+02  0.16056966485E+03  0.00000000000E+00 0. -1.
         21    1    1    2  504  503 -0.11717054149E+03 -0.34501721516E+02  0.55618918452E+03  0.56944333657E+03  0.00000000000E+00 0. -1.
         21    1    1    2  505  502 -0.30105506468E+02 -0.44419908947E+02  0.66785418865E+02  0.85672410983E+02  0.00000000000E+00 0.  1.
          1    1    1    2  501    0  0.23674844192E+02  0.22206988466E+02 -0.30561838217E+03  0.30733734577E+03  0.00000000000E+00 0. -1.
<scales pt_clust_3="14000.00000" pt_clust_4="159.26326" pt_clust_5="51.51234" pt_clust_6="32.45995"></scales>
<clustering>
<clus scale="   32.460">  2  6  1 -1</clus>
<clus scale="   51.512">  1  5  2 -1</clus>
<clus scale="  159.263">  1  4  2 -1</clus>
<clus scale="   51.512">  1  3  2 -1</clus>
</clustering>
</event>
<event>
 6    0  0.4945982E+002  0.7148207E+02  0.7546771E-02  0.1355124E+00
          3   -1    0    0  505    0 -0.00000000000E+00  0.00000000000E+00  0.19282838465E+04  0.19282838465E+04  0.00000000000E+00 0.  1.
         21   -1    0    0  504  502  0.00000000000E+00 -0.00000000000E+00 -0.39009270719E+03  0.39009270719E+03  0.00000000000E+00 0.  1.
         21    1    1    2  503  502 -0.64371930506E+02 -0.26593413936E+02 -0.31544955798E+03  0.32304702247E+03  0.00000000000E+00 0.  1.
         21    1    1    2  504  501 -0.73382913942E+02  0.40735518603E+02  0.83966545465E+02  0.11872158730E+03  0.00000000000E+00 0.  1.
         21    1    1    2  505  503  0.99804385895E+02  0.31177926074E+01 -0.63873778204E+01  0.10005715702E+03  0.00000000000E+00 0.  1.
          3    1    1    2  501    0  0.37950458553E+02 -0.17259897275E+02  0.17760615297E+04  0.17765507869E+04  0.00000000000E+00 0.  1.
<scales pt_clust_3="71.48207" pt_clust_4="56.26262" pt_clust_5="14000.00000" pt_clust_6="41.69102"></scales>
<clustering>
<clus scale="   41.691">  1  6  2 -1</clus>
<clus scale="   56.263">  1  4  2 -1</clus>
<clus scale="   71.482">  2  3  1 -1</clus>
<clus scale="   71.482">  2  3  1 -1</clus>
</clustering>
</event>
<event>
 6    0  0.4945982E+002  0.1762129E+03  0.7546771E-02  0.1171519E+00
         21   -1    0    0  503  502  0.00000000000E+00  0.00000000000E+00  0.15002665082E+04  0.15002665082E+04  0.00000000000E+00 0.  1.
          2   -1    0    0  505    0 -0.00000000000E+00 -0.00000000000E+00 -0.14503747283E+04  0.14503747283E+04  0.00000000000E+00 0. -1.
         21    1    1    2  503  501 -0.18919157800E+02 -0.16814513016E+03  0.70670626700E+03  0.72668044363E+03  0.00000000000E+00 0.  1.
         21    1    1    2  504  502 -0.12206672893E+02  0.36616985713E+02  0.67085267178E+03  0.67196213714E+03  0.00000000000E+00 0.  1.
         21    1    1    2  505  504 -0.39795098015E+02 -0.29903419163E+02  0.10094252628E+03  0.11254891343E+03  0.00000000000E+00 0. -1.
          2    1    1    2  501    0  0.70920928708E+02  0.16143156361E+03 -0.14286096852E+04  0.14394497423E+04  0.00000000000E+00 0. -1.
<scales pt_clust_3="176.21291" pt_clust_4="38.59801" pt_clust_5="48.43200" pt_clust_6="14000.00000"></scales>
<clustering>
<clus scale="   38.598">  1  4  2 -1</clus>
<clus scale="   48.432">  1  5  2 -1</clus>
<clus scale="  176.213">  1  3  2 -1</clus>
<clus scale="   38.598">  1  3  2 -1</clus>
</clustering>
</event>
<event>
 6    0  0.4945982E+002  0.9468236E+02  0.7546771E-02  0.1291893E+00
         21   -1    0    0  503  502  0.00000000000E+00  0.00000000000E+00  0.57905941556E+02  0.57905941556E+02  0.00000000000E+00 0.  1.
          2   -1    0    0  505    0 -0.00000000000E+00 -0.00000000000E+00 -0.13902949107E+04  0.13902949107E+04  0.00000000000E+00 0. -1.
         21    1    1    2  503  501 -0.44122337004E+02  0.33091383220E+02 -0.11080972400E+03  0.12377647272E+03  0.00000000000E+00 0.  1.
         21    1    1    2  504  502 -0.51764011514E+02 -0.23988579162E+02 -0.14322352279E+02  0.58822568739E+02  0.00000000000E+00 0.  1.
         21    1    1    2  505  504  0.14629234605E+03  0.27648671152E+02 -0.16801027057E+03  0.22448463321E+03  0.00000000000E+00 0. -1.
          2    1    1    2  501    0 -0.50405997530E+02 -0.36751475210E+02 -0.10392466223E+04  0.10411171776E+04  0.00000000000E+00 0. -1.
<scales pt_clust_3="55.15270" pt_clust_4="94.68236" pt_clust_5="14000.00000" pt_clust_6="62.68257"></scales>
<clustering>
<clus scale="   55.153">  1  3  2 -1</clus>
<clus scale="   62.683">  2  6  1 -1</clus>
<clus scale="   94.682">  1  4  2 -1</clus>
<clus scale="   55.153">  1  3  2 -1</clus>
</clustering>
</event>
<event>
 6    0  0.4945982E+002  0.1759011E+03  0.7546771E-02  0.1171830E+00
         -1   -1    0    0    0  501 -0.00000000000E+00  0.00000000000E+00  0.16425958398E+04  0.16425958398E+04  0.00000000000E+00 0. -1.
         21   -1    0    0  501  502  0.00000000000E+00 -0.00000000000E+00 -0.46727767742E+02  0.46727767742E+02  0.00000000000E+00 0. -1.
         21    1    1    2  503  504 -0.60992122361E+02  0.15922639684E+03  0.30844082041E+03  0.35243272285E+03  0.00000000000E+00 0. -1.
         21    1    1    2  504  505  0.55015839929E+01 -0.10370094135E+03  0.15413558372E+03  0.18585459594E+03  0.00000000000E+00 0. -1.
         21    1    1    2  505  502  0.26937030108E+02 -0.68351543257E+02  0.14784828346E+03  0.16509588723E+03  0.00000000000E+00 0. -1.
         -1    1    1    2    0  503  0.28553508260E+02  0.12826087767E+02  0.98544338445E+03  0.98594040150E+03  0.00000000000E+00 0. -1.
<scales pt_clust_3="172.11489" pt_clust_4="30.53197" pt_clust_5="30.53197" pt_clust_6="31.30194"></scales>
<clustering>
<clus scale="   30.532">  4  5 -1 -1</clus>
<clus scale="   31.302">  1  6  2 -1</clus>
<clus scale="  172.115">  1  3  2 -1</clus>
<clus scale="  175.901">  2  3  1 -1</clus>
</clustering>
</event>
<event>
 6    0  0.4945982E+002  0.3311012E+03  0.7546771E-02  0.1070651E+00
         21   -1    0    0  503  502  0.00000000000E+00  0.00000000000E+00  0.34265851635E+03  0.34265851635E+03  0.00000000000E+00 0. -1.
         -1   -1    0    0    0  501 -0.00000000000E+00 -0.00000000000E+00 -0.52766366157E+03  0.52766366157E+03  0.00000000000E+00 0. -1.
         21    1    1    2  503  504 -0.68539597287E+01  0.84075817286E+02  0.19029073135E+02  0.86474420731E+02  0.00000000000E+00 0. -1.
         21    1    1    2  504  501 -0.35481650991E+00  0.30054023573E+03 -0.10012685128E+03  0.31678059526E+03  0.00000000000E+00 0. -1.
         21    1    1    2  505  502  0.12553951897E+02 -0.98021216133E+02  0.79446369926E+02  0.12679702763E+03  0.00000000000E+00 0.  1.
         -1    1    1    2    0  505 -0.53451756587E+01 -0.28659483688E+03 -0.18335373699E+03  0.34027013430E+03  0.00000000000E+00 0. -1.
<scales pt_clust_3="47.55220" pt_clust_4="47.55220" pt_clust_5="98.82186" pt_clust_6="318.70322"></scales>
<clustering>
<clus scale="   47.552">  3  4 -1 -1</clus>
<clus scale="   98.822">  1  5  2 -1</clus>
<clus scale="  318.703">  2  6  1 -1</clus>
<clus scale="   98.822">  1  3  2 -1</clus>
</clustering>
</event>
<event>
 6    0  0.4945982E+002  0.9118967E+02  0.7546771E-02  0.1299996E+00
          2   -1    0    0  505    0 -0.00000000000E+00  0.00000000000E+00  0.18457157725E+04  0.18457157725E+04  0.00000000000E+00 0. -1.
         21   -1    0    0  504  502  0.00000000000E+00 -0.00000000000E+00 -0.79056591340E+03  0.79056591340E+03  0.00000000000E+00 0. -1.
         21    1    1    2  503  501  0.97958778394E+02  0.75666128787E+02  0.24551661967E+03  0.27495398860E+03  0.00000000000E+00 0. -1.
         21    1    1    2  504  503 -0.85287613927E+02 -0.31479816659E+02 -0.76844076562E+03  0.77379982309E+03  0.00000000000E+00 0. -1.
         21    1    1    2  505  502 -0.28256296425E+02 -0.88072339917E+02  0.50221699435E+03  0.51066335757E+03  0.00000000000E+00 0. -1.
          2    1    1    2  501    0  0.15585131958E+02  0.43886027790E+02  0.10758570107E+04  0.10768645167E+04  0.00000000000E+00 0. -1.
<scales pt_clust_3="14000.00000" pt_clust_4="91.18967" pt_clust_5="61.85954" pt_clust_6="46.57123"></scales>
<clustering>
<clus scale="   46.571">  1  6  2 -1</clus>
<clus scale="   61.860">  1  5  2 -1</clus>
<clus scale="   91.190">  2  4  1 -1</clus>
<clus scale="   91.190">  2  3  1 -1</clus>
</clustering>
</event>
<event>
 6    0  0.4945982E+002  0.1362172E+03  0.7546771E-02  0.1218512E+00
         21   -1    0    0  505  502  0.00000000000E+00  0.00000000000E+00  0.65573542276E+02  0.65573542276E+02  0.00000000000E+00 0. -1.
          2   -1    0    0  504    0 -0.00000000000E+00 -0.00000000000E+00 -0.13566328376E+04  0.13566328376E+04  0.00000000000E+00 0.  1.
         21    1    1    2  503  502  0.60587070113E+01  0.63299245532E+02 -0.41321255758E+02  0.75835009020E+02  0.00000000000E+00 0. -1.
         21    1    1    2  504  503  0.36416179135E+02  0.44562807370E+02 -0.32076322058E+02  0.65885296844E+02  0.00000000000E+00 0.  1.
         21    1    1    2  505  501 -0.26318029171E+02  0.24674120988E+02  0.16111114274E+02  0.39509731829E+02  0.00000000000E+00 0. -1.
          2    1    1    2  501    0 -0.16156856974E+02 -0.13253617389E+03 -0.12337728318E+04  0.12409763422E+04  0.00000000000E+00 0.  1.
<scales pt_clust_3="33.75694" pt_clust_4="33.75694" pt_clust_5="36.07563" pt_clust_6="131.51434"></scales>
<clustering>
<clus scale="   33.757">  3  4 -1 -1</clus>
<clus scale="   36.076">  1  5  2 -1</clus>
<clus scale="  131.514">  2  6  1 -1</clus>
<clus scale="   36.076">  1  3  2 -1</clus>
</clustering>
</event>
<event>
 6    0  0.4945982E+002  0.1695620E+03  0.7546771E-02  0.1178305E+00
          2   -1    0    0  504    0 -0.00000000000E+00  0.00000000000E+00  0.47925693170E+04  0.47925693170E+04  0.00000000000E+00 0. -1.
         21   -1    0    0  501  502  0.00000000000E+00 -0.00000000000E+00 -0.18591579693E+02  0.18591579693E+02  0.00000000000E+00 0.  1.
         21    1    1    2  503  505  0.76880476969E+02  0.20200411616E+02  0.39261756287E+03  0.40058359307E+03  0.00000000000E+00 0.  1.
         21    1    1    2  504  503  0.64264856490E+02  0.25799302358E+02  0.56252238568E+03  0.56676892132E+03  0.00000000000E+00 0.  1.
         21    1    1    2  505  502 -0.76213852319E+01  0.64831892186E+02  0.91313592829E+02  0.11224719147E+03  0.00000000000E+00 0.  1.
          2    1    1    2  501    0 -0.13352394823E+03 -0.11083160616E+03  0.37275241959E+04  0.37315611908E+04  0.00000000000E+00 0. -1.
<scales pt_clust_3="35.42612" pt_clust_4="35.42612" pt_clust_5="65.27833" pt_clust_6="165.25945"></scales>
<clustering>
<clus scale="   35.426">  3  4 -1 -1</clus>
<clus scale="   65.278">  2  5  1 -1</clus>
<clus scale="  165.259">  1  6  2 -1</clus>
<clus scale="   65.278">  2  3  1 -1</clus>
</clustering>
</event>
<event>
 6    0  0.4945982E+002  0.1022701E+03  0.7546771E-02  0.1275593E+00
         21   -1    0    0  504  502  0.00000000000E+00  0.00000000000E+00  0.34826985662E+03  0.34826985662E+03  0.00000000000E+00 0.  1.
          1   -1    0    0  502    0 -0.00000000000E+00 -0.00000000000E+00 -0.87782129938E+03  0.87782129938E+03  0.00000000000E+00 0.  1.
         21    1    1    2  503  505  0.58986066109E+02 -0.23278500233E+02 -0.15545697855E+02  0.65290989347E+02  0.00000000000E+00 0.  1.
         21    1    1    2  504  503 -0.25104323295E+02  0.57347059249E+02  0.29120929371E+03  0.29786198985E+03  0.00000000000E+00 0.  1.
         21    1    1    2  505  501  0.43867864326E+02 -0.72871991648E+02 -0.42125651010E+02  0.94917264817E+02  0.00000000000E+00 0.  1.
          1    1    1    2  501    0 -0.77749607140E+02  0.38803432631E+02 -0.76308938760E+03  0.76802091199E+03  0.00000000000E+00 0.  1.
<scales pt_clust_3="43.31752" pt_clust_4="62.60122" pt_clust_5="43.31752" pt_clust_6="89.11969"></scales>
<clustering>
<clus scale="   43.318">  3  5 -1 -1</clus>
<clus scale="   62.601">  1  4  2 -1</clus>
<clus scale="   89.120">  2  6  1 -1</clus>
<clus scale="   62.601">  1  3  2 -1</clus>
</clustering>
</event>
<event>
 6    0  0.4945982E+002  0.1677216E+03  0.7546771E-02  0.1180245E+00
         21   -1    0    0  505  502  0.00000000000E+00  0.00000000000E+00  0.62977347553E+02  0.62977347553E+02  0.00000000000E+00 0.  1.
          1   -1    0    0  502    0 -0.00000000000E+00 -0.00000000000E+00 -0.85047680434E+03  0.85047680434E+03  0.00000000000E+00 0.  1.
         21    1    1    2  503  504 -0.10325946086E+03  0.68161810974E+02 -0.40525976303E+02  0.13019563544E+03  0.00000000000E+00 0.  1.
         21    1    1    2  504  501  0.67180914919E+02 -0.11316611117E+02 -0.18890755861E+03  0.20081684869E+03  0.00000000000E+00 0.  1.
         21    1    1    2  505  503 -0.45333074164E+02  0.40298477283E+01 -0.67206828707E+02  0.81167019847E+02  0.00000000000E+00 0.  1.
          1    1    1    2  501    0  0.81411620101E+02 -0.60875047585E+02 -0.49085909316E+03  0.50127464792E+03  0.00000000000E+00 0.  1.
<scales pt_clust_3="156.75505" pt_clust_4="47.92408" pt_clust_5="45.51184" pt_clust_6="47.92408"></scales>
<clustering>
<clus scale="   45.512">  1  5  2 -1</clus>
<clus scale="   47.924">  4  6 -1 -1</clus>
<clus scale="  156.755">  1  3  2 -1</clus>
<clus scale="   45.512">  1  3  2 -1</clus>
</clustering>
</event>
<event>
 6    0  0.4945982E+002  0.1337949E+03  0.7546771E-02  0.1221931E+00
          1   -1    0    0  504    0 -0.00000000000E+00  0.00000000000E+00  0.40244355227E+03  0.40244355227E+03  0.00000000000E+00 0.  1.
         21   -1    0    0  505  502  0.00000000000E+00 -0.00000000000E+00 -0.18323991744E+03  0.18323991744E+03  0.00000000000E+00 0.  1.
         21    1    1    2  503  502 -0.30923078606E+02 -0.20322657758E+02 -0.18559504362E+02  0.41396888905E+02  0.00000000000E+00 0.  1.
         21    1    1    2  504  503  0.28523877714E+02 -0.14442953832E+03  0.25395556589E+01  0.14724113719E+03  0.00000000000E+00 0.  1.
         21    1    1    2  505  501 -0.21073609347E+00  0.33027117137E+02 -0.62934924085E+02  0.71074886885E+02  0.00000000000E+00 0.  1.
          1    1    1    2  501    0  0.26099369862E+01  0.13172507894E+03  0.29815850762E+03  0.32597055673E+03  0.00000000000E+00 0.  1.
<scales pt_clust_3="33.15042" pt_clust_4="133.79494" pt_clust_5="33.02779" pt_clust_6="14000.00000"></scales>
<clustering>
<clus scale="   33.028">  2  5  1 -1</clus>
<clus scale="   33.150">  2  3  1 -1</clus>
<clus scale="  133.795">  2  4  1 -1</clus>
<clus scale="   33.028">  2  3  1 -1</clus>
</clustering>
</event>
<event>
 6    0  0.4945982E+002  0.1358810E+03  0.7546771E-02  0.1218981E+00
         21   -1    0    0  505  502  0.00000000000E+00  0.00000000000E+00  0.17227582409E+04  0.17227582409E+04  0.00000000000E+00 0. -1.
          1   -1    0    0  503    0 -0.00000000000E+00 -0.00000000000E+00 -0.19665645677E+03  0.19665645677E+03  0.00000000000E+00 0. -1.
         21    1    1    2  503  502  0.65763617214E+02  0.35950775083E+02  0.13341251727E+03  0.15302356466E+03  0.00000000000E+00 0. -1.
         21    1    1    2  504  501 -0.13157136448E+03  0.35689842926E+02  0.25048818208E+03  0.28518260501E+03  0.00000000000E+00 0. -1.
         21    1    1    2  505  504 -0.22693369397E+02  0.34513458422E+02  0.12831449820E+04  0.12838096481E+04  0.00000000000E+00 0. -1.
          1    1    1    2  501    0  0.88501116659E+02 -0.10615407643E+03 -0.14094389724E+03  0.19739887984E+03  0.00000000000E+00 0. -1.
<scales pt_clust_3="75.06399" pt_clust_4="14000.00000" pt_clust_5="41.30578" pt_clust_6="135.88098"></scales>
<clustering>
<clus scale="   41.306">  1  5  2 -1</clus>
<clus scale="   75.064">  1  3  2 -1</clus>
<clus scale="  135.881">  2  6  1 -1</clus>
<clus scale="   41.306">  1  3  2 -1</clus>
</clustering>
</event>
<event>
 6    0  0.4945982E+002  0.1057769E+03  0.7546771E-02  0.1268596E+00
         21   -1    0    0  501  502  0.00000000000E+00  0.00000000000E+00  0.67649626885E+02  0.67649626885E+02  0.00000000000E+00 0.  1.
          2   -1    0    0  504    0 -0.00000000000E+00 -0.00000000000E+00 -0.28567283015E+04  0.28567283015E+04  0.00000000000E+00 0.  1.
         21    1    1    2  503  505 -0.29289460313E+02  0.15690521930E+02 -0.83039532975E+02  0.89440645126E+02  0.00000000000E+00 0. -1.
         21    1    1    2  504  503 -0.59221434350E+02  0.55358555201E+02 -0.50214204351E+03  0.50864366680E+03  0.00000000000E+00 0. -1.
         21    1    1    2  505  502  0.91676075020E+02 -0.17745598591E+02  0.25071908694E+02  0.96685105399E+02  0.00000000000E+00 0.  1.
          2    1    1    2  501    0 -0.31651803575E+01 -0.53303478540E+02 -0.22289690068E+04  0.22296085110E+04  0.00000000000E+00 0.  1.
<scales pt_clust_3="31.26744" pt_clust_4="31.26744" pt_clust_5="93.82717" pt_clust_6="53.39737"></scales>
<clustering>
<clus scale="   31.267">  3  4 -1 -1</clus>
<clus scale="   53.397">  2  6  1 -1</clus>
<clus scale="   93.827">  1  5  2 -1</clus>
<clus scale="   93.827">  1  3  2 -1</clus>
</clustering>
</event>
<event>
 6    0  0.4945982E+002  0.1204530E+03  0.7546771E-02  0.1242352E+00
          1   -1    0    0  504    0 -0.00000000000E+00  0.00000000000E+00  0.14865131477E+03  0.14865131477E+03  0.00000000000E+00 0.  1.
         21   -1    0    0  505  502  0.00000000000E+00 -0.00000000000E+00 -0.77628777404E+03  0.77628777404E+03  0.00000000000E+00 0.  1.
         21    1    1    2  503  501  0.10305763276E+03  0.36451663582E+02 -0.18950805630E+03  0.21877591926E+03  0.00000000000E+00 0. -1.
         21    1    1    2  504  502 -0.32646000612E+02  0.25054144734E+02 -0.71344198484E+02  0.82361800500E+02  0.00000000000E+00 0.  1.
         21    1    1    2  505  503 -0.10843076596E+03 -0.67535335187E+02 -0.48392310669E+03  0.50049957612E+03  0.00000000000E+00 0.  1.
          1    1    1    2  501    0  0.38019133818E+02  0.60295268708E+01  0.11713890220E+03  0.12330179293E+03  0.00000000000E+00 0.  1.
<scales pt_clust_3="120.45301" pt_clust_4="36.42339" pt_clust_5="14000.00000" pt_clust_6="38.49428"></scales>
<clustering>
<clus scale="   38.494">  1  6  2 -1</clus>
<clus scale="   36.423">  1  4  2 -1</clus>
<clus scale="  120.453">  1  3  2 -1</clus>
<clus scale="  120.453">  2  3  1 -1</clus>
</clustering>
</event>
<event>
 6    0  0.4945982E+002  0.1347162E+03  0.7546771E-02  0.1220621E+00
         21   -1    0    0  503  502  0.00000000000E+00  0.00000000000E+00  0.37036516665E+03  0.37036516665E+03  0.00000000000E+00 0. -1.
         -4   -1    0    0    0  501 -0.00000000000E+00 -0.00000000000E+00 -0.48854710166E+03  0.48854710166E+03  0.00000000000E+00 0. -1.
         21    1    1    2  503  505  0.27846886659E+02  0.43640863051E+02  0.11141386299E+03  0.12285366454E+03  0.00000000000E+00 0.  1.
         21    1    1    2  504  502  0.82745745596E+02 -0.12756501553E+02  0.15688412526E+03  0.17782636336E+03  0.00000000000E+00 0. -1.
         21    1    1    2  505  501 -0.54811583237E+01  0.48597362090E+02  0.68717494440E+02  0.84343587431E+02  0.00000000000E+00 0. -1.
         -4    1    1    2    0  504 -0.10511147393E+03 -0.79481723587E+02 -0.45519741771E+03  0.47388865298E+03  0.00000000000E+00 0. -1.
<scales pt_clust_3="37.33217" pt_clust_4="83.72327" pt_clust_5="37.33217" pt_clust_6="129.12469"></scales>
<clustering>
<clus scale="   37.332">  3  5 -1 -1</clus>
<clus scale="   83.723">  1  4  2 -1</clus>
<clus scale="  129.125">  2  6  1 -1</clus>
<clus scale="   83.723">  1  3  2 -1</clus>
</clustering>
</event>
<event>
 6    0  0.4945982E+002  0.1254830E+03  0.7546771E-02  0.1234316E+00
         21   -1    0    0  504  502  0.00000000000E+00  0.00000000000E+00  0.10549250687E+03  0.10549250687E+03  0.00000000000E+00 0.  1.
          2   -1    0    0  503    0 -0.00000000000E+00 -0.00000000000E+00 -0.10523880817E+04  0.10523880817E+04  0.00000000000E+00 0. -1.
         21    1    1    2  503  502 -0.64508583813E+02 -0.22394530098E+02 -0.20160508869E+02  0.71199146636E+02  0.00000000000E+00 0.  1.
         21    1    1    2  504  505  0.98127132414E+02  0.71108490786E+02 -0.86170932302E+01  0.12148911833E+03  0.00000000000E+00 0.  1.
         21    1    1    2  505  501  0.20307460438E+02  0.50743792673E+02 -0.17345557293E+02  0.57342774628E+02  0.00000000000E+00 0.  1.
          2    1    1    2  501    0 -0.53926009039E+02 -0.99457753361E+02 -0.90077241541E+03  0.90784954895E+03  0.00000000000E+00 0. -1.
<scales pt_clust_3="68.28523" pt_clust_4="33.11969" pt_clust_5="33.11969" pt_clust_6="115.38602"></scales>
<clustering>
<clus scale="   33.120">  4  5 -1 -1</clus>
<clus scale="   68.285">  1  3  2 -1</clus>
<clus scale="  115.386">  2  6  1 -1</clus>
<clus scale="   68.285">  1  3  2 -1</clus>
</clustering>
</event>
<event>
 6    0  0.4945982E+002  0.1330228E+03  0.7546771E-02  0.1223038E+00
          4   -1    0    0  505    0 -0.00000000000E+00  0.00000000000E+00  0.69687738001E+03  0.69687738001E+03  0.00000000000E+00 0. -1.
         21   -1    0    0  503  502  0.00000000000E+00 -0.00000000000E+00 -0.39215748665E+03  0.39215748665E+03  0.00000000000E+00 0. -1.
         21    1    1    2  503  504  0.55470591138E+02  0.43425588362E+01 -0.27990845593E+02  0.62284281608E+02  0.00000000000E+00 0. -1.
         21    1    1    2  504  501 -0.46865589697E+02  0.54759228825E+01  0.30175403734E+03  0.30542080525E+03  0.00000000000E+00 0. -1.
         21    1    1    2  505  502  0.62009857551E+02  0.36774103174E+02 -0.33656325751E+03  0.34419817461E+03  0.00000000000E+00 0. -1.
          4    1    1    2  501    0 -0.70614858992E+02 -0.46592584893E+02  0.36751995913E+03  0.37713160520E+03  0.00000000000E+00 0. -1.
<scales pt_clust_3="55.64031" pt_clust_4="37.02469" pt_clust_5="123.43898" pt_clust_6="37.02469"></scales>
<clustering>
<clus scale="   37.025">  4  6 -1 -1</clus>
<clus scale="   55.640">  2  3  1 -1</clus>
<clus scale="  123.439">  2  5  1 -1</clus>
<clus scale="   55.640">  2  3  1 -1</clus>
</clustering>
</event>
<event>
 6    0  0.4945982E+002  0.1763597E+03  0.7546771E-02  0.1171373E+00
          2   -1    0    0  504    0 -0.00000000000E+00  0.00000000000E+00  0.29880929445E+04  0.29880929445E+04  0.00000000000E+00 0. -1.
         21   -1    0    0  505  502  0.00000000000E+00 -0.00000000000E+00 -0.75204113720E+02  0.75204113720E+02  0.00000000000E+00 0. -1.
         21    1    1    2  503  501  0.21674219107E+02 -0.59645209645E+02  0.12098029217E+03  0.13661461818E+03  0.00000000000E+00 0. -1.
         21    1    1    2  504  502 -0.62418224754E+02  0.14896055708E+03  0.79102811383E+02  0.17984031005E+03  0.00000000000E+00 0. -1.
         21    1    1    2  505  503  0.11605196981E+03 -0.36292582303E+02  0.21241483942E+03  0.24475554178E+03  0.00000000000E+00 0. -1.
          2    1    1    2  501    0 -0.75307964158E+02 -0.53022765137E+02  0.25003908878E+04  0.25020865882E+04  0.00000000000E+00 0. -1.
<scales pt_clust_3="56.50845" pt_clust_4="158.06462" pt_clust_5="56.50845" pt_clust_6="92.10159"></scales>
<clustering>
<clus scale="   56.508">  3  5 -1 -1</clus>
<clus scale="   92.102">  1  6  2 -1</clus>
<clus scale="  158.065">  2  4  1 -1</clus>
<clus scale="  158.065">  2  3  1 -1</clus>
</clustering>
</event>
<event>
 6    0  0.4945982E+002  0.3866862E+03  0.7546771E-02  0.1048490E+00
         -1   -1    0    0    0  501 -0.00000000000E+00  0.00000000000E+00  0.84143505347E+03  0.84143505347E+03  0.00000000000E+00 0. -1.
         21   -1    0    0  501  502  0.00000000000E+00 -0.00000000000E+00 -0.16250981945E+04  0.16250981945E+04  0.00000000000E+00 0. -1.
         21    1    1    2  503  504 -0.59644519125E+02 -0.95550868642E+02 -0.22429837741E+03  0.25099242871E+03  0.00000000000E+00 0. -1.
         21    1    1    2  504  502 -0.71119790607E+02 -0.25383991949E+03 -0.10213145174E+04  0.10547872168E+04  0.00000000000E+00 0. -1.
         21    1    1    2  505  503  0.45503538093E+02  0.35549652554E+03 -0.25428130480E+03  0.43943979522E+03  0.00000000000E+00 0. -1.
         -1    1    1    2    0  505  0.85260771639E+02 -0.61057374077E+01  0.71623105858E+03  0.72131380722E+03  0.00000000000E+00 0. -1.
<scales pt_clust_3="78.26528" pt_clust_4="78.26528" pt_clust_5="367.68250" pt_clust_6="85.47912"></scales>
<clustering>
<clus scale="   78.265">  3  4 -1 -1</clus>
<clus scale="   85.479">  1  6  2 -1</clus>
<clus scale="  367.683">  1  5  2 -1</clus>
<clus scale="  386.686">  2  3  1 -1</clus>
</clustering>
</event>
<event>
 6    0  0.4945982E+002  0.9051478E+02  0.7546771E-02  0.1301610E+00
          2   -1    0    0  505    0 -0.00000000000E+00  0.00000000000E+00  0.12171913048E+04  0.12171913048E+04  0.00000000000E+00 0. -1.
         21   -1    0    0  503  502  0.00000000000E+00 -0.00000000000E+00 -0.83551901404E+03  0.83551901404E+03  0.00000000000E+00 0.  1.
         21    1    1    2  503  501 -0.32278233308E+02 -0.98765321770E+01  0.56279467402E+01  0.34221397076E+02  0.00000000000E+00 0.  1.
         21    1    1    2  504  502 -0.50424753952E+02  0.41100489665E+02 -0.80624712310E+03  0.80886731271E+03  0.00000000000E+00 0.  1.
         21    1    1    2  505  504  0.12169311618E+03 -0.30084354381E+02  0.28343098507E+03  0.30991515968E+03  0.00000000000E+00 0.  1.
          2    1    1    2  501    0 -0.38990128915E+02 -0.11396031065E+01  0.89886048201E+03  0.89970644933E+03  0.00000000000E+00 0. -1.
<scales pt_clust_3="33.75545" pt_clust_4="90.51478" pt_clust_5="14000.00000" pt_clust_6="39.02355"></scales>
<clustering>
<clus scale="   33.755">  2  3  1 -1</clus>
<clus scale="   39.024">  1  6  2 -1</clus>
<clus scale="   90.515">  2  4  1 -1</clus>
<clus scale="   33.755">  2  3  1 -1</clus>
</clustering>
</event>
<event>
 6    0  0.4945982E+002  0.1264597E+03  0.7546771E-02  0.1232805E+00
         21   -1    0    0  501  502  0.00000000000E+00  0.00000000000E+00  0.36372188760E+03  0.36372188760E+03  0.00000000000E+00 0. -1.
          1   -1    0    0  504    0 -0.00000000000E+00 -0.00000000000E+00 -0.81506612574E+03  0.81506612574E+03  0.00000000000E+00 0. -1.
         21    1    1    2  503  502  0.12830474016E+03 -0.52891862877E+02  0.31924571858E+03  0.34810556494E+03  0.00000000000E+00 0. -1.
         21    1    1    2  504  505 -0.24010696341E+02 -0.62784957150E+02 -0.17921675981E+03  0.19140823227E+03  0.00000000000E+00 0.  1.
         21    1    1    2  505  503 -0.68571088419E+02  0.17530602027E+02 -0.46973684471E+02  0.84946119435E+02  0.00000000000E+00 0.  1.
          1    1    1    2  501    0 -0.35722955401E+02  0.98146218001E+02 -0.54439951244E+03  0.55432809671E+03  0.00000000000E+00 0. -1.
<scales pt_clust_3="14000.00000" pt_clust_4="67.21952" pt_clust_5="126.45971" pt_clust_6="71.36389"></scales>
<clustering>
<clus scale="   67.220">  2  4  1 -1</clus>
<clus scale="   71.364">  2  6  1 -1</clus>
<clus scale="  126.460">  2  5  1 -1</clus>
<clus scale="  126.460">  1  3  2 -1</clus>
</clustering>
</event>
<event>
 6    0  0.4945982E+002  0.1036200E+03  0.7546771E-02  0.1272863E+00
         21   -1    0    0  503  502  0.00000000000E+00  0.00000000000E+00  0.34014171843E+03  0.34014171843E+03  0.00000000000E+00 0. -1.
         -2   -1    0    0    0  501 -0.00000000000E+00 -0.00000000000E+00 -0.25978617406E+03  0.25978617406E+03  0.00000000000E+00 0.  1.
         21    1    1    2  503  501  0.72847986756E-02 -0.30949987949E+02  0.34407802352E+02  0.46279570761E+02  0.00000000000E+00 0. -1.
         21    1    1    2  504  505 -0.66190143856E+02  0.77831933926E+02  0.21132856594E+03  0.23473113953E+03  0.00000000000E+00 0. -1.
         21    1    1    2  505  502  0.18293098222E+02  0.45235960632E+02  0.56074752097E+02  0.74332411501E+02  0.00000000000E+00 0.  1.
         -2    1    1    2    0  504  0.47889760835E+02 -0.92117906609E+02 -0.22145557602E+03  0.24458477071E+03  0.00000000000E+00 0.  1.
<scales pt_clust_3="30.94999" pt_clust_4="14000.00000" pt_clust_5="42.62979" pt_clust_6="103.62001"></scales>
<clustering>
<clus scale="   30.950">  1  3  2 -1</clus>
<clus scale="   42.630">  1  5  2 -1</clus>
<clus scale="  103.620">  2  6  1 -1</clus>
<clus scale="   30.950">  1  3  2 -1</clus>
</clustering>
</event>
<event>
 6    0  0.4945982E+002  0.1114321E+03  0.7546771E-02  0.1257941E+00
         21   -1    0    0  505  502  0.00000000000E+00  0.00000000000E+00  0.94386256210E+03  0.94386256210E+03  0.00000000000E+00 0.  1.
          2   -1    0    0  503    0 -0.00000000000E+00 -0.00000000000E+00 -0.50809344931E+03  0.50809344931E+03  0.00000000000E+00 0. -1.
         21    1    1    2  503  504 -0.38492165711E+01  0.41688985811E+02 -0.30378761910E+01  0.41976382621E+02  0.00000000000E+00 0. -1.
         21    1    1    2  504  502  0.98437973262E+02  0.45694586318E+02 -0.95611159415E+02  0.14463583098E+03  0.00000000000E+00 0.  1.
         21    1    1    2  505  501 -0.39968957572E+02  0.46828909533E+02  0.88440579030E+03  0.88654614446E+03  0.00000000000E+00 0.  1.
          2    1    1    2  501    0 -0.54619799119E+02 -0.13421248166E+03 -0.34998764191E+03  0.37879765334E+03  0.00000000000E+00 0. -1.
<scales pt_clust_3="41.86631" pt_clust_4="14000.00000" pt_clust_5="61.64216" pt_clust_6="111.43207"></scales>
<clustering>
<clus scale="   41.866">  2  3  1 -1</clus>
<clus scale="   61.642">  1  5  2 -1</clus>
<clus scale="  111.432">  2  6  1 -1</clus>
<clus scale="   61.642">  1  3  2 -1</clus>
</clustering>
</event>
<event>
 6    0  0.4945982E+002  0.1341192E+03  0.7546771E-02  0.1221469E+00
         21   -1    0    0  505  502  0.00000000000E+00  0.00000000000E+00  0.26367966937E+03  0.26367966937E+03  0.00000000000E+00 0. -1.
          2   -1    0    0  502    0 -0.00000000000E+00 -0.00000000000E+00 -0.38107761678E+03  0.38107761678E+03  0.00000000000E+00 0.  1.
         21    1    1    2  503  501 -0.89677988932E+02  0.71033928779E+02 -0.34089724109E+02  0.11937365717E+03  0.00000000000E+00 0. -1.
         21    1    1    2  504  503 -0.50358421610E+02  0.58450897156E+02 -0.62860895834E+02  0.99518692870E+02  0.00000000000E+00 0. -1.
         21    1    1    2  505  504  0.25244299421E+02 -0.11882827613E+03  0.16657392975E+03  0.20616572929E+03  0.00000000000E+00 0. -1.
          2    1    1    2  501    0  0.11479211112E+03 -0.10656549807E+02 -0.18702125721E+03  0.21969920682E+03  0.00000000000E+00 0.  1.
<scales pt_clust_3="37.97103" pt_clust_4="37.97103" pt_clust_5="125.89690" pt_clust_6="115.28569"></scales>
<clustering>
<clus scale="   37.971">  3  4 -1 -1</clus>
<clus scale="  115.286">  2  6  1 -1</clus>
<clus scale="  125.897">  1  5  2 -1</clus>
<clus scale="  125.897">  1  3  2 -1</clus>
</clustering>
</event>
<event>
 6    0  0.4945982E+002  0.1295164E+03  0.7546771E-02  0.1228175E+00
          2   -1    0    0  503    0 -0.00000000000E+00  0.00000000000E+00  0.12958880947E+04  0.12958880947E+04  0.00000000000E+00 0.  1.
         21   -1    0    0  504  502  0.00000000000E+00 -0.00000000000E+00 -0.13625667880E+03  0.13625667880E+03  0.00000000000E+00 0.  1.
         21    1    1    2  503  505 -0.10198415439E+03 -0.75100689949E+02  0.71351365499E+02  0.14536814898E+03  0.00000000000E+00 0.  1.
         21    1    1    2  504  501  0.39645048720E+02 -0.58581676443E+02 -0.33503677290E+02  0.78269017464E+02  0.00000000000E+00 0.  1.
         21    1    1    2  505  502  0.23406458151E+02  0.15428271603E+03  0.99057814302E+02  0.18483362606E+03  0.00000000000E+00 0.  1.
          2    1    1    2  501    0  0.38932647520E+02 -0.20600349640E+02  0.10227259134E+04  0.10236739810E+04  0.00000000000E+00 0.  1.
<scales pt_clust_3="14000.00000" pt_clust_4="73.94667" pt_clust_5="129.51640" pt_clust_6="44.04686"></scales>
<clustering>
<clus scale="   44.047">  1  6  2 -1</clus>
<clus scale="   73.947">  2  4  1 -1</clus>
<clus scale="  129.516">  2  5  1 -1</clus>
<clus scale="   73.947">  2  3  1 -1</clus>
</clustering>
</event>
<event>
 6    0  0.4945982E+002  0.6624764E+02  0.7546771E-02  0.1373339E+00
         21   -1    0    0  504  502  0.00000000000E+00  0.00000000000E+00  0.54928689324E+03  0.54928689324E+03  0.00000000000E+00 0.  1.
          1   -1    0    0  503    0 -0.00000000000E+00 -0.00000000000E+00 -0.70898394249E+03  0.70898394249E+03  0.00000000000E+00 0.  1.
         21    1    1    2  503  505  0.43053433631E+02 -0.45618498634E+02  0.37922818810E+02  0.73299288889E+02  0.00000000000E+00 0.  1.
         21    1    1    2  504  501 -0.93363301214E+02  0.58255274053E+02  0.44844913306E+03  0.46175427222E+03  0.00000000000E+00 0.  1.
         21    1    1    2  505  502 -0.13765421514E+02 -0.29327883287E+02  0.29856110503E+02  0.44056769082E+02  0.00000000000E+00 0.  1.
          1    1    1    2  501    0  0.64075289097E+02  0.16691107868E+02 -0.67592511163E+03  0.67916050554E+03  0.00000000000E+00 0.  1.
<scales pt_clust_3="64.09991" pt_clust_4="14000.00000" pt_clust_5="32.39771" pt_clust_6="66.24764"></scales>
<clustering>
<clus scale="   32.398">  1  5  2 -1</clus>
<clus scale="   64.100">  1  3  2 -1</clus>
<clus scale="   66.248">  2  6  1 -1</clus>
<clus scale="   32.398">  1  3  2 -1</clus>
</clustering>
</event>
<event>
 6    0  0.4945982E+002  0.1012303E+03  0.7546771E-02  0.1277730E+00
          1   -1    0    0  504    0 -0.00000000000E+00  0.00000000000E+00  0.23036573325E+04  0.23036573325E+04  0.00000000000E+00 0. -1.
         21   -1    0    0  503  502  0.00000000000E+00 -0.00000000000E+00 -0.72572914274E+02  0.72572914274E+02  0.00000000000E+00 0. -1.
         21    1    1    2  503  501 -0.42116332743E+02 -0.13317912354E+02 -0.46294132196E+02  0.63986709158E+02  0.00000000000E+00 0. -1.
         21    1    1    2  504  505  0.21564673822E+02 -0.40644886124E+02  0.15290897636E+04  0.15297818626E+04  0.00000000000E+00 0.  1.
         21    1    1    2  505  502 -0.76438720154E+02  0.18686928194E+02  0.10644379076E+03  0.13237205073E+03  0.00000000000E+00 0.  1.
          1    1    1    2  501    0  0.96990379075E+02  0.35275870284E+02  0.64184499605E+03  0.65008962429E+03  0.00000000000E+00 0. -1.
<scales pt_clust_3="44.17185" pt_clust_4="45.86113" pt_clust_5="14000.00000" pt_clust_6="101.23027"></scales>
<clustering>
<clus scale="   44.172">  2  3  1 -1</clus>
<clus scale="   45.861">  1  4  2 -1</clus>
<clus scale="  101.230">  1  6  2 -1</clus>
<clus scale="   44.172">  2  3  1 -1</clus>
</clustering>
</event>
<event>
 6    0  0.4945982E+002  0.2960967E+03  0.7546771E-02  0.1087208E+00
         21   -1    0    0  505  502  0.00000000000E+00  0.00000000000E+00  0.92074725045E+03  0.92074725045E+03  0.00000000000E+00 0. -1.
         -1   -1    0    0    0  501 -0.00000000000E+00 -0.00000000000E+00 -0.14130492697E+03  0.14130492697E+03  0.00000000000E+00 0. -1.
         21    1    1    2  503  501  0.99522960179E+02  0.56225557223E+02  0.11192625152E+03  0.15998005709E+03  0.00000000000E+00 0. -1.
         21    1    1    2  504  503  0.14801648136E+03 -0.40116449885E+02  0.28866851940E+03  0.32687569869E+03  0.00000000000E+00 0. -1.
         21    1    1    2  505  504  0.28696729833E+02 -0.83819770049E+02  0.24564938148E+03  0.26113765484E+03  0.00000000000E+00 0. -1.
         -1    1    1    2    0  502 -0.27623617137E+03  0.67710662712E+02  0.13319817108E+03  0.31405876679E+03  0.00000000000E+00 0. -1.
<scales pt_clust_3="96.98441" pt_clust_4="96.98441" pt_clust_5="88.59603" pt_clust_6="269.54811"></scales>
<clustering>
<clus scale="   88.596">  1  5  2 -1</clus>
<clus scale="   96.984">  3  4 -1 -1</clus>
<clus scale="  269.548">  2  6  1 -1</clus>
<clus scale="   88.596">  1  3  2 -1</clus>
</clustering>
</event>
<event>
 6    0  0.1357735E+003  0.1746700E+03  0.7546771E-02  0.1173063E+00
         21   -1    0    0  503  502  0.00000000000E+00  0.00000000000E+00  0.12132606978E+04  0.12132606978E+04  0.00000000000E+00 0.  1.
          1   -1    0    0  504    0 -0.00000000000E+00 -0.00000000000E+00 -0.15015441020E+04  0.15015441020E+04  0.00000000000E+00 0.  1.
         21    1    1    2  503  501  0.15930399811E+03  0.74732764831E+02  0.10884236105E+04  0.11025555341E+04  0.00000000000E+00 0.  1.
         21    1    1    2  504  505 -0.12552322953E+03 -0.91795422288E+02 -0.22804687100E+02  0.15717039944E+03  0.00000000000E+00 0. -1.
         21    1    1    2  505  502  0.21801158118E+02 -0.47519397543E+02  0.35417331538E+02  0.63148800554E+02  0.00000000000E+00 0.  1.
          1    1    1    2  501    0 -0.55581926701E+02  0.64582054999E+02 -0.13893196591E+04  0.13919300657E+04  0.00000000000E+00 0.  1.
<scales pt_clust_3="14000.00000" pt_clust_4="174.67002" pt_clust_5="52.28177" pt_clust_6="85.15043"></scales>
<clustering>
<clus scale="   52.282">  1  5  2 -1</clus>
<clus scale="   85.150">  2  6  1 -1</clus>
<clus scale="  174.670">  2  4  1 -1</clus>
<clus scale="   52.282">  1  3  2 -1</clus>
</clustering>
</event>
<event>
 6    0  0.4945982E+002  0.1300070E+03  0.7546771E-02  0.1227445E+00
         21   -1    0    0  505  502  0.00000000000E+00  0.00000000000E+00  0.16180560106E+02  0.16180560106E+02  0.00000000000E+00 0. -1.
          1   -1    0    0  503    0 -0.00000000000E+00 -0.00000000000E+00 -0.19522269321E+04  0.19522269321E+04  0.00000000000E+00 0.  1.
         21    1    1    2  503  504 -0.48913853442E+02 -0.34240259044E+02 -0.21677701876E+03  0.22484936349E+03  0.00000000000E+00 0. -1.
         21    1    1    2  504  502 -0.25093819454E+02 -0.73834859602E+02 -0.17634841459E+03  0.19282128927E+03  0.00000000000E+00 0. -1.
         21    1    1    2  505  501  0.50866946426E+02  0.84899036935E+02 -0.67693111183E+03  0.68412792873E+03  0.00000000000E+00 0. -1.
          1    1    1    2  501    0  0.23140726470E+02  0.23176081712E+02 -0.86598982684E+03  0.86660891075E+03  0.00000000000E+00 0.  1.
<scales pt_clust_3="44.69242" pt_clust_4="44.69242" pt_clust_5="118.98747" pt_clust_6="32.75094"></scales>
<clustering>
<clus scale="   32.751">  2  6  1 -1</clus>
<clus scale="   44.692">  3  4 -1 -1</clus>
<clus scale="  118.987">  2  5  1 -1</clus>
<clus scale="  130.007">  1  3  2 -1</clus>
</clustering>
</event>
<event>
 6    0  0.4945982E+002  0.1939409E+03  0.7546771E-02  0.1154954E+00
          1   -1    0    0  503    0 -0.00000000000E+00  0.00000000000E+00  0.38385421075E+03  0.38385421075E+03  0.00000000000E+00 0.  1.
         21   -1    0    0  505  502  0.00000000000E+00 -0.00000000000E+00 -0.13558826630E+03  0.13558826630E+03  0.00000000000E+00 0.  1.
         21    1    1    2  503  504  0.42396904201E+02 -0.17209703825E+03  0.11509870101E+03  0.21133527636E+03  0.00000000000E+00 0.  1.
         21    1    1    2  504  502  0.42920246817E+02 -0.12364680140E+02 -0.20844094577E+02  0.49290051537E+02  0.00000000000E+00 0. -1.
         21    1    1    2  505  501 -0.38040935543E+02  0.11987354470E+03  0.75439938728E+02  0.14665593698E+03  0.00000000000E+00 0.  1.
          1    1    1    2  501    0 -0.47276215475E+02  0.64588173688E+02  0.78571399281E+02  0.11216121217E+03  0.00000000000E+00 0.  1.
<scales pt_clust_3="188.81573" pt_clust_4="44.66579" pt_clust_5="35.33402" pt_clust_6="35.33402"></scales>
<clustering>
<clus scale="   35.334">  5  6 -1 -1</clus>
<clus scale="   44.666">  2  4  1 -1</clus>
<clus scale="  188.816">  1  3  2 -1</clus>
<clus scale="   44.666">  2  3  1 -1</clus>
</clustering>
</event>
<event>
 6    0  0.4945982E+002  0.6322905E+02  0.7546771E-02  0.1384760E+00
         21   -1    0    0  501  502  0.00000000000E+00  0.00000000000E+00  0.66238965130E+03  0.66238965130E+03  0.00000000000E+00 0. -1.
          2   -1    0    0  505    0 -0.00000000000E+00 -0.00000000000E+00 -0.17344562540E+03  0.17344562540E+03  0.00000000000E+00 0. -1.
         21    1    1    2  503  504 -0.58047692019E+02 -0.52824040147E+02  0.39325585503E+02  0.87786191633E+02  0.00000000000E+00 0. -1.
         21    1    1    2  504  502  0.10737182707E+02  0.44006070726E+02  0.55836746054E+03  0.56020178717E+03  0.00000000000E+00 0. -1.
         21    1    1    2  505  503  0.65257390780E+02  0.65635728361E+02 -0.55397923424E+02  0.10786800178E+03  0.00000000000E+00 0. -1.
          2    1    1    2  501    0 -0.17946881468E+02 -0.56817758940E+02 -0.53351096722E+02  0.79979296114E+02  0.00000000000E+00 0. -1.
<scales pt_clust_3="14000.00000" pt_clust_4="45.29703" pt_clust_5="63.22905" pt_clust_6="53.74992"></scales>
<clustering>
<clus scale="   45.297">  1  4  2 -1</clus>
<clus scale="   53.750">  2  6  1 -1</clus>
<clus scale="   63.229">  2  5  1 -1</clus>
<clus scale="   45.297">  1  3  2 -1</clus>
</clustering>
</event>
<event>
 6    0  0.4945982E+002  0.1014857E+03  0.7546771E-02  0.1277202E+00
         21   -1    0    0  504  502  0.00000000000E+00  0.00000000000E+00  0.45670729225E+02  0.45670729225E+02  0.00000000000E+00 0.  1.
          2   -1    0    0  505    0 -0.00000000000E+00 -0.00000000000E+00 -0.33629994384E+04  0.33629994384E+04  0.00000000000E+00 0. -1.
         21    1    1    2  503  502  0.27386613940E+02 -0.45334493000E+02 -0.36932715069E+02  0.64569871620E+02  0.00000000000E+00 0.  1.
         21    1    1    2  504  501  0.77326418640E+02  0.57314818211E+02 -0.50886469879E+02  0.10887514052E+03  0.00000000000E+00 0.  1.
         21    1    1    2  505  503 -0.43833585645E+02  0.45707130487E+01 -0.18935248700E+03  0.19441357715E+03  0.00000000000E+00 0.  1.
          2    1    1    2  501    0 -0.60879446936E+02 -0.16551038259E+02 -0.30401570372E+04  0.30408115783E+04  0.00000000000E+00 0. -1.
<scales pt_clust_3="52.54220" pt_clust_4="101.48569" pt_clust_5="44.07125" pt_clust_6="14000.00000"></scales>
<clustering>
<clus scale="   44.071">  2  5  1 -1</clus>
<clus scale="   52.542">  1  3  2 -1</clus>
<clus scale="  101.486">  1  4  2 -1</clus>
<clus scale="   52.542">  1  3  2 -1</clus>
</clustering>
</event>
<event>
 6    0  0.4945982E+002  0.1407041E+03  0.7546771E-02  0.1212385E+00
          2   -1    0    0  505    0 -0.00000000000E+00  0.00000000000E+00  0.19923306123E+04  0.19923306123E+04  0.00000000000E+00 0. -1.
         21   -1    0    0  503  502  0.00000000000E+00 -0.00000000000E+00 -0.33546055818E+02  0.33546055818E+02  0.00000000000E+00 0. -1.
         21    1    1    2  503  504  0.63110442807E+02  0.22019055632E+02  0.11978956304E+03  0.13717618677E+03  0.00000000000E+00 0. -1.
         21    1    1    2  504  501  0.76375082322E+01 -0.14260961719E+03  0.27227768843E+03  0.30745889816E+03  0.00000000000E+00 0. -1.
         21    1    1    2  505  502 -0.28860461052E+02 -0.14042740083E+02  0.60922815770E+02  0.68860106321E+02  0.00000000000E+00 0. -1.
          2    1    1    2  501    0 -0.41887489987E+02  0.13463330164E+03  0.15057944893E+04  0.15123814769E+04  0.00000000000E+00 0. -1.
<scales pt_clust_3="57.48316" pt_clust_4="140.70414" pt_clust_5="32.09556" pt_clust_6="14000.00000"></scales>
<clustering>
<clus scale="   32.096">  2  5  1 -1</clus>
<clus scale="   57.483">  2  3  1 -1</clus>
<clus scale="  140.704">  2  4  1 -1</clus>
<clus scale="   32.096">  2  3  1 -1</clus>
</clustering>
</event>
<event>
 6    0  0.4945982E+002  0.8579312E+02  0.7546771E-02  0.1313371E+00
          1   -1    0    0  505    0 -0.00000000000E+00  0.00000000000E+00  0.32513866363E+02  0.32513866363E+02  0.00000000000E+00 0. -1.
         21   -1    0    0  501  502  0.00000000000E+00 -0.00000000000E+00 -0.10868895062E+04  0.10868895062E+04  0.00000000000E+00 0.  1.
         21    1    1    2  503  502  0.68661621915E+02 -0.69582368163E+02 -0.74625209561E+03  0.75262760678E+03  0.00000000000E+00 0.  1.
         21    1    1    2  504  503  0.36632270864E+02  0.64528345434E+02 -0.10068205807E+03  0.12507080974E+03  0.00000000000E+00 0. -1.
         21    1    1    2  505  504 -0.26892909593E+02  0.31382710380E+02 -0.67051959098E+02  0.78765908336E+02  0.00000000000E+00 0. -1.
          1    1    1    2  501    0 -0.78400983187E+02 -0.26328687651E+02 -0.14038952705E+03  0.16293904769E+03  0.00000000000E+00 0. -1.
<scales pt_clust_3="14000.00000" pt_clust_4="82.55133" pt_clust_5="41.32920" pt_clust_6="85.79312"></scales>
<clustering>
<clus scale="   41.329">  1  5  2 -1</clus>
<clus scale="   82.551">  1  4  2 -1</clus>
<clus scale="   85.793">  1  6  2 -1</clus>
<clus scale="   85.793">  2  3  1 -1</clus>
</clustering>
</event>
<event>
 6    0  0.4945982E+002  0.1556251E+03  0.7546771E-02  0.1193726E+00
          2   -1    0    0  505    0 -0.00000000000E+00  0.00000000000E+00  0.42812784467E+04  0.42812784467E+04  0.00000000000E+00 0.  1.
         21   -1    0    0  503  502  0.00000000000E+00 -0.00000000000E+00 -0.18019972730E+03  0.18019972730E+03  0.00000000000E+00 0. -1.
         21    1    1    2  503  501  0.45150859778E+02  0.59869059664E+01  0.15018971668E+02  0.47958447553E+02  0.00000000000E+00 0. -1.
         21    1    1    2  504  502  0.14734100231E+01  0.39243099237E+02 -0.15407643077E+02  0.42185154261E+02  0.00000000000E+00 0. -1.
         21    1    1    2  505  504 -0.13516843613E+03  0.82888615459E+02 -0.86400742943E+02  0.18057163974E+03  0.00000000000E+00 0. -1.
          2    1    1    2  501    0  0.88544166326E+02 -0.12811862066E+03  0.41878681337E+04  0.41907629325E+04  0.00000000000E+00 0.  1.
<scales pt_clust_3="46.45730" pt_clust_4="39.27075" pt_clust_5="155.62514" pt_clust_6="14000.00000"></scales>
<clustering>
<clus scale="   39.271">  2  4  1 -1</clus>
<clus scale="   46.457">  2  3  1 -1</clus>
<clus scale="  155.625">  2  5  1 -1</clus>
<clus scale="   39.271">  2  3  1 -1</clus>
</clustering>
</event>
<event>
 6    0  0.4945982E+002  0.1663638E+03  0.7546771E-02  0.1181694E+00
          2   -1    0    0  503    0 -0.00000000000E+00  0.00000000000E+00  0.17305461952E+04  0.17305461952E+04  0.00000000000E+00 0.  1.
         21   -1    0    0  505  502  0.00000000000E+00 -0.00000000000E+00 -0.37347740157E+03  0.37347740157E+03  0.00000000000E+00 0.  1.
         21    1    1    2  503  504 -0.65223833515E+02  0.86447070229E+02 -0.73344660972E+02  0.13079252159E+03  0.00000000000E+00 0.  1.
         21    1    1    2  504  502 -0.45180477615E+02  0.59121366319E+01 -0.25721973768E+03  0.26122446740E+03  0.00000000000E+00 0.  1.
         21    1    1    2  505  501 -0.64547632291E+01  0.29477912017E+02  0.20810315769E+02  0.36656247866E+02  0.00000000000E+00 0.  1.
          2    1    1    2  501    0  0.11685907436E+03 -0.12183711888E+03  0.16668228765E+04  0.16753503599E+04  0.00000000000E+00 0.  1.
<scales pt_clust_3="166.36383" pt_clust_4="56.52344" pt_clust_5="30.17634" pt_clust_6="14000.00000"></scales>
<clustering>
<clus scale="   30.176">  2  5  1 -1</clus>
<clus scale="   56.523">  2  4  1 -1</clus>
<clus scale="  166.364">  2  3  1 -1</clus>
<clus scale="   30.176">  2  3  1 -1</clus>
</clustering>
</event>
<event>
 6    0  0.4945982E+002  0.1842248E+03  0.7546771E-02  0.1163776E+00
         21   -1    0    0  504  502  0.00000000000E+00  0.00000000000E+00  0.13097741610E+03  0.13097741610E+03  0.00000000000E+00 0. -1.
          2   -1    0    0  503    0 -0.00000000000E+00 -0.00000000000E+00 -0.61998238948E+03  0.61998238948E+03  0.00000000000E+00 0.  1.
         21    1    1    2  503  505  0.31878195326E+02  0.96601299400E+01 -0.49797050027E+02  0.59910630435E+02  0.00000000000E+00 0.  1.
         21    1    1    2  504  501 -0.10080697657E+03  0.14380305534E+03  0.80292938557E+01  0.17580055407E+03  0.00000000000E+00 0. -1.
         21    1    1    2  505  502  0.26442175366E+02  0.29167693541E+02 -0.11712433080E+02  0.41074615923E+02  0.00000000000E+00 0. -1.
          2    1    1    2  501    0  0.42486605877E+02 -0.18263087882E+03 -0.43552478413E+03  0.47417400516E+03  0.00000000000E+00 0.  1.
<scales pt_clust_3="33.30972" pt_clust_4="184.22480" pt_clust_5="40.71139" pt_clust_6="14000.00000"></scales>
<clustering>
<clus scale="   33.310">  2  3  1 -1</clus>
<clus scale="   40.711">  1  5  2 -1</clus>
<clus scale="  184.225">  1  4  2 -1</clus>
<clus scale="   40.711">  1  3  2 -1</clus>
</clustering>
</event>
<event>
 6    0  0.4945982E+002  0.1563801E+03  0.7546771E-02  0.1192845E+00
         21   -1    0    0  505  502  0.00000000000E+00  0.00000000000E+00  0.16283183414E+04  0.16283183414E+04  0.00000000000E+00 0. -1.
          1   -1    0    0  503    0 -0.00000000000E+00 -0.00000000000E+00 -0.19878662205E+04  0.19878662205E+04  0.00000000000E+00 0. -1.
         21    1    1    2  503  504  0.12764586217E+03  0.74769210018E+01 -0.47471300054E+02  0.13639242943E+03  0.00000000000E+00 0. -1.
         21    1    1    2  504  502 -0.50115546301E+02  0.13264920517E+03  0.15408382770E+04  0.15473493385E+04  0.00000000000E+00 0. -1.
         21    1    1    2  505  501  0.33494971701E+02  0.23513476046E+02  0.22452238347E+02  0.46678685627E+02  0.00000000000E+00 0. -1.
          1    1    1    2  501    0 -0.11102528757E+03 -0.16363960222E+03 -0.18753670943E+04  0.18857641084E+04  0.00000000000E+00 0. -1.
<scales pt_clust_3="128.83721" pt_clust_4="156.38010" pt_clust_5="40.92428" pt_clust_6="14000.00000"></scales>
<clustering>
<clus scale="   40.924">  1  5  2 -1</clus>
<clus scale="  128.837">  2  3  1 -1</clus>
<clus scale="  156.380">  1  4  2 -1</clus>
<clus scale="   40.924">  1  3  2 -1</clus>
</clustering>
</event>
<event>
 6    0  0.4945982E+002  0.9033520E+02  0.7546771E-02  0.1302042E+00
          2   -1    0    0  505    0 -0.00000000000E+00  0.00000000000E+00  0.10477666206E+04  0.10477666206E+04  0.00000000000E+00 0.  1.
         21   -1    0    0  504  502  0.00000000000E+00 -0.00000000000E+00 -0.89751451368E+02  0.89751451368E+02  0.00000000000E+00 0. -1.
         21    1    1    2  503  502  0.32939887487E+02 -0.80754712397E+01 -0.48634179432E+00  0.33918814127E+02  0.00000000000E+00 0. -1.
         21    1    1    2  504  501  0.70549692782E+02  0.10252778421E+03  0.21353031274E+02  0.12627413682E+03  0.00000000000E+00 0. -1.
         21    1    1    2  505  503 -0.56289221256E+02 -0.19089634314E+02  0.31400776383E+02  0.67222758983E+02  0.00000000000E+00 0.  1.
          2    1    1    2  501    0 -0.47200359014E+02 -0.75362678652E+02  0.90574770332E+03  0.91010236199E+03  0.00000000000E+00 0.  1.
<scales pt_clust_3="33.91533" pt_clust_4="90.33520" pt_clust_5="52.56995" pt_clust_6="14000.00000"></scales>
<clustering>
<clus scale="   33.915">  2  3  1 -1</clus>
<clus scale="   52.570">  2  5  1 -1</clus>
<clus scale="   90.335">  2  4  1 -1</clus>
<clus scale="   33.915">  2  3  1 -1</clus>
</clustering>
</event>
<event>
 6    0  0.4945982E+002  0.1258497E+03  0.7546771E-02  0.1233747E+00
         21   -1    0    0  504  502  0.00000000000E+00  0.00000000000E+00  0.52621352249E+03  0.52621352249E+03  0.00000000000E+00 0.  1.
          2   -1    0    0  505    0 -0.00000000000E+00 -0.00000000000E+00 -0.12466241375E+04  0.12466241375E+04  0.00000000000E+00 0.  1.
         21    1    1    2  503  501 -0.80992489952E+02  0.41930030983E+02 -0.70044269919E+02  0.11499613331E+03  0.00000000000E+00 0.  1.
         21    1    1    2  504  503  0.39489524651E+02  0.27227352762E+01  0.46757683985E+03  0.46924933351E+03  0.00000000000E+00 0.  1.
         21    1    1    2  505  502  0.70574210162E+02  0.81596900023E+02 -0.61392398077E+02  0.12412815867E+03  0.00000000000E+00 0.  1.
          2    1    1    2  501    0 -0.29071244861E+02 -0.12624966628E+03 -0.10565507868E+04  0.10644640345E+04  0.00000000000E+00 0.  1.
<scales pt_clust_3="78.46164" pt_clust_4="39.58328" pt_clust_5="125.84975" pt_clust_6="14000.00000"></scales>
<clustering>
<clus scale="   39.583">  1  4  2 -1</clus>
<clus scale="   78.462">  1  3  2 -1</clus>
<clus scale="  125.850">  1  5  2 -1</clus>
<clus scale="   39.583">  1  3  2 -1</clus>
</clustering>
</event>
<event>
 6    0  0.4945982E+002  0.6881622E+02  0.7546771E-02  0.1364165E+00
         21   -1    0    0  504  502  0.00000000000E+00  0.00000000000E+00  0.89874746173E+02  0.89874746173E+02  0.00000000000E+00 0. -1.
          2   -1    0    0  505    0 -0.00000000000E+00 -0.00000000000E+00 -0.88222764403E+03  0.88222764403E+03  0.00000000000E+00 0.  1.
         21    1    1    2  503  501  0.44373092691E+02 -0.57762379114E+02  0.19379838742E+02  0.75372687000E+02  0.00000000000E+00 0. -1.
         21    1    1    2  504  503 -0.39946458300E+02 -0.41055744402E+02 -0.47419243294E+01  0.57478513599E+02  0.00000000000E+00 0. -1.
         21    1    1    2  505  502  0.31492317288E+02  0.59587191474E+02 -0.59599237097E+02  0.89969264188E+02  0.00000000000E+00 0. -1.
          2    1    1    2  501    0 -0.35918951679E+02  0.39230932043E+02 -0.74739157517E+03  0.74928192542E+03  0.00000000000E+00 0.  1.
<scales pt_clust_3="14000.00000" pt_clust_4="57.89936" pt_clust_5="68.81622" pt_clust_6="53.19057"></scales>
<clustering>
<clus scale="   53.191">  2  6  1 -1</clus>
<clus scale="   57.899">  1  4  2 -1</clus>
<clus scale="   68.816">  2  5  1 -1</clus>
<clus scale="   57.899">  1  3  2 -1</clus>
</clustering>
</event>
<event>
 6    0  0.4945982E+002  0.2633591E+03  0.7546771E-02  0.1105142E+00
         21   -1    0    0  501  502  0.00000000000E+00  0.00000000000E+00  0.18133793801E+03  0.18133793801E+03  0.00000000000E+00 0.  1.
          2   -1    0    0  503    0 -0.00000000000E+00 -0.00000000000E+00 -0.23495439825E+04  0.23495439825E+04  0.00000000000E+00 0.  1.
         21    1    1    2  503  504  0.28267656221E+02 -0.10275446343E+03 -0.35202862541E+03  0.36780659762E+03  0.00000000000E+00 0.  1.
         21    1    1    2  504  505 -0.23347693821E+03  0.14125292020E+03 -0.12485551322E+03  0.30008793265E+03  0.00000000000E+00 0.  1.
         21    1    1    2  505  502  0.48408729236E+02  0.63852738762E+02  0.60989994704E+02  0.10069933847E+03  0.00000000000E+00 0.  1.
          2    1    1    2  501    0  0.15680055275E+03 -0.10235119554E+03 -0.17523119006E+04  0.17622880518E+04  0.00000000000E+00 0.  1.
<scales pt_clust_3="102.86797" pt_clust_4="263.35913" pt_clust_5="80.12851" pt_clust_6="14000.00000"></scales>
<clustering>
<clus scale="   80.129">  1  5  2 -1</clus>
<clus scale="  102.868">  2  3  1 -1</clus>
<clus scale="  263.359">  1  4  2 -1</clus>
<clus scale="   80.129">  1  3  2 -1</clus>
</clustering>
</event>
<event>
 6    0  0.4945982E+002  0.8434083E+02  0.7546771E-02  0.1317165E+00
          2   -1    0    0  504    0 -0.00000000000E+00  0.00000000000E+00  0.16815710487E+04  0.16815710487E+04  0.00000000000E+00 0. -1.
         21   -1    0    0  505  502  0.00000000000E+00 -0.00000000000E+00 -0.67520208493E+02  0.67520208493E+02  0.00000000000E+00 0.  1.
         21    1    1    2  503  502 -0.64512406790E+02  0.10666432147E+02  0.32312514334E+03  0.32967481199E+03  0.00000000000E+00 0.  1.
         21    1    1    2  504  503  0.38396284233E+02 -0.31048000429E+02  0.13849584165E+03  0.14703520371E+03  0.00000000000E+00 0. -1.
         21    1    1    2  505  501 -0.83513929403E+02  0.58531621875E+01 -0.26856455326E+02  0.87921016285E+02  0.00000000000E+00 0.  1.
          2    1    1    2  501    0  0.10963005196E+03  0.14528406095E+02  0.11792863106E+04  0.11844602252E+04  0.00000000000E+00 0. -1.
<scales pt_clust_3="56.51559" pt_clust_4="49.37867" pt_clust_5="14000.00000" pt_clust_6="84.34083"></scales>
<clustering>
<clus scale="   49.379">  1  4  2 -1</clus>
<clus scale="   56.516">  1  3  2 -1</clus>
<clus scale="   84.341">  1  6  2 -1</clus>
<clus scale="   84.341">  2  3  1 -1</clus>
</clustering>
</event>
<event>
 6    0  0.4945982E+002  0.1794042E+03  0.7546771E-02  0.1168381E+00
          1   -1    0    0  504    0 -0.00000000000E+00  0.00000000000E+00  0.23370848458E+04  0.23370848458E+04  0.00000000000E+00 0.  1.
         21   -1    0    0  501  502  0.00000000000E+00 -0.00000000000E+00 -0.24440093047E+04  0.24440093047E+04  0.00000000000E+00 0.  1.
         21    1    1    2  503  505  0.64344302815E+02 -0.16183971151E+03  0.50895564879E+03  0.53792948791E+03  0.00000000000E+00 0.  1.
         21    1    1    2  504  503  0.56787504198E+02 -0.43102109035E+02  0.26994863952E+03  0.27920401218E+03  0.00000000000E+00 0.  1.
         21    1    1    2  505  502 -0.86656638559E+02  0.14230297089E+03 -0.24211998395E+04  0.24269256626E+04  0.00000000000E+00 0.  1.
          1    1    1    2  501    0 -0.34475168455E+02  0.62638849658E+02  0.15353710923E+04  0.15370349878E+04  0.00000000000E+00 0.  1.
<scales pt_clust_3="42.15513" pt_clust_4="42.15513" pt_clust_5="166.86719" pt_clust_6="71.49939"></scales>
<clustering>
<clus scale="   42.155">  3  4 -1 -1</clus>
<clus scale="   71.499">  1  6  2 -1</clus>
<clus scale="  166.867">  2  5  1 -1</clus>
<clus scale="  166.867">  2  3  1 -1</clus>
</clustering>
</event>
<event>
 6    0  0.4945982E+002  0.2077201E+03  0.7546771E-02  0.1143384E+00
          2   -1    0    0  503    0 -0.00000000000E+00  0.00000000000E+00  0.21803753004E+04  0.21803753004E+04  0.00000000000E+00 0. -1.
         21   -1    0    0  504  502  0.00000000000E+00 -0.00000000000E+00 -0.10281564058E+03  0.10281564058E+03  0.00000000000E+00 0. -1.
         21    1    1    2  503  505  0.75409770677E+02  0.11511106782E+03  0.19253978989E+03  0.23666170400E+03  0.00000000000E+00 0. -1.
         21    1    1    2  504  501  0.55121722779E+02 -0.24895899267E+02 -0.43678475894E+02  0.74605759689E+02  0.00000000000E+00 0. -1.
         21    1    1    2  505  502  0.22655397687E+02  0.36791016202E+02  0.11888861159E+02  0.44812843440E+02  0.00000000000E+00 0. -1.
          2    1    1    2  501    0 -0.15318689114E+03 -0.12700618476E+03  0.19168094847E+04  0.19271106339E+04  0.00000000000E+00 0. -1.
<scales pt_clust_3="38.60150" pt_clust_4="60.48314" pt_clust_5="38.60150" pt_clust_6="195.96384"></scales>
<clustering>
<clus scale="   38.602">  3  5 -1 -1</clus>
<clus scale="   60.483">  2  4  1 -1</clus>
<clus scale="  195.964">  1  6  2 -1</clus>
<clus scale="   60.483">  2  3  1 -1</clus>
</clustering>
</event>
<event>
 6    0  0.4945982E+002  0.2021115E+03  0.7546771E-02  0.1147970E+00
         21   -1    0    0  504  502  0.00000000000E+00  0.00000000000E+00  0.92339047658E+03  0.92339047658E+03  0.00000000000E+00 0.  1.
          1   -1    0    0  505    0 -0.00000000000E+00 -0.00000000000E+00 -0.15925417699E+04  0.15925417699E+04  0.00000000000E+00 0. -1.
         21    1    1    2  503  501  0.94687289622E+02  0.91085378455E+02  0.18007939439E+02  0.13261415787E+03  0.00000000000E+00 0.  1.
         21    1    1    2  504  503 -0.31248964485E+02  0.26462280586E+02  0.76296938447E+02  0.86590836072E+02  0.00000000000E+00 0.  1.
         21    1    1    2  505  502 -0.86919228374E+02  0.84165413338E+02  0.75506001633E+03  0.76469235469E+03  0.00000000000E+00 0.  1.
          1    1    1    2  501    0  0.23480903236E+02 -0.20171307238E+03 -0.15185161875E+04  0.15320348978E+04  0.00000000000E+00 0. -1.
<scales pt_clust_3="131.06300" pt_clust_4="40.94814" pt_clust_5="14000.00000" pt_clust_6="202.11150"></scales>
<clustering>
<clus scale="   40.948">  1  4  2 -1</clus>
<clus scale="  131.063">  1  3  2 -1</clus>
<clus scale="  202.111">  2  6  1 -1</clus>
<clus scale="   40.948">  1  3  2 -1</clus>
</clustering>
</event>
<event>
 6    0  0.4945982E+002  0.8840685E+02  0.7546771E-02  0.1306756E+00
          2   -1    0    0  503    0 -0.00000000000E+00  0.00000000000E+00  0.92847921238E+03  0.92847921238E+03  0.00000000000E+00 0.  1.
         21   -1    0    0  505  502  0.00000000000E+00 -0.00000000000E+00 -0.13905970979E+03  0.13905970979E+03  0.00000000000E+00 0. -1.
         21    1    1    2  503  502 -0.41869604341E+02 -0.74499295156E+02 -0.25253371959E+02  0.89111960710E+02  0.00000000000E+00 0. -1.
         21    1    1    2  504  501  0.51820651090E+01  0.55225901875E+02  0.49509610990E+02  0.74350222710E+02  0.00000000000E+00 0. -1.
         21    1    1    2  505  504 -0.50476432113E+02 -0.17219583289E+01 -0.57506145570E+02  0.76536214419E+02  0.00000000000E+00 0. -1.
          2    1    1    2  501    0  0.87163971345E+02  0.20995351609E+02  0.82266940913E+03  0.82754052433E+03  0.00000000000E+00 0.  1.
<scales pt_clust_3="88.40685" pt_clust_4="55.04173" pt_clust_5="50.50580" pt_clust_6="14000.00000"></scales>
<clustering>
<clus scale="   50.506">  2  5  1 -1</clus>
<clus scale="   55.042">  2  4  1 -1</clus>
<clus scale="   88.407">  2  3  1 -1</clus>
<clus scale="   50.506">  2  3  1 -1</clus>
</clustering>
</event>
<event>
 6    0  0.4945982E+002  0.1467187E+03  0.7546771E-02  0.1204564E+00
          2   -1    0    0  504    0 -0.00000000000E+00  0.00000000000E+00  0.56296515821E+03  0.56296515821E+03  0.00000000000E+00 0. -1.
         21   -1    0    0  503  502  0.00000000000E+00 -0.00000000000E+00 -0.79421706661E+03  0.79421706661E+03  0.00000000000E+00 0. -1.
         21    1    1    2  503  501 -0.88900423740E+02 -0.12175791437E+03 -0.32257109759E+03  0.35606233731E+03  0.00000000000E+00 0. -1.
         21    1    1    2  504  505 -0.44842126045E+02  0.19534114083E+02 -0.21572796225E+02  0.53458239947E+02  0.00000000000E+00 0. -1.
         21    1    1    2  505  502  0.13860365422E+03  0.63200693480E+02 -0.40271190005E+03  0.43056030363E+03  0.00000000000E+00 0. -1.
          2    1    1    2  501    0 -0.48611044352E+01  0.39023106804E+02  0.51560388546E+03  0.51710134394E+03  0.00000000000E+00 0. -1.
<scales pt_clust_3="146.71868" pt_clust_4="56.95485" pt_clust_5="14000.00000" pt_clust_6="39.32471"></scales>
<clustering>
<clus scale="   39.325">  1  6  2 -1</clus>
<clus scale="   56.955">  1  4  2 -1</clus>
<clus scale="  146.719">  1  3  2 -1</clus>
<clus scale="  146.719">  2  3  1 -1</clus>
</clustering>
</event>
<event>
 6    0  0.4945982E+002  0.1284119E+03  0.7546771E-02  0.1229831E+00
         21   -1    0    0  504  502  0.00000000000E+00  0.00000000000E+00  0.67227683940E+03  0.67227683940E+03  0.00000000000E+00 0.  1.
          2   -1    0    0  503    0 -0.00000000000E+00 -0.00000000000E+00 -0.22837814919E+03  0.22837814919E+03  0.00000000000E+00 0.  1.
         21    1    1    2  503  505 -0.38375661575E+02  0.26497303117E+02  0.13404197590E+02  0.48522891370E+02  0.00000000000E+00 0.  1.
         21    1    1    2  504  501  0.55753120770E+02  0.12899262394E+03  0.54272414584E+03  0.56062198136E+03  0.00000000000E+00 0.  1.
         21    1    1    2  505  502  0.11924921954E+02 -0.98887619782E+02  0.54127299643E+02  0.11336105891E+03  0.00000000000E+00 0.  1.
          2    1    1    2  501    0 -0.29302381149E+02 -0.56602307280E+02 -0.16635695286E+03  0.17814905696E+03  0.00000000000E+00 0.  1.
<scales pt_clust_3="46.63473" pt_clust_4="128.41190" pt_clust_5="14000.00000" pt_clust_6="70.00739"></scales>
<clustering>
<clus scale="   46.635">  2  3  1 -1</clus>
<clus scale="   70.007">  2  6  1 -1</clus>
<clus scale="  128.412">  1  4  2 -1</clus>
<clus scale="  128.412">  1  3  2 -1</clus>
</clustering>
</event>
<event>
 6    0  0.4945982E+002  0.6229098E+02  0.7546771E-02  0.1388462E+00
         21   -1    0    0  503  502  0.00000000000E+00  0.00000000000E+00  0.57134691878E+03  0.57134691878E+03  0.00000000000E+00 0. -1.
          4   -1    0    0  504    0 -0.00000000000E+00 -0.00000000000E+00 -0.29582418740E+03  0.29582418740E+03  0.00000000000E+00 0.  1.
         21    1    1    2  503  505  0.20046147553E+02  0.53153141037E+02  0.16837845861E+03  0.17770315067E+03  0.00000000000E+00 0.  1.
         21    1    1    2  504  502 -0.17244595927E+02 -0.91738625321E+02  0.23142100695E+03  0.24953764029E+03  0.00000000000E+00 0. -1.
         21    1    1    2  505  501 -0.45572261979E+02  0.82944753506E+02  0.13976559601E+03  0.16879302422E+03  0.00000000000E+00 0. -1.
          4    1    1    2  501    0  0.42770710354E+02 -0.44359269222E+02 -0.26404233020E+03  0.27113729099E+03  0.00000000000E+00 0.  1.
<scales pt_clust_3="56.80761" pt_clust_4="59.86834" pt_clust_5="62.29098" pt_clust_6="14000.00000"></scales>
<clustering>
<clus scale="   56.808">  1  3  2 -1</clus>
<clus scale="   59.868">  1  4  2 -1</clus>
<clus scale="   62.291">  1  5  2 -1</clus>
<clus scale="   56.808">  1  3  2 -1</clus>
</clustering>
</event>
<event>
 6    0  0.4945982E+002  0.1409387E+03  0.7546771E-02  0.1212071E+00
         -1   -1    0    0    0  501 -0.00000000000E+00  0.00000000000E+00  0.67184255808E+03  0.67184255808E+03  0.00000000000E+00 0. -1.
         21   -1    0    0  505  502  0.00000000000E+00 -0.00000000000E+00 -0.24072073116E+04  0.24072073116E+04  0.00000000000E+00 0.  1.
         21    1    1    2  503  502 -0.48012028851E+02  0.54436767213E+02 -0.40469107512E+03  0.41114885726E+03  0.00000000000E+00 0. -1.
         21    1    1    2  504  501  0.10353329033E+03  0.76736412159E+02 -0.19901779475E+02  0.13039823613E+03  0.00000000000E+00 0. -1.
         21    1    1    2  505  504 -0.92383235961E+02 -0.89317591832E+02 -0.19207181693E+04  0.19250118391E+04  0.00000000000E+00 0.  1.
         -1    1    1    2    0  503  0.36861974478E+02 -0.41855587540E+02  0.60994627043E+03  0.61249093723E+03  0.00000000000E+00 0. -1.
<scales pt_clust_3="69.61399" pt_clust_4="140.93866" pt_clust_5="14000.00000" pt_clust_6="55.77361"></scales>
<clustering>
<clus scale="   55.774">  1  6  2 -1</clus>
<clus scale="   69.614">  2  3  1 -1</clus>
<clus scale="  140.939">  1  4  2 -1</clus>
<clus scale="   69.614">  2  3  1 -1</clus>
</clustering>
</event>
<event>
 6    0  0.4945982E+002  0.1252518E+03  0.7546771E-02  0.1234676E+00
         -2   -1    0    0    0  501 -0.00000000000E+00  0.00000000000E+00  0.39917389502E+03  0.39917389502E+03  0.00000000000E+00 0. -1.
         21   -1    0    0  504  502  0.00000000000E+00 -0.00000000000E+00 -0.31456431571E+03  0.31456431571E+03  0.00000000000E+00 0. -1.
         21    1    1    2  503  505 -0.57466352213E+02 -0.25825820378E+02 -0.54840313750E+00  0.63005201221E+02  0.00000000000E+00 0.  1.
         21    1    1    2  504  501  0.12416576140E+03  0.49373277424E+02 -0.45830990642E+02  0.14126335877E+03  0.00000000000E+00 0.  1.
         21    1    1    2  505  502 -0.10419105491E+03 -0.64065374539E+02 -0.16667051005E+03  0.20673462956E+03  0.00000000000E+00 0. -1.
         -2    1    1    2    0  503  0.37491645722E+02  0.40517917492E+02  0.29765948315E+03  0.30273502117E+03  0.00000000000E+00 0. -1.
<scales pt_clust_3="47.46420" pt_clust_4="14000.00000" pt_clust_5="125.25183" pt_clust_6="55.20258"></scales>
<clustering>
<clus scale="   55.203">  1  6  2 -1</clus>
<clus scale="   47.464">  1  3  2 -1</clus>
<clus scale="  125.252">  2  5  1 -1</clus>
<clus scale="  125.252">  2  3  1 -1</clus>
</clustering>
</event>
<event>
 6    0  0.4945982E+002  0.3454916E+03  0.7546771E-02  0.1064481E+00
         21   -1    0    0  505  502  0.00000000000E+00  0.00000000000E+00  0.10957048574E+04  0.10957048574E+04  0.00000000000E+00 0. -1.
          2   -1    0    0  503    0 -0.00000000000E+00 -0.00000000000E+00 -0.77605128743E+03  0.77605128743E+03  0.00000000000E+00 0. -1.
         21    1    1    2  503  502  0.34066137973E+03  0.31314012429E+02  0.98368029743E+03  0.10414689965E+04  0.00000000000E+00 0. -1.
         21    1    1    2  504  501 -0.17719745562E+03  0.24630648571E+02 -0.39111726345E+03  0.43009106117E+03  0.00000000000E+00 0. -1.
         21    1    1    2  505  504 -0.21417602967E+02  0.28328240359E+02  0.35582675052E+02  0.50272553969E+02  0.00000000000E+00 0.  1.
          2    1    1    2  501    0 -0.14204632115E+03 -0.84272901358E+02 -0.30849213907E+03  0.34992353325E+03  0.00000000000E+00 0. -1.
<scales pt_clust_3="325.37485" pt_clust_4="111.50345" pt_clust_5="35.51342" pt_clust_6="111.50345"></scales>
<clustering>
<clus scale="   35.513">  1  5  2 -1</clus>
<clus scale="  111.503">  4  6 -1 -1</clus>
<clus scale="  325.375">  1  3  2 -1</clus>
<clus scale="   35.513">  1  3  2 -1</clus>
</clustering>
</event>
<event>
 6    0  0.4945982E+002  0.9413271E+02  0.7546771E-02  0.1293141E+00
          1   -1    0    0  504    0 -0.00000000000E+00  0.00000000000E+00  0.83438484529E+03  0.83438484529E+03  0.00000000000E+00 0. -1.
         21   -1    0    0  505  502  0.00000000000E+00 -0.00000000000E+00 -0.49272456389E+02  0.49272456389E+02  0.00000000000E+00 0. -1.
         21    1    1    2  503  501 -0.79678571407E+02 -0.43199771456E+02  0.34214829576E+03  0.35394964513E+03  0.00000000000E+00 0. -1.
         21    1    1    2  504  502  0.29606802151E+02  0.21112305096E+02 -0.15327755864E+02  0.39461782269E+02  0.00000000000E+00 0. -1.
         21    1    1    2  505  503  0.88084233239E+02 -0.73985351329E+01  0.12270655557E+03  0.15122985567E+03  0.00000000000E+00 0. -1.
          1    1    1    2  501    0 -0.38012463983E+02  0.29486001493E+02  0.33558529343E+03  0.33901601861E+03  0.00000000000E+00 0. -1.
<scales pt_clust_3="14000.00000" pt_clust_4="36.36334" pt_clust_5="94.13271" pt_clust_6="47.36705"></scales>
<clustering>
<clus scale="   36.363">  2  4  1 -1</clus>
<clus scale="   47.367">  1  6  2 -1</clus>
<clus scale="   94.133">  2  5  1 -1</clus>
<clus scale="   36.363">  2  3  1 -1</clus>
</clustering>
</event>
<event>
 6    0  0.4945982E+002  0.1697009E+03  0.7546771E-02  0.1178160E+00
         21   -1    0    0  503  502  0.00000000000E+00  0.00000000000E+00  0.17376072530E+04  0.17376072530E+04  0.00000000000E+00 0.  1.
          1   -1    0    0  504    0 -0.00000000000E+00 -0.00000000000E+00 -0.89070077230E+02  0.89070077230E+02  0.00000000000E+00 0.  1.
         21    1    1    2  503  505  0.12099441554E+03 -0.49053536949E+02  0.67623426659E+03  0.68872249955E+03  0.00000000000E+00 0.  1.
         21    1    1    2  504  502 -0.28380744734E+02 -0.18257153865E+03  0.39940864698E+03  0.44007397183E+03  0.00000000000E+00 0.  1.
         21    1    1    2  505  501 -0.88864451192E+02  0.17800235645E+03  0.60389876986E+03  0.63582659100E+03  0.00000000000E+00 0.  1.
          1    1    1    2  501    0 -0.37492196134E+01  0.53622719151E+02 -0.31004507692E+02  0.62054267815E+02  0.00000000000E+00 0.  1.
<scales pt_clust_3="127.29024" pt_clust_4="14000.00000" pt_clust_5="169.70090" pt_clust_6="53.75363"></scales>
<clustering>
<clus scale="   53.754">  2  6  1 -1</clus>
<clus scale="  127.290">  1  3  2 -1</clus>
<clus scale="  169.701">  1  5  2 -1</clus>
<clus scale="  127.290">  1  3  2 -1</clus>
</clustering>
</event>
<event>
 6    0  0.4945982E+002  0.2219530E+03  0.7546771E-02  0.1132435E+00
          2   -1    0    0  503    0 -0.00000000000E+00  0.00000000000E+00  0.40509223232E+03  0.40509223232E+03  0.00000000000E+00 0. -1.
         21   -1    0    0  504  502  0.00000000000E+00 -0.00000000000E+00 -0.11438436274E+04  0.11438436274E+04  0.00000000000E+00 0. -1.
         21    1    1    2  503  502 -0.77378580501E+01  0.34697011659E+02 -0.74483886961E+02  0.82532457143E+02  0.00000000000E+00 0.  1.
         21    1    1    2  504  505  0.41185579498E+02 -0.10839818431E+02 -0.27504528073E+03  0.27832294206E+03  0.00000000000E+00 0. -1.
         21    1    1    2  505  501 -0.18415596017E+03 -0.18455233009E+03 -0.73399866079E+03  0.77892683498E+03  0.00000000000E+00 0. -1.
          2    1    1    2  501    0  0.15070823872E+03  0.16069513686E+03  0.34477643343E+03  0.40915362552E+03  0.00000000000E+00 0. -1.
<scales pt_clust_3="35.54936" pt_clust_4="39.21858" pt_clust_5="221.95301" pt_clust_6="14000.00000"></scales>
<clustering>
<clus scale="   35.549">  2  3  1 -1</clus>
<clus scale="   39.219">  2  4  1 -1</clus>
<clus scale="  221.953">  2  5  1 -1</clus>
<clus scale="   35.549">  2  3  1 -1</clus>
</clustering>
</event>
<event>
 6    0  0.4945982E+002  0.7717071E+02  0.7546771E-02  0.1337278E+00
         21   -1    0    0  504  502  0.00000000000E+00  0.00000000000E+00  0.77841150268E+02  0.77841150268E+02  0.00000000000E+00 0. -1.
          1   -1    0    0  503    0 -0.00000000000E+00 -0.00000000000E+00 -0.24699229868E+04  0.24699229868E+04  0.00000000000E+00 0.  1.
         21    1    1    2  503  505  0.71211681635E+01  0.67037281510E+02 -0.15230814749E+03  0.16656073949E+03  0.00000000000E+00 0. -1.
         21    1    1    2  504  501 -0.29866909472E+02 -0.15467558070E+03 -0.12281060924E+03  0.19974737367E+03  0.00000000000E+00 0. -1.
         21    1    1    2  505  502 -0.34490734684E+02  0.37172629431E+02  0.11195140329E+02  0.51930206285E+02  0.00000000000E+00 0. -1.
          1    1    1    2  501    0  0.57236475992E+02  0.50465669756E+02 -0.21281582202E+04  0.21295258177E+04  0.00000000000E+00 0.  1.
<scales pt_clust_3="72.78390" pt_clust_4="14000.00000" pt_clust_5="50.70912" pt_clust_6="77.17071"></scales>
<clustering>
<clus scale="   50.709">  1  5  2 -1</clus>
<clus scale="   72.784">  1  3  2 -1</clus>
<clus scale="   77.171">  2  6  1 -1</clus>
<clus scale="   50.709">  1  3  2 -1</clus>
</clustering>
</event>
<event>
 6    0  0.4945982E+002  0.7969197E+02  0.7546771E-02  0.1329928E+00
         21   -1    0    0  503  502  0.00000000000E+00  0.00000000000E+00  0.36608976284E+03  0.36608976284E+03  0.00000000000E+00 0.  1.
          2   -1    0    0  504    0 -0.00000000000E+00 -0.00000000000E+00 -0.75200601865E+03  0.75200601865E+03  0.00000000000E+00 0.  1.
         21    1    1    2  503  505  0.18332489293E+02  0.31759696327E+02  0.55984013567E+02  0.66925094318E+02  0.00000000000E+00 0.  1.
         21    1    1    2  504  502 -0.11717064398E+03  0.17717237387E+02  0.11186048609E+03  0.16295897846E+03  0.00000000000E+00 0.  1.
         21    1    1    2  505  501  0.25819930199E+02 -0.80521593009E+02  0.15417592707E+03  0.17584257796E+03  0.00000000000E+00 0. -1.
          2    1    1    2  501    0  0.73018224490E+02  0.31044659295E+02 -0.70793668253E+03  0.71236913075E+03  0.00000000000E+00 0.  1.
<scales pt_clust_3="36.67095" pt_clust_4="14000.00000" pt_clust_5="72.71383" pt_clust_6="79.69197"></scales>
<clustering>
<clus scale="   36.671">  1  3  2 -1</clus>
<clus scale="   72.714">  1  5  2 -1</clus>
<clus scale="   79.692">  2  6  1 -1</clus>
<clus scale="   36.671">  1  3  2 -1</clus>
</clustering>
</event>
<event>
 6    0  0.7415723E+002  0.8389476E+02  0.7546771E-02  0.1318348E+00
         21   -1    0    0  504  502  0.00000000000E+00  0.00000000000E+00  0.83013566915E+03  0.83013566915E+03  0.00000000000E+00 0. -1.
          2   -1    0    0  503    0 -0.00000000000E+00 -0.00000000000E+00 -0.27464242684E+04  0.27464242684E+04  0.00000000000E+00 0. -1.
         21    1    1    2  503  502  0.27508375224E+02 -0.17481795811E+02  0.10095349518E+02  0.34120960920E+02  0.00000000000E+00 0. -1.
         21    1    1    2  504  505 -0.18565490222E+02  0.11875890879E+03  0.71374398401E+03  0.72379474339E+03  0.00000000000E+00 0. -1.
         21    1    1    2  505  501  0.17001181363E+02 -0.61134296803E+02  0.77743894343E+02  0.10035215753E+03  0.00000000000E+00 0. -1.
          2    1    1    2  501    0 -0.25944066365E+02 -0.40142816177E+02 -0.27178718272E+04  0.27182920758E+04  0.00000000000E+00 0. -1.
<scales pt_clust_3="32.59331" pt_clust_4="83.89476" pt_clust_5="14000.00000" pt_clust_6="47.79680"></scales>
<clustering>
<clus scale="   32.593">  1  3  2 -1</clus>
<clus scale="   47.797">  2  6  1 -1</clus>
<clus scale="   83.895">  1  4  2 -1</clus>
<clus scale="   32.593">  1  3  2 -1</clus>
</clustering>
</event>
<event>
 6    0  0.4945982E+002  0.9645665E+02  0.7546771E-02  0.1287929E+00
          1   -1    0    0  503    0 -0.00000000000E+00  0.00000000000E+00  0.13607126341E+04  0.13607126341E+04  0.00000000000E+00 0. -1.
         21   -1    0    0  504  502  0.00000000000E+00 -0.00000000000E+00 -0.32041764421E+03  0.32041764421E+03  0.00000000000E+00 0. -1.
         21    1    1    2  503  502  0.19421548024E+02 -0.32607227605E+02  0.19219358114E+02  0.42541879907E+02  0.00000000000E+00 0. -1.
         21    1    1    2  504  505 -0.41921174755E+02 -0.14417277013E+02 -0.20307308330E+03  0.20785552658E+03  0.00000000000E+00 0. -1.
         21    1    1    2  505  501  0.10811598197E+03  0.25425276122E+01 -0.72693327667E+02  0.13030675305E+03  0.00000000000E+00 0. -1.
          1    1    1    2  501    0 -0.85616355239E+02  0.44481977005E+02  0.12968420427E+04  0.13004261188E+04  0.00000000000E+00 0. -1.
<scales pt_clust_3="37.95297" pt_clust_4="46.31619" pt_clust_5="96.45665" pt_clust_6="14000.00000"></scales>
<clustering>
<clus scale="   37.953">  2  3  1 -1</clus>
<clus scale="   46.316">  2  4  1 -1</clus>
<clus scale="   96.457">  2  5  1 -1</clus>
<clus scale="   37.953">  2  3  1 -1</clus>
</clustering>
</event>
<event>
 6    0  0.4945982E+002  0.1043675E+03  0.7546771E-02  0.1271371E+00
         -2   -1    0    0    0  501 -0.00000000000E+00  0.00000000000E+00  0.17771481765E+04  0.17771481765E+04  0.00000000000E+00 0. -1.
         21   -1    0    0  503  502  0.00000000000E+00 -0.00000000000E+00 -0.17913480342E+03  0.17913480342E+03  0.00000000000E+00 0. -1.
         21    1    1    2  503  501  0.18280261434E+02 -0.87118813463E+02 -0.12823536617E+03  0.15610305812E+03  0.00000000000E+00 0. -1.
         21    1    1    2  504  502  0.37283169337E+02  0.59201746511E+01 -0.14224239136E+02  0.40341196843E+02  0.00000000000E+00 0.  1.
         21    1    1    2  505  504  0.34840239226E+02  0.28040917029E+02  0.54031093333E+02  0.70139107094E+02  0.00000000000E+00 0.  1.
         -2    1    1    2    0  505 -0.90403669997E+02  0.53157721783E+02  0.16864418851E+04  0.16896996179E+04  0.00000000000E+00 0. -1.
<scales pt_clust_3="104.36746" pt_clust_4="37.75027" pt_clust_5="46.47088" pt_clust_6="14000.00000"></scales>
<clustering>
<clus scale="   37.750">  2  4  1 -1</clus>
<clus scale="   46.471">  2  5  1 -1</clus>
<clus scale="  104.367">  2  3  1 -1</clus>
<clus scale="   37.750">  2  3  1 -1</clus>
</clustering>
</event>
<event>
 6    0  0.4945982E+002  0.6109434E+02  0.7546771E-02  0.1393296E+00
         21   -1    0    0  505  502  0.00000000000E+00  0.00000000000E+00  0.64495057481E+03  0.64495057481E+03  0.00000000000E+00 0. -1.
         -2   -1    0    0    0  501 -0.00000000000E+00 -0.00000000000E+00 -0.26561394941E+03  0.26561394941E+03  0.00000000000E+00 0.  1.
         21    1    1    2  503  502 -0.21851493014E+02 -0.85309352797E+02 -0.48996769272E+02  0.10077627112E+03  0.00000000000E+00 0. -1.
         21    1    1    2  504  501 -0.35019936754E+02  0.37032103658E+02  0.16582321094E+02  0.53598004109E+02  0.00000000000E+00 0.  1.
         21    1    1    2  505  504  0.36658817773E+01  0.60446179383E+02  0.57802452710E+03  0.58118803603E+03  0.00000000000E+00 0. -1.
         -2    1    1    2    0  503  0.53205547991E+02 -0.12168930244E+02 -0.16627345352E+03  0.17500221297E+03  0.00000000000E+00 0.  1.
<scales pt_clust_3="61.09434" pt_clust_4="50.96835" pt_clust_5="14000.00000" pt_clust_6="31.96825"></scales>
<clustering>
<clus scale="   50.968">  2  4  1 -1</clus>
<clus scale="   31.968">  2  6  1 -1</clus>
<clus scale="   61.094">  2  3  1 -1</clus>
<clus scale="   61.094">  1  3  2 -1</clus>
</clustering>
</event>
<event>
 6    0  0.4945982E+002  0.7849339E+02  0.7546771E-02  0.1333382E+00
          2   -1    0    0  503    0 -0.00000000000E+00  0.00000000000E+00  0.24226746217E+04  0.24226746217E+04  0.00000000000E+00 0.  1.
         21   -1    0    0  504  502  0.00000000000E+00 -0.00000000000E+00 -0.10685750949E+03  0.10685750949E+03  0.00000000000E+00 0.  1.
         21    1    1    2  503  505 -0.83073657966E+02 -0.41811578759E+02 -0.47221465097E+02  0.10430391906E+03  0.00000000000E+00 0.  1.
         21    1    1    2  504  501  0.68048252226E+02  0.30351665287E+02  0.38913569135E+03  0.39620496526E+03  0.00000000000E+00 0.  1.
         21    1    1    2  505  502  0.45833449923E+02 -0.30237686537E+02  0.47177487022E+00  0.54911250127E+02  0.00000000000E+00 0.  1.
          2    1    1    2  501    0 -0.30808044183E+02  0.41697600010E+02  0.19734311111E+04  0.19741119967E+04  0.00000000000E+00 0.  1.
<scales pt_clust_3="14000.00000" pt_clust_4="78.49339" pt_clust_5="51.91808" pt_clust_6="51.84424"></scales>
<clustering>
<clus scale="   51.844">  1  6  2 -1</clus>
<clus scale="   51.918">  2  5  1 -1</clus>
<clus scale="   78.493">  1  4  2 -1</clus>
<clus scale="   51.918">  2  3  1 -1</clus>
</clustering>
</event>
<event>
 6    0  0.4945982E+002  0.1417088E+03  0.7546771E-02  0.1211048E+00
         21   -1    0    0  501  502  0.00000000000E+00  0.00000000000E+00  0.22536219529E+04  0.22536219529E+04  0.00000000000E+00 0. -1.
          2   -1    0    0  504    0 -0.00000000000E+00 -0.00000000000E+00 -0.21419689572E+04  0.21419689572E+04  0.00000000000E+00 0.  1.
         21    1    1    2  503  502 -0.32258174648E+02  0.24826635644E+01  0.22213353283E+04  0.22215709294E+04  0.00000000000E+00 0. -1.
         21    1    1    2  504  505  0.48021959486E+02 -0.14823310625E+03 -0.91377719897E+03  0.92696706076E+03  0.00000000000E+00 0.  1.
         21    1    1    2  505  503  0.22242289988E+02  0.13797192711E+03 -0.16849170939E+03  0.21890735088E+03  0.00000000000E+00 0. -1.
          2    1    1    2  501    0 -0.38006074826E+02  0.77785155758E+01 -0.10274134242E+04  0.10281455691E+04  0.00000000000E+00 0.  1.
<scales pt_clust_3="32.35357" pt_clust_4="141.70885" pt_clust_5="14000.00000" pt_clust_6="39.15923"></scales>
<clustering>
<clus scale="   32.354">  1  3  2 -1</clus>
<clus scale="   39.159">  2  6  1 -1</clus>
<clus scale="  141.709">  2  4  1 -1</clus>
<clus scale="   32.354">  1  3  2 -1</clus>
</clustering>
</event>
<event>
 6    0  0.4945982E+002  0.1197312E+03  0.7546771E-02  0.1243541E+00
          2   -1    0    0  505    0 -0.00000000000E+00  0.00000000000E+00  0.44640631067E+04  0.44640631067E+04  0.00000000000E+00 0. -1.
         21   -1    0    0  504  502  0.00000000000E+00 -0.00000000000E+00 -0.13901605406E+03  0.13901605406E+03  0.00000000000E+00 0. -1.
         21    1    1    2  503  501  0.47277598291E+02  0.71210298583E+01 -0.18508374286E+02  0.51268316582E+02  0.00000000000E+00 0. -1.
         21    1    1    2  504  503  0.66517395593E+02 -0.13261952502E+02 -0.86024943524E+02  0.10954786264E+03  0.00000000000E+00 0. -1.
         21    1    1    2  505  502 -0.50032811584E+01  0.29676019395E+02  0.34533243104E+02  0.45806591543E+02  0.00000000000E+00 0. -1.
          2    1    1    2  501    0 -0.10879171273E+03 -0.23535096752E+02  0.43950471274E+04  0.43964563900E+04  0.00000000000E+00 0. -1.
<scales pt_clust_3="38.52049" pt_clust_4="38.52049" pt_clust_5="30.09483" pt_clust_6="111.30110"></scales>
<clustering>
<clus scale="   30.095">  2  5  1 -1</clus>
<clus scale="   38.520">  3  4 -1 -1</clus>
<clus scale="  111.301">  1  6  2 -1</clus>
<clus scale="   30.095">  2  3  1 -1</clus>
</clustering>
</event>
<event>
 6    0  0.4945982E+002  0.8123860E+02  0.7546771E-02  0.1325573E+00
         21   -1    0    0  503  502  0.00000000000E+00  0.00000000000E+00  0.77470881974E+03  0.77470881974E+03  0.00000000000E+00 0.  1.
          2   -1    0    0  504    0 -0.00000000000E+00 -0.00000000000E+00 -0.68355760728E+03  0.68355760728E+03  0.00000000000E+00 0.  1.
         21    1    1    2  503  505  0.34685873150E+02  0.35390518228E+02  0.54370815792E+03  0.54596168324E+03  0.00000000000E+00 0.  1.
         21    1    1    2  504  502 -0.69484738521E+02 -0.96530482522E+02  0.15700570641E+03  0.19696967987E+03  0.00000000000E+00 0. -1.
         21    1    1    2  505  501  0.51601395674E+02 -0.18349216460E+02  0.35441476869E+02  0.65234163310E+02  0.00000000000E+00 0. -1.
          2    1    1    2  501    0 -0.16802530303E+02  0.79489180754E+02 -0.64500412873E+03  0.65010090060E+03  0.00000000000E+00 0.  1.
<scales pt_clust_3="49.55400" pt_clust_4="81.23860" pt_clust_5="60.13835" pt_clust_6="14000.00000"></scales>
<clustering>
<clus scale="   49.554">  1  3  2 -1</clus>
<clus scale="   60.138">  1  5  2 -1</clus>
<clus scale="   81.239">  1  4  2 -1</clus>
<clus scale="   49.554">  1  3  2 -1</clus>
</clustering>
</event>
<event>
 6    0  0.4945982E+002  0.8189058E+02  0.7546771E-02  0.1323770E+00
          1   -1    0    0  504    0 -0.00000000000E+00  0.00000000000E+00  0.44406368784E+04  0.44406368784E+04  0.00000000000E+00 0.  1.
         21   -1    0    0  503  502  0.00000000000E+00 -0.00000000000E+00 -0.25621743955E+02  0.25621743955E+02  0.00000000000E+00 0. -1.
         21    1    1    2  503  505 -0.42492162172E+02 -0.23154511312E+02  0.31197332197E+02  0.57575939214E+02  0.00000000000E+00 0. -1.
         21    1    1    2  504  502 -0.52164602860E+02  0.92159021947E+01  0.17499247255E+03  0.18283447184E+03  0.00000000000E+00 0. -1.
         21    1    1    2  505  501  0.12456266637E+03  0.60773477751E+02  0.57034307429E+03  0.58694164603E+03  0.00000000000E+00 0. -1.
          1    1    1    2  501    0 -0.29905901339E+02 -0.46834868634E+02  0.36384822554E+04  0.36389065653E+04  0.00000000000E+00 0.  1.
<scales pt_clust_3="48.39127" pt_clust_4="81.89058" pt_clust_5="14000.00000" pt_clust_6="56.29326"></scales>
<clustering>
<clus scale="   48.391">  2  3  1 -1</clus>
<clus scale="   56.293">  1  6  2 -1</clus>
<clus scale="   81.891">  2  4  1 -1</clus>
<clus scale="   48.391">  2  3  1 -1</clus>
</clustering>
</event>
<event>
 6    0  0.4945982E+002  0.8360646E+02  0.7546771E-02  0.1319118E+00
          2   -1    0    0  505    0 -0.00000000000E+00  0.00000000000E+00  0.19473998613E+04  0.19473998613E+04  0.00000000000E+00 0. -1.
         21   -1    0    0  504  502  0.00000000000E+00 -0.00000000000E+00 -0.19347451299E+03  0.19347451299E+03  0.00000000000E+00 0. -1.
         21    1    1    2  503  502 -0.27624108474E+02  0.79800319248E+02 -0.14363958363E+03  0.16662386475E+03  0.00000000000E+00 0. -1.
         21    1    1    2  504  501  0.47558280447E+02  0.36276439980E+02  0.10737646529E+02  0.60770611234E+02  0.00000000000E+00 0. -1.
         21    1    1    2  505  503 -0.84801544288E+00 -0.79120590749E+02  0.10654891931E+03  0.13271570825E+03  0.00000000000E+00 0. -1.
          2    1    1    2  501    0 -0.19086156530E+02 -0.36956168478E+02  0.17802783661E+04  0.17807641901E+04  0.00000000000E+00 0. -1.
<scales pt_clust_3="14000.00000" pt_clust_4="51.90145" pt_clust_5="83.60646" pt_clust_6="41.59375"></scales>
<clustering>
<clus scale="   41.594">  1  6  2 -1</clus>
<clus scale="   51.901">  1  4  2 -1</clus>
<clus scale="   83.606">  1  5  2 -1</clus>
<clus scale="   83.606">  2  3  1 -1</clus>
</clustering>
</event>
<event>
 6    0  0.4945982E+002  0.1484834E+03  0.7546771E-02  0.1202349E+00
         21   -1    0    0  501  502  0.00000000000E+00  0.00000000000E+00  0.19497253337E+03  0.19497253337E+03  0.00000000000E+00 0.  1.
          3   -1    0    0  504    0 -0.00000000000E+00 -0.00000000000E+00 -0.44552712818E+03  0.44552712818E+03  0.00000000000E+00 0. -1.
         21    1    1    2  503  502 -0.79876927786E+02  0.64037709402E+02  0.85271661818E+02  0.13323816318E+03  0.00000000000E+00 0.  1.
         21    1    1    2  504  505  0.54053911244E+02 -0.10024675510E+03 -0.48324013814E+02  0.12371922866E+03  0.00000000000E+00 0. -1.
         21    1    1    2  505  503 -0.77920761955E+01  0.54820647369E+02  0.30507501681E+02  0.63219676432E+02  0.00000000000E+00 0.  1.
          3    1    1    2  501    0  0.33615092738E+02 -0.18611601669E+02 -0.31800974449E+03  0.32032259328E+03  0.00000000000E+00 0. -1.
<scales pt_clust_3="43.16954" pt_clust_4="136.63683" pt_clust_5="43.16954" pt_clust_6="38.42351"></scales>
<clustering>
<clus scale="   38.424">  2  6  1 -1</clus>
<clus scale="   43.170">  3  5 -1 -1</clus>
<clus scale="  136.637">  2  4  1 -1</clus>
<clus scale="  148.483">  1  3  2 -1</clus>
</clustering>
</event>
<event>
 6    0  0.4945982E+002  0.2624241E+03  0.7546771E-02  0.1105695E+00
          2   -1    0    0  505    0 -0.00000000000E+00  0.00000000000E+00  0.36642761592E+04  0.36642761592E+04  0.00000000000E+00 0.  1.
         21   -1    0    0  503  502  0.00000000000E+00 -0.00000000000E+00 -0.72302288813E+02  0.72302288813E+02  0.00000000000E+00 0. -1.
         21    1    1    2  503  504 -0.68755337044E+02  0.20829945132E+03  0.16903119964E+03  0.27692508778E+03  0.00000000000E+00 0. -1.
         21    1    1    2  504  501  0.18329237246E+02  0.38184269792E+02  0.40004704981E+02  0.58261272027E+02  0.00000000000E+00 0.  1.
         21    1    1    2  505  502 -0.57481638269E+02 -0.68430551927E+01  0.21779885184E+03  0.22536039138E+03  0.00000000000E+00 0. -1.
          2    1    1    2  501    0  0.10790773807E+03 -0.23964066591E+03  0.31651391139E+04  0.31760316968E+04  0.00000000000E+00 0.  1.
<scales pt_clust_3="32.16169" pt_clust_4="32.16169" pt_clust_5="57.88753" pt_clust_6="252.01096"></scales>
<clustering>
<clus scale="   32.162">  3  4 -1 -1</clus>
<clus scale="   57.888">  1  5  2 -1</clus>
<clus scale="  252.011">  1  6  2 -1</clus>
<clus scale="  262.424">  2  3  1 -1</clus>
</clustering>
</event>
<event>
 6    0  0.4945982E+002  0.1552100E+03  0.7546771E-02  0.1194213E+00
         -3   -1    0    0    0  501 -0.00000000000E+00  0.00000000000E+00  0.19293630568E+03  0.19293630568E+03  0.00000000000E+00 0. -1.
         21   -1    0    0  505  502  0.00000000000E+00 -0.00000000000E+00 -0.92633310470E+03  0.92633310470E+03  0.00000000000E+00 0. -1.
         21    1    1    2  503  501 -0.10175074221E+03 -0.33916857840E+02 -0.48825717561E+03  0.49989862605E+03  0.00000000000E+00 0. -1.
         21    1    1    2  504  502  0.15248276407E+02 -0.49748718291E+02 -0.30769239693E+03  0.31206098127E+03  0.00000000000E+00 0.  1.
         21    1    1    2  505  503 -0.15846121287E+02 -0.38998406564E+02 -0.81801099921E+02  0.91996713108E+02  0.00000000000E+00 0.  1.
         -3    1    1    2    0  504  0.10234858709E+03  0.12266398270E+03  0.14435387344E+03  0.21531308996E+03  0.00000000000E+00 0. -1.
<scales pt_clust_3="14000.00000" pt_clust_4="64.82986" pt_clust_5="42.09484" pt_clust_6="155.20998"></scales>
<clustering>
<clus scale="   42.095">  2  5  1 -1</clus>
<clus scale="   64.830">  2  4  1 -1</clus>
<clus scale="  155.210">  1  6  2 -1</clus>
<clus scale="   42.095">  2  3  1 -1</clus>
</clustering>
</event>
<event>
 6    0  0.4945982E+002  0.1559280E+03  0.7546771E-02  0.1193372E+00
         21   -1    0    0  505  502  0.00000000000E+00  0.00000000000E+00  0.17071615516E+03  0.17071615516E+03  0.00000000000E+00 0. -1.
          2   -1    0    0  504    0 -0.00000000000E+00 -0.00000000000E+00 -0.10803943476E+04  0.10803943476E+04  0.00000000000E+00 0. -1.
         21    1    1    2  503  501 -0.53530602329E+02 -0.61187100902E+01 -0.23304313602E+03  0.23919044138E+03  0.00000000000E+00 0. -1.
         21    1    1    2  504  502  0.13628161246E+03  0.47604968410E+02  0.12566664164E+03  0.19139230845E+03  0.00000000000E+00 0. -1.
         21    1    1    2  505  503 -0.56852381600E+02 -0.61170679668E+02 -0.19219216430E+03  0.20955160072E+03  0.00000000000E+00 0. -1.
          2    1    1    2  501    0 -0.25898628534E+02  0.19684421348E+02 -0.61010953373E+03  0.61097615220E+03  0.00000000000E+00 0. -1.
<scales pt_clust_3="54.49597" pt_clust_4="143.11339" pt_clust_5="54.49597" pt_clust_6="32.53022"></scales>
<clustering>
<clus scale="   32.530">  2  6  1 -1</clus>
<clus scale="   54.496">  3  5 -1 -1</clus>
<clus scale="  143.113">  1  4  2 -1</clus>
<clus scale="  143.113">  1  3  2 -1</clus>
</clustering>
</event>
<event>
 6    0  0.4945982E+002  0.8181410E+02  0.7546771E-02  0.1323981E+00
         21   -1    0    0  503  502  0.00000000000E+00  0.00000000000E+00  0.79986372878E+02  0.79986372878E+02  0.00000000000E+00 0. -1.
          2   -1    0    0  504    0 -0.00000000000E+00 -0.00000000000E+00 -0.28013345429E+04  0.28013345429E+04  0.00000000000E+00 0.  1.
         21    1    1    2  503  501 -0.44962550168E+02 -0.39827790408E+02 -0.53209216771E+02  0.80244031278E+02  0.00000000000E+00 0. -1.
         21    1    1    2  504  505  0.44302175040E+02  0.32837823450E+02 -0.86676331080E+01  0.55822336263E+02  0.00000000000E+00 0. -1.
         21    1    1    2  505  502  0.18407007817E+02  0.71479847971E+02  0.10404043842E+02  0.74541469874E+02  0.00000000000E+00 0. -1.
          2    1    1    2  501    0 -0.17746632689E+02 -0.64489881013E+02 -0.26698753639E+04  0.26707130783E+04  0.00000000000E+00 0.  1.
<scales pt_clust_3="60.06566" pt_clust_4="40.33011" pt_clust_5="40.33011" pt_clust_6="67.20460"></scales>
<clustering>
<clus scale="   40.330">  4  5 -1 -1</clus>
<clus scale="   60.066">  1  3  2 -1</clus>
<clus scale="   67.205">  2  6  1 -1</clus>
<clus scale="   60.066">  1  3  2 -1</clus>
</clustering>
</event>
<event>
 6    0  0.4945982E+002  0.2538756E+03  0.7546771E-02  0.1110880E+00
          1   -1    0    0  505    0 -0.00000000000E+00  0.00000000000E+00  0.10880235248E+04  0.10880235248E+04  0.00000000000E+00 0. -1.
         21   -1    0    0  504  502  0.00000000000E+00 -0.00000000000E+00 -0.33650304379E+03  0.33650304379E+03  0.00000000000E+00 0. -1.
         21    1    1    2  503  501 -0.35128131724E+02 -0.89219560149E+02 -0.37835152487E+02  0.10308062046E+03  0.00000000000E+00 0. -1.
         21    1    1    2  504  503 -0.13326502948E+03 -0.10835815160E+03 -0.94202208637E+02  0.19589566920E+03  0.00000000000E+00 0. -1.
         21    1    1    2  505  502  0.29300579747E+03 -0.21294923419E+02  0.11280685262E+03  0.31469232134E+03  0.00000000000E+00 0. -1.
          1    1    1    2  501    0 -0.12461263626E+03  0.21887263517E+03  0.77075098951E+03  0.81085795758E+03  0.00000000000E+00 0. -1.
<scales pt_clust_3="50.45318" pt_clust_4="50.45318" pt_clust_5="244.73064" pt_clust_6="251.86016"></scales>
<clustering>
<clus scale="   50.453">  3  4 -1 -1</clus>
<clus scale="  251.860">  1  6  2 -1</clus>
<clus scale="  244.731">  1  5  2 -1</clus>
<clus scale="  253.876">  2  3  1 -1</clus>
</clustering>
</event>
<event>
 6    0  0.4945982E+002  0.1672681E+03  0.7546771E-02  0.1180727E+00
         21   -1    0    0  504  502  0.00000000000E+00  0.00000000000E+00  0.21996128689E+02  0.21996128689E+02  0.00000000000E+00 0. -1.
          2   -1    0    0  505    0 -0.00000000000E+00 -0.00000000000E+00 -0.20508960160E+04  0.20508960160E+04  0.00000000000E+00 0. -1.
         21    1    1    2  503  502 -0.50042275600E+02 -0.52203880947E+02 -0.23915735406E+03  0.24985138489E+03  0.00000000000E+00 0. -1.
         21    1    1    2  504  501  0.28196535701E+02 -0.32854169256E+02 -0.60463241960E+02  0.74365614980E+02  0.00000000000E+00 0. -1.
         21    1    1    2  505  503 -0.87769050677E+02 -0.32220738738E+02 -0.47037352157E+03  0.47957567918E+03  0.00000000000E+00 0.  1.
          2    1    1    2  501    0  0.10961479058E+03  0.11727878894E+03 -0.12589057698E+04  0.12690994657E+04  0.00000000000E+00 0. -1.
<scales pt_clust_3="45.92376" pt_clust_4="43.29482" pt_clust_5="45.92376" pt_clust_6="159.58797"></scales>
<clustering>
<clus scale="   43.295">  1  4  2 -1</clus>
<clus scale="   45.924">  3  5 -1 -1</clus>
<clus scale="  159.588">  2  6  1 -1</clus>
<clus scale="   43.295">  1  3  2 -1</clus>
</clustering>
</event>
<event>
 6    0  0.4945982E+002  0.1036218E+03  0.7546771E-02  0.1272859E+00
         -2   -1    0    0    0  501 -0.00000000000E+00  0.00000000000E+00  0.11722934425E+03  0.11722934425E+03  0.00000000000E+00 0.  1.
         21   -1    0    0  503  502  0.00000000000E+00 -0.00000000000E+00 -0.10836342337E+04  0.10836342337E+04  0.00000000000E+00 0. -1.
         21    1    1    2  503  505 -0.34156033172E+02 -0.11762401619E+02 -0.76904714594E+03  0.76989512362E+03  0.00000000000E+00 0. -1.
         21    1    1    2  504  502  0.30175720669E+02 -0.49034391840E+02 -0.19051033372E+03  0.19902043351E+03  0.00000000000E+00 0. -1.
         21    1    1    2  505  501  0.10071597943E+02 -0.61520695158E+02 -0.70348055585E+02  0.93995116588E+02  0.00000000000E+00 0. -1.
         -2    1    1    2    0  504 -0.60912854398E+01  0.12231748862E+03  0.63500645763E+02  0.13795290425E+03  0.00000000000E+00 0.  1.
<scales pt_clust_3="36.12463" pt_clust_4="57.04109" pt_clust_5="103.62185" pt_clust_6="14000.00000"></scales>
<clustering>
<clus scale="   36.125">  2  3  1 -1</clus>
<clus scale="   57.041">  2  4  1 -1</clus>
<clus scale="  103.622">  2  5  1 -1</clus>
<clus scale="   36.125">  2  3  1 -1</clus>
</clustering>
</event>
<event>
 6    0  0.4945982E+002  0.1174877E+03  0.7546771E-02  0.1247300E+00
          4   -1    0    0  502    0 -0.00000000000E+00  0.00000000000E+00  0.91815670162E+03  0.91815670162E+03  0.00000000000E+00 0. -1.
         21   -1    0    0  503  502  0.00000000000E+00 -0.00000000000E+00 -0.55737285029E+03  0.55737285029E+03  0.00000000000E+00 0.  1.
         21    1    1    2  503  504  0.46433838543E+02 -0.40320700190E+02 -0.48177993001E+03  0.48568895519E+03  0.00000000000E+00 0.  1.
         21    1    1    2  504  505 -0.51299046702E+02  0.91235082712E+02 -0.40470950557E+01  0.10474641516E+03  0.00000000000E+00 0.  1.
         21    1    1    2  505  501 -0.17128613530E+02  0.80790192878E+02  0.11608194714E+03  0.14246214626E+03  0.00000000000E+00 0.  1.
          4    1    1    2  501    0  0.21993821688E+02 -0.13170457540E+03  0.73052892926E+03  0.74263203530E+03  0.00000000000E+00 0. -1.
<scales pt_clust_3="61.49683" pt_clust_4="63.75785" pt_clust_5="14000.00000" pt_clust_6="117.48774"></scales>
<clustering>
<clus scale="   61.497">  2  3  1 -1</clus>
<clus scale="   63.758">  2  4  1 -1</clus>
<clus scale="  117.488">  1  6  2 -1</clus>
<clus scale="   61.497">  2  3  1 -1</clus>
</clustering>
</event>
<event>
 6    0  0.4945982E+002  0.6752810E+02  0.7546771E-02  0.1368706E+00
         21   -1    0    0  503  502  0.00000000000E+00  0.00000000000E+00  0.18404129301E+03  0.18404129301E+03  0.00000000000E+00 0. -1.
          2   -1    0    0  505    0 -0.00000000000E+00 -0.00000000000E+00 -0.14172848814E+04  0.14172848814E+04  0.00000000000E+00 0. -1.
         21    1    1    2  503  504 -0.65927857621E+02  0.82350125016E+02  0.64165221036E+01  0.10568442296E+03  0.00000000000E+00 0.  1.
         21    1    1    2  504  501 -0.74939982219E+01 -0.65097639585E+02 -0.36119319426E+02  0.74822910426E+02  0.00000000000E+00 0. -1.
         21    1    1    2  505  502  0.37006229829E+02 -0.35162943957E+02  0.10230968247E+03  0.11433794121E+03  0.00000000000E+00 0. -1.
          2    1    1    2  501    0  0.36415626014E+02  0.17910458526E+02 -0.13058504735E+04  0.13064808998E+04  0.00000000000E+00 0. -1.
<scales pt_clust_3="67.52810" pt_clust_4="14000.00000" pt_clust_5="51.84997" pt_clust_6="40.58180"></scales>
<clustering>
<clus scale="   40.582">  2  6  1 -1</clus>
<clus scale="   51.850">  1  5  2 -1</clus>
<clus scale="   67.528">  1  3  2 -1</clus>
<clus scale="   51.850">  1  3  2 -1</clus>
</clustering>
</event>
<event>
 6    0  0.4945982E+002  0.9604083E+02  0.7546771E-02  0.1288849E+00
         21   -1    0    0  503  502  0.00000000000E+00  0.00000000000E+00  0.69306144696E+02  0.69306144696E+02  0.00000000000E+00 0.  1.
          2   -1    0    0  504    0 -0.00000000000E+00 -0.00000000000E+00 -0.19219474564E+04  0.19219474564E+04  0.00000000000E+00 0. -1.
         21    1    1    2  503  501 -0.58841523337E+02  0.78857406955E+02  0.27098028770E+02  0.10205448870E+03  0.00000000000E+00 0.  1.
         21    1    1    2  504  505  0.22983772062E+02 -0.29732379662E+02 -0.19756552533E+03  0.20110794359E+03  0.00000000000E+00 0.  1.
         21    1    1    2  505  502  0.58523754853E+02  0.23942770789E+02 -0.88443167301E+03  0.88668916221E+03  0.00000000000E+00 0. -1.
          2    1    1    2  501    0 -0.22666003578E+02 -0.73067798082E+02 -0.79774214210E+03  0.80140200656E+03  0.00000000000E+00 0. -1.
<scales pt_clust_3="14000.00000" pt_clust_4="37.58016" pt_clust_5="70.87010" pt_clust_6="96.04083"></scales>
<clustering>
<clus scale="   37.580">  2  4  1 -1</clus>
<clus scale="   70.870">  2  5  1 -1</clus>
<clus scale="   96.041">  2  6  1 -1</clus>
<clus scale="   96.041">  1  3  2 -1</clus>
</clustering>
</event>
<event>
 6    0  0.4945982E+002  0.8379463E+02  0.7546771E-02  0.1318615E+00
         21   -1    0    0  503  502  0.00000000000E+00  0.00000000000E+00  0.31434435972E+03  0.31434435972E+03  0.00000000000E+00 0. -1.
         -3   -1    0    0    0  501 -0.00000000000E+00 -0.00000000000E+00 -0.72203917528E+03  0.72203917528E+03  0.00000000000E+00 0. -1.
         21    1    1    2  503  504  0.31322145202E+02  0.29066333249E+01  0.33109391005E+02  0.45670089447E+02  0.00000000000E+00 0. -1.
         21    1    1    2  504  501  0.61766824237E+02 -0.44892195672E+02  0.23192327352E+03  0.24416972501E+03  0.00000000000E+00 0. -1.
         21    1    1    2  505  502 -0.15796998768E+02  0.75628510989E+02 -0.93414816155E+01  0.77823390592E+02  0.00000000000E+00 0. -1.
         -3    1    1    2    0  505 -0.77291970671E+02 -0.33642948642E+02 -0.66338599847E+03  0.66872032996E+03  0.00000000000E+00 0. -1.
<scales pt_clust_3="31.45672" pt_clust_4="14000.00000" pt_clust_5="76.91604" pt_clust_6="83.79463"></scales>
<clustering>
<clus scale="   31.457">  1  3  2 -1</clus>
<clus scale="   76.916">  1  5  2 -1</clus>
<clus scale="   83.795">  2  6  1 -1</clus>
<clus scale="   31.457">  1  3  2 -1</clus>
</clustering>
</event>
<event>
 6    0  0.4945982E+002  0.1022031E+03  0.7546771E-02  0.1275730E+00
          2   -1    0    0  505    0 -0.00000000000E+00  0.00000000000E+00  0.15908636543E+03  0.15908636543E+03  0.00000000000E+00 0. -1.
         21   -1    0    0  504  502  0.00000000000E+00 -0.00000000000E+00 -0.69353900053E+03  0.69353900053E+03  0.00000000000E+00 0. -1.
         21    1    1    2  503  502  0.25956601466E+02  0.49420455011E+02 -0.12490825318E+03  0.13681446651E+03  0.00000000000E+00 0. -1.
         21    1    1    2  504  501  0.11939070525E+03 -0.75053342490E+02 -0.42990339534E+03  0.45244234333E+03  0.00000000000E+00 0. -1.
         21    1    1    2  505  503 -0.61737487301E+02 -0.30131728153E+02 -0.90574668835E+02  0.11368029299E+03  0.00000000000E+00 0. -1.
          2    1    1    2  501    0 -0.83609819411E+02  0.55764615631E+02  0.11093368225E+03  0.14968826312E+03  0.00000000000E+00 0. -1.
<scales pt_clust_3="55.82228" pt_clust_4="102.20310" pt_clust_5="60.82614" pt_clust_6="14000.00000"></scales>
<clustering>
<clus scale="   55.822">  2  3  1 -1</clus>
<clus scale="   60.826">  2  5  1 -1</clus>
<clus scale="  102.203">  2  4  1 -1</clus>
<clus scale="   55.822">  2  3  1 -1</clus>
</clustering>
</event>
<event>
 6    0  0.4945982E+002  0.3410007E+03  0.7546771E-02  0.1066371E+00
          2   -1    0    0  505    0 -0.00000000000E+00  0.00000000000E+00  0.24271350337E+04  0.24271350337E+04  0.00000000000E+00 0. -1.
         21   -1    0    0  504  502  0.00000000000E+00 -0.00000000000E+00 -0.19934085652E+03  0.19934085652E+03  0.00000000000E+00 0. -1.
         21    1    1    2  503  502  0.12202457813E+03  0.45604488766E+02  0.28013465572E+02  0.13324609307E+03  0.00000000000E+00 0. -1.
         21    1    1    2  504  501 -0.30129513954E+03 -0.16406907964E+03  0.69384997425E+03  0.77403178925E+03  0.00000000000E+00 0. -1.
         21    1    1    2  505  503  0.19450693310E+03  0.74004686228E+02 -0.43804176601E+01  0.20815577981E+03  0.00000000000E+00 0. -1.
          2    1    1    2  501    0 -0.15236371692E+02  0.44459904643E+02  0.15103111550E+04  0.15110422281E+04  0.00000000000E+00 0. -1.
<scales pt_clust_3="30.62335" pt_clust_4="338.79689" pt_clust_5="30.62335" pt_clust_6="46.99819"></scales>
<clustering>
<clus scale="   30.623">  3  5 -1 -1</clus>
<clus scale="   46.998">  1  6  2 -1</clus>
<clus scale="  338.797">  1  4  2 -1</clus>
<clus scale="  341.001">  2  3  1 -1</clus>
</clustering>
</event>
<event>
 6    0  0.4945982E+002  0.1221329E+03  0.7546771E-02  0.1239619E+00
          2   -1    0    0  504    0 -0.00000000000E+00  0.00000000000E+00  0.47061031575E+03  0.47061031575E+03  0.00000000000E+00 0.  1.
         21   -1    0    0  505  502  0.00000000000E+00 -0.00000000000E+00 -0.10133228637E+03  0.10133228637E+03  0.00000000000E+00 0.  1.
         21    1    1    2  503  501  0.85432120509E+02 -0.23653186682E+02  0.12363819624E+02  0.89504103205E+02  0.00000000000E+00 0.  1.
         21    1    1    2  504  502  0.10947150214E+02  0.35077809508E+02  0.37220092889E+01  0.36934349470E+02  0.00000000000E+00 0. -1.
         21    1    1    2  505  503  0.22197484366E+02 -0.72741629676E+02  0.93104591338E+01  0.76620869542E+02  0.00000000000E+00 0.  1.
          2    1    1    2  501    0 -0.11857675509E+03  0.61317006851E+02  0.34388174132E+03  0.36888327990E+03  0.00000000000E+00 0.  1.
<scales pt_clust_3="122.13295" pt_clust_4="36.74633" pt_clust_5="64.52175" pt_clust_6="14000.00000"></scales>
<clustering>
<clus scale="   36.746">  2  4  1 -1</clus>
<clus scale="   64.522">  2  5  1 -1</clus>
<clus scale="  122.133">  2  3  1 -1</clus>
<clus scale="   36.746">  2  3  1 -1</clus>
</clustering>
</event>
<event>
 6    0  0.4945982E+002  0.9788417E+02  0.7546771E-02  0.1284809E+00
         21   -1    0    0  503  502  0.00000000000E+00  0.00000000000E+00  0.29623906227E+03  0.29623906227E+03  0.00000000000E+00 0. -1.
          2   -1    0    0  505    0 -0.00000000000E+00 -0.00000000000E+00 -0.58781648759E+03  0.58781648759E+03  0.00000000000E+00 0. -1.
         21    1    1    2  503  504  0.43136100548E+02  0.38100714340E+01  0.22597119315E+03  0.23008307185E+03  0.00000000000E+00 0. -1.
         21    1    1    2  504  501 -0.13090717871E+03 -0.21404083822E+02 -0.81266013556E+02  0.15556024300E+03  0.00000000000E+00 0. -1.
         21    1    1    2  505  502  0.57517951093E+02  0.49159030382E+02 -0.17900566545E+02  0.77751882605E+02  0.00000000000E+00 0. -1.
          2    1    1    2  501    0  0.30253127067E+02 -0.31565017994E+02 -0.41838203837E+03  0.42066035241E+03  0.00000000000E+00 0. -1.
<scales pt_clust_3="43.30404" pt_clust_4="97.88417" pt_clust_5="14000.00000" pt_clust_6="44.17800"></scales>
<clustering>
<clus scale="   43.304">  1  3  2 -1</clus>
<clus scale="   44.178">  2  6  1 -1</clus>
<clus scale="   97.884">  2  4  1 -1</clus>
<clus scale="   43.304">  1  3  2 -1</clus>
</clustering>
</event>
<event>
 6    0  0.4945982E+002  0.1229940E+03  0.7546771E-02  0.1238238E+00
          2   -1    0    0  503    0 -0.00000000000E+00  0.00000000000E+00  0.27280130879E+04  0.27280130879E+04  0.00000000000E+00 0.  1.
         21   -1    0    0  501  502  0.00000000000E+00 -0.00000000000E+00 -0.91407899983E+02  0.91407899983E+02  0.00000000000E+00 0.  1.
         21    1    1    2  503  504  0.49355313993E+02 -0.35375252629E+02  0.17912503433E+03  0.18913786887E+03  0.00000000000E+00 0.  1.
         21    1    1    2  504  505  0.59197208419E+02 -0.72193889503E+02  0.17249965237E+03  0.19614381773E+03  0.00000000000E+00 0. -1.
         21    1    1    2  505  502 -0.10890101375E+03  0.34992788964E+02 -0.29814558470E+02  0.11820674250E+03  0.00000000000E+00 0.  1.
          2    1    1    2  501    0  0.34849133764E+00  0.72576353169E+02  0.23147950597E+04  0.23159325588E+04  0.00000000000E+00 0.  1.
<scales pt_clust_3="30.68128" pt_clust_4="30.68128" pt_clust_5="116.96251" pt_clust_6="72.57719"></scales>
<clustering>
<clus scale="   30.681">  3  4 -1 -1</clus>
<clus scale="   72.577">  1  6  2 -1</clus>
<clus scale="  116.963">  2  5  1 -1</clus>
<clus scale="  116.963">  2  3  1 -1</clus>
</clustering>
</event>
<event>
 6    0  0.4945982E+002  0.1261873E+03  0.7546771E-02  0.1233225E+00
         -1   -1    0    0    0  501 -0.00000000000E+00  0.00000000000E+00  0.14171135682E+03  0.14171135682E+03  0.00000000000E+00 0.  1.
         21   -1    0    0  503  502  0.00000000000E+00 -0.00000000000E+00 -0.19084107860E+04  0.19084107860E+04  0.00000000000E+00 0.  1.
         21    1    1    2  503  505  0.56863826919E+02 -0.10601644189E+03 -0.26774053817E+03  0.29352679016E+03  0.00000000000E+00 0. -1.
         21    1    1    2  504  502 -0.45768664109E+02  0.97350216493E+02 -0.14562564114E+04  0.14602241510E+04  0.00000000000E+00 0.  1.
         21    1    1    2  505  501  0.10772990824E+02 -0.89225823865E+02 -0.13359386631E+03  0.16101126076E+03  0.00000000000E+00 0. -1.
         -1    1    1    2    0  504 -0.21868153635E+02  0.97892049260E+02  0.90891386668E+02  0.13535994098E+03  0.00000000000E+00 0.  1.
<scales pt_clust_3="46.07148" pt_clust_4="114.37644" pt_clust_5="46.07148" pt_clust_6="100.30488"></scales>
<clustering>
<clus scale="   46.071">  3  5 -1 -1</clus>
<clus scale="  100.305">  1  6  2 -1</clus>
<clus scale="  114.376">  2  4  1 -1</clus>
<clus scale="  114.376">  2  3  1 -1</clus>
</clustering>
</event>
<event>
 6    0  0.4945982E+002  0.1093142E+03  0.7546771E-02  0.1261845E+00
         21   -1    0    0  503  502  0.00000000000E+00  0.00000000000E+00  0.32768978426E+03  0.32768978426E+03  0.00000000000E+00 0.  1.
          2   -1    0    0  505    0 -0.00000000000E+00 -0.00000000000E+00 -0.20048431897E+04  0.20048431897E+04  0.00000000000E+00 0. -1.
         21    1    1    2  503  504 -0.96576258940E+02 -0.55022296447E+02  0.31027603464E+03  0.32958404780E+03  0.00000000000E+00 0.  1.
         21    1    1    2  504  501  0.66601570462E+02  0.10137677421E+02 -0.23889192809E+03  0.24820937734E+03  0.00000000000E+00 0.  1.
         21    1    1    2  505  502  0.20032355207E+02 -0.48230817576E+02 -0.51007139923E+03  0.51273808064E+03  0.00000000000E+00 0. -1.
          2    1    1    2  501    0  0.99423332717E+01  0.93115436602E+02 -0.12384661128E+04  0.12420014682E+04  0.00000000000E+00 0. -1.
<scales pt_clust_3="14000.00000" pt_clust_4="109.31420" pt_clust_5="52.22554" pt_clust_6="59.34620"></scales>
<clustering>
<clus scale="   52.226">  2  5  1 -1</clus>
<clus scale="   59.346">  2  6  1 -1</clus>
<clus scale="  109.314">  2  4  1 -1</clus>
<clus scale="  109.314">  1  3  2 -1</clus>
</clustering>
</event>
<event>
 6    0  0.4945982E+002  0.8453819E+02  0.7546771E-02  0.1316645E+00
         21   -1    0    0  504  502  0.00000000000E+00  0.00000000000E+00  0.65315891360E+02  0.65315891360E+02  0.00000000000E+00 0. -1.
          2   -1    0    0  503    0 -0.00000000000E+00 -0.00000000000E+00 -0.17764204065E+04  0.17764204065E+04  0.00000000000E+00 0. -1.
         21    1    1    2  503  505 -0.27961438567E+02  0.53371969504E+02 -0.16772609606E+03  0.17822023588E+03  0.00000000000E+00 0. -1.
         21    1    1    2  504  501  0.46459037992E+02 -0.64264284715E+02 -0.58888102654E+02  0.98773220739E+02  0.00000000000E+00 0. -1.
         21    1    1    2  505  502  0.45974764207E+02  0.40943602079E+02  0.15163184808E+02  0.63403309603E+02  0.00000000000E+00 0. -1.
          2    1    1    2  501    0 -0.64472363631E+02 -0.30051286867E+02 -0.14996535012E+04  0.15013395316E+04  0.00000000000E+00 0. -1.
<scales pt_clust_3="60.25288" pt_clust_4="14000.00000" pt_clust_5="61.78954" pt_clust_6="84.53819"></scales>
<clustering>
<clus scale="   60.253">  2  3  1 -1</clus>
<clus scale="   61.790">  1  5  2 -1</clus>
<clus scale="   84.538">  2  6  1 -1</clus>
<clus scale="   61.790">  1  3  2 -1</clus>
</clustering>
</event>
<event>
 6    0  0.4945982E+002  0.1286098E+03  0.7546771E-02  0.1229533E+00
          2   -1    0    0  505    0 -0.00000000000E+00  0.00000000000E+00  0.32100338975E+04  0.32100338975E+04  0.00000000000E+00 0.  1.
         21   -1    0    0  503  502  0.00000000000E+00 -0.00000000000E+00 -0.87286864599E+03  0.87286864599E+03  0.00000000000E+00 0. -1.
         21    1    1    2  503  504 -0.77912535764E+02  0.97219483846E+02 -0.37373395438E+03  0.39395311895E+03  0.00000000000E+00 0. -1.
         21    1    1    2  504  501 -0.79618320618E+02 -0.13767582999E+03 -0.43676474351E+03  0.46481948358E+03  0.00000000000E+00 0. -1.
         21    1    1    2  505  502  0.40187952636E+02 -0.12181703554E+02 -0.24992368344E+02  0.48868025477E+02  0.00000000000E+00 0. -1.
          2    1    1    2  501    0  0.11734290375E+03  0.52638049698E+02  0.31726563178E+04  0.31752619155E+04  0.00000000000E+00 0.  1.
<scales pt_clust_3="109.22776" pt_clust_4="128.60979" pt_clust_5="41.99364" pt_clust_6="14000.00000"></scales>
<clustering>
<clus scale="   41.994">  2  5  1 -1</clus>
<clus scale="  109.228">  2  3  1 -1</clus>
<clus scale="  128.610">  2  4  1 -1</clus>
<clus scale="   41.994">  2  3  1 -1</clus>
</clustering>
</event>
<event>
 6    0  0.5769740E+002  0.1447577E+03  0.7546771E-02  0.1207067E+00
          2   -1    0    0  503    0 -0.00000000000E+00  0.00000000000E+00  0.16849146985E+04  0.16849146985E+04  0.00000000000E+00 0.  1.
         21   -1    0    0  501  502  0.00000000000E+00 -0.00000000000E+00 -0.19297670866E+04  0.19297670866E+04  0.00000000000E+00 0.  1.
         21    1    1    2  503  505  0.99298512218E+02 -0.23835656077E+03 -0.17715832231E+04  0.17903019748E+04  0.00000000000E+00 0.  1.
         21    1    1    2  504  502 -0.90137274792E+02 -0.20321954439E+02 -0.27330109602E+02  0.96356862911E+02  0.00000000000E+00 0.  1.
         21    1    1    2  505  504  0.73788248514E+01  0.11505957359E+03 -0.44021964277E+02  0.12341428552E+03  0.00000000000E+00 0.  1.
          2    1    1    2  501    0 -0.16540062277E+02  0.14361894162E+03  0.15980829089E+04  0.16046086619E+04  0.00000000000E+00 0.  1.
<scales pt_clust_3="144.75772" pt_clust_4="92.39973" pt_clust_5="114.19759" pt_clust_6="14000.00000"></scales>
<clustering>
<clus scale="   92.400">  2  4  1 -1</clus>
<clus scale="  114.198">  2  5  1 -1</clus>
<clus scale="  144.758">  2  3  1 -1</clus>
<clus scale="   92.400">  2  3  1 -1</clus>
</clustering>
</event>
<event>
 6    0  0.4945982E+002  0.9100101E+02  0.7546771E-02  0.1300446E+00
          1   -1    0    0  503    0 -0.00000000000E+00  0.00000000000E+00  0.10237995434E+04  0.10237995434E+04  0.00000000000E+00 0. -1.
         21   -1    0    0  504  502  0.00000000000E+00 -0.00000000000E+00 -0.11213892111E+03  0.11213892111E+03  0.00000000000E+00 0. -1.
         21    1    1    2  503  502 -0.29866082391E+01 -0.34339183741E+02  0.33866977513E+02  0.48322577897E+02  0.00000000000E+00 0. -1.
         21    1    1    2  504  505  0.34481802489E+02  0.19780016940E+02 -0.90856786223E+01  0.40777362949E+02  0.00000000000E+00 0.  1.
         21    1    1    2  505  501  0.14515672720E+02  0.93172790048E+02 -0.49184569132E+02  0.10635316357E+03  0.00000000000E+00 0. -1.
          1    1    1    2  501    0 -0.46010866970E+02 -0.78613623247E+02  0.93606389255E+03  0.94048536010E+03  0.00000000000E+00 0. -1.
<scales pt_clust_3="34.46882" pt_clust_4="35.71505" pt_clust_5="14000.00000" pt_clust_6="91.00101"></scales>
<clustering>
<clus scale="   34.469">  2  3  1 -1</clus>
<clus scale="   35.715">  2  4  1 -1</clus>
<clus scale="   91.001">  1  6  2 -1</clus>
<clus scale="   34.469">  2  3  1 -1</clus>
</clustering>
</event>
<event>
 6    0  0.4945982E+002  0.2457785E+03  0.7546771E-02  0.1116002E+00
          1   -1    0    0  504    0 -0.00000000000E+00  0.00000000000E+00  0.92685242120E+03  0.92685242120E+03  0.00000000000E+00 0. -1.
         21   -1    0    0  503  502  0.00000000000E+00 -0.00000000000E+00 -0.22238121182E+03  0.22238121182E+03  0.00000000000E+00 0.  1.
         21    1    1    2  503  501  0.63970820086E+02 -0.33997666891E+03  0.12348873107E+03  0.36732256660E+03  0.00000000000E+00 0.  1.
         21    1    1    2  504  505  0.25772086388E+02  0.41386095048E+02  0.82121605312E+02  0.95503755734E+02  0.00000000000E+00 0. -1.
         21    1    1    2  505  502  0.43341828097E+02  0.19630563202E+03  0.49954820609E+02  0.20714704760E+03  0.00000000000E+00 0. -1.
          1    1    1    2  501    0 -0.13308473457E+03  0.10228494184E+03  0.44890605240E+03  0.47926026309E+03  0.00000000000E+00 0. -1.
<scales pt_clust_3="14000.00000" pt_clust_4="48.75458" pt_clust_5="245.77855" pt_clust_6="172.60473"></scales>
<clustering>
<clus scale="   48.755">  1  4  2 -1</clus>
<clus scale="  172.605">  1  6  2 -1</clus>
<clus scale="  245.779">  2  5  1 -1</clus>
<clus scale="  245.779">  2  3  1 -1</clus>
</clustering>
</event>
<event>
 6    0  0.4945982E+002  0.1433176E+03  0.7546771E-02  0.1208933E+00
         21   -1    0    0  503  502  0.00000000000E+00  0.00000000000E+00  0.18288724910E+03  0.18288724910E+03  0.00000000000E+00 0. -1.
          1   -1    0    0  504    0 -0.00000000000E+00 -0.00000000000E+00 -0.30390484672E+04  0.30390484672E+04  0.00000000000E+00 0. -1.
         21    1    1    2  503  501  0.25173127049E+02  0.16623445303E+02  0.23405337781E+02  0.38181606773E+02  0.00000000000E+00 0. -1.
         21    1    1    2  504  505 -0.46006189356E+02 -0.14888942773E+02  0.65925083057E+01  0.48802779037E+02  0.00000000000E+00 0. -1.
         21    1    1    2  505  502 -0.11129570667E+03 -0.29314951263E+02  0.95918015879E+02  0.14982111487E+03  0.00000000000E+00 0. -1.
          1    1    1    2  501    0  0.13212876898E+03  0.27580448733E+02 -0.29820770801E+04  0.29851302157E+04  0.00000000000E+00 0. -1.
<scales pt_clust_3="30.16662" pt_clust_4="32.36765" pt_clust_5="32.36765" pt_clust_6="135.25811"></scales>
<clustering>
<clus scale="   30.167">  1  3  2 -1</clus>
<clus scale="   32.368">  4  5 -1 -1</clus>
<clus scale="  135.258">  2  6  1 -1</clus>
<clus scale="   30.167">  1  3  2 -1</clus>
</clustering>
</event>
<event>
 6    0  0.4945982E+002  0.7181095E+02  0.7546771E-02  0.1354041E+00
         21   -1    0    0  503  502  0.00000000000E+00  0.00000000000E+00  0.49445003412E+03  0.49445003412E+03  0.00000000000E+00 0. -1.
         -1   -1    0    0    0  501 -0.00000000000E+00 -0.00000000000E+00 -0.18552551566E+03  0.18552551566E+03  0.00000000000E+00 0. -1.
         21    1    1    2  503  505  0.49353856646E+02 -0.56757005940E+02  0.21875489758E+03  0.23132415806E+03  0.00000000000E+00 0. -1.
         21    1    1    2  504  502 -0.89120603944E+02 -0.23793543972E+02  0.22994996759E+03  0.24776118012E+03  0.00000000000E+00 0. -1.
         21    1    1    2  505  501  0.40182539460E+02  0.30970634027E+02  0.19166560950E+01  0.50768988763E+02  0.00000000000E+00 0. -1.
         -1    1    1    2    0  504 -0.41579216148E+00  0.49579915885E+02 -0.14169700280E+03  0.15012122284E+03  0.00000000000E+00 0. -1.
<scales pt_clust_3="69.42409" pt_clust_4="14000.00000" pt_clust_5="71.81095" pt_clust_6="49.58166"></scales>
<clustering>
<clus scale="   49.582">  2  6  1 -1</clus>
<clus scale="   69.424">  1  3  2 -1</clus>
<clus scale="   71.811">  2  5  1 -1</clus>
<clus scale="   69.424">  1  3  2 -1</clus>
</clustering>
</event>
<event>
 6    0  0.4945982E+002  0.1025487E+03  0.7546771E-02  0.1275026E+00
          2   -1    0    0  504    0 -0.00000000000E+00  0.00000000000E+00  0.25704733274E+03  0.25704733274E+03  0.00000000000E+00 0. -1.
         21   -1    0    0  503  502  0.00000000000E+00 -0.00000000000E+00 -0.11300899578E+04  0.11300899578E+04  0.00000000000E+00 0. -1.
         21    1    1    2  503  505 -0.26268669504E+02  0.37124269027E+02 -0.13276047486E+03  0.14033388056E+03  0.00000000000E+00 0. -1.
         21    1    1    2  504  502  0.11506373556E+03  0.94214516122E+01 -0.86699446479E+03  0.87464725974E+03  0.00000000000E+00 0. -1.
         21    1    1    2  505  501 -0.11535638478E+03 -0.47816586684E+00 -0.91699648616E+02  0.14736400412E+03  0.00000000000E+00 0. -1.
          2    1    1    2  501    0  0.26561318729E+02 -0.46067554773E+02  0.21841196324E+03  0.22479214609E+03  0.00000000000E+00 0. -1.
<scales pt_clust_3="45.47806" pt_clust_4="102.54872" pt_clust_5="14000.00000" pt_clust_6="53.03095"></scales>
<clustering>
<clus scale="   45.478">  2  3  1 -1</clus>
<clus scale="   53.031">  1  6  2 -1</clus>
<clus scale="  102.549">  2  4  1 -1</clus>
<clus scale="   45.478">  2  3  1 -1</clus>
</clustering>
</event>
<event>
 6    0  0.4945982E+002  0.1160646E+03  0.7546771E-02  0.1249734E+00
         21   -1    0    0  505  502  0.00000000000E+00  0.00000000000E+00  0.27981366236E+03  0.27981366236E+03  0.00000000000E+00 0.  1.
          1   -1    0    0  503    0 -0.00000000000E+00 -0.00000000000E+00 -0.11924644017E+04  0.11924644017E+04  0.00000000000E+00 0. -1.
         21    1    1    2  503  504  0.83090416763E+02  0.88654429776E+02 -0.11664259346E+03  0.16843135066E+03  0.00000000000E+00 0.  1.
         21    1    1    2  504  502  0.35983819087E+02 -0.34078850191E+02  0.24598111386E+02  0.55328747955E+02  0.00000000000E+00 0.  1.
         21    1    1    2  505  501 -0.91782997063E+02 -0.68553070919E+02  0.19837417169E+03  0.22907630623E+03  0.00000000000E+00 0.  1.
          1    1    1    2  501    0 -0.27291238788E+02  0.13977491335E+02 -0.10189804289E+04  0.10194416592E+04  0.00000000000E+00 0. -1.
<scales pt_clust_3="14000.00000" pt_clust_4="46.95657" pt_clust_5="116.06465" pt_clust_6="30.66239"></scales>
<clustering>
<clus scale="   30.662">  2  6  1 -1</clus>
<clus scale="   46.957">  1  4  2 -1</clus>
<clus scale="  116.065">  1  5  2 -1</clus>
<clus scale="   46.957">  1  3  2 -1</clus>
</clustering>
</event>
<event>
 6    0  0.4945982E+002  0.1768787E+03  0.7546771E-02  0.1170858E+00
         21   -1    0    0  505  502  0.00000000000E+00  0.00000000000E+00  0.44542133241E+02  0.44542133241E+02  0.00000000000E+00 0.  1.
          2   -1    0    0  503    0 -0.00000000000E+00 -0.00000000000E+00 -0.32142534185E+04  0.32142534185E+04  0.00000000000E+00 0. -1.
         21    1    1    2  503  504 -0.10691364688E+02 -0.23543456671E+03 -0.11130164497E+04  0.11376947559E+04  0.00000000000E+00 0.  1.
         21    1    1    2  504  502 -0.34176762316E+02 -0.58904548851E+02 -0.45725928233E+02  0.82028394294E+02  0.00000000000E+00 0.  1.
         21    1    1    2  505  501  0.26464723189E+02  0.13772658247E+03 -0.48187592580E+03  0.50186990441E+03  0.00000000000E+00 0. -1.
          2    1    1    2  501    0  0.18403403815E+02  0.15661253309E+03 -0.15290929815E+04  0.15372024971E+04  0.00000000000E+00 0. -1.
<scales pt_clust_3="14000.00000" pt_clust_4="68.10137" pt_clust_5="116.20229" pt_clust_6="176.87873"></scales>
<clustering>
<clus scale="   68.101">  1  4  2 -1</clus>
<clus scale="  116.202">  1  5  2 -1</clus>
<clus scale="  176.879">  2  6  1 -1</clus>
<clus scale="   68.101">  1  3  2 -1</clus>
</clustering>
</event>
<event>
 6    0  0.4945982E+002  0.7533017E+02  0.7546771E-02  0.1342852E+00
          1   -1    0    0  503    0 -0.00000000000E+00  0.00000000000E+00  0.20469456266E+04  0.20469456266E+04  0.00000000000E+00 0.  1.
         21   -1    0    0  504  502  0.00000000000E+00 -0.00000000000E+00 -0.30599762849E+02  0.30599762849E+02  0.00000000000E+00 0.  1.
         21    1    1    2  503  505  0.35515093777E+02 -0.47226505951E+02  0.11136160119E+04  0.11151826248E+04  0.00000000000E+00 0.  1.
         21    1    1    2  504  501 -0.27622379371E+02  0.37565172814E+02  0.29810712534E+01  0.46722851331E+02  0.00000000000E+00 0.  1.
         21    1    1    2  505  502 -0.83767649832E+02  0.33190180490E+02  0.50548493736E+03  0.51345265521E+03  0.00000000000E+00 0. -1.
          1    1    1    2  501    0  0.75874935426E+02 -0.23528847353E+02  0.39426384322E+03  0.40218725807E+03  0.00000000000E+00 0.  1.
<scales pt_clust_3="54.90633" pt_clust_4="46.62765" pt_clust_5="75.33017" pt_clust_6="14000.00000"></scales>
<clustering>
<clus scale="   46.628">  2  4  1 -1</clus>
<clus scale="   54.906">  1  3  2 -1</clus>
<clus scale="   75.330">  1  5  2 -1</clus>
<clus scale="   46.628">  2  3  1 -1</clus>
</clustering>
</event>
<event>
 6    0  0.4945982E+002  0.1418963E+03  0.7546771E-02  0.1210800E+00
          2   -1    0    0  503    0 -0.00000000000E+00  0.00000000000E+00  0.27652548036E+04  0.27652548036E+04  0.00000000000E+00 0. -1.
         21   -1    0    0  504  502  0.00000000000E+00 -0.00000000000E+00 -0.39393395703E+02  0.39393395703E+02  0.00000000000E+00 0. -1.
         21    1    1    2  503  505  0.95204798346E+02 -0.45644894240E+02  0.16296581440E+03  0.19417844026E+03  0.00000000000E+00 0. -1.
         21    1    1    2  504  501 -0.42250393023E+02  0.16255700056E+02  0.10977515145E+03  0.11874311504E+03  0.00000000000E+00 0.  1.
         21    1    1    2  505  502  0.52808490831E+02 -0.46323647775E+02  0.52782114900E+02  0.87866766757E+02  0.00000000000E+00 0. -1.
          2    1    1    2  501    0 -0.10576289615E+03  0.75712841959E+02  0.24003383271E+04  0.24038598772E+04  0.00000000000E+00 0. -1.
<scales pt_clust_3="41.88010" pt_clust_4="45.26968" pt_clust_5="41.88010" pt_clust_6="132.28138"></scales>
<clustering>
<clus scale="   41.880">  3  5 -1 -1</clus>
<clus scale="   45.270">  2  4  1 -1</clus>
<clus scale="  132.281">  1  6  2 -1</clus>
<clus scale="   45.270">  2  3  1 -1</clus>
</clustering>
</event>
<event>
 6    0  0.4945982E+002  0.1103631E+03  0.7546771E-02  0.1259899E+00
          4   -1    0    0  503    0 -0.00000000000E+00  0.00000000000E+00  0.17865475778E+04  0.17865475778E+04  0.00000000000E+00 0. -1.
         21   -1    0    0  504  502  0.00000000000E+00 -0.00000000000E+00 -0.18082019333E+03  0.18082019333E+03  0.00000000000E+00 0.  1.
         21    1    1    2  503  502 -0.13451985348E+03 -0.76082645921E+02  0.72751678044E+02  0.17081266537E+03  0.00000000000E+00 0.  1.
         21    1    1    2  504  505  0.11731180579E+02 -0.56992502503E+02 -0.11517791026E+03  0.12904153188E+03  0.00000000000E+00 0.  1.
         21    1    1    2  505  501  0.29722751377E+02  0.77271643296E+02  0.21708183388E+03  0.23233353483E+03  0.00000000000E+00 0.  1.
          4    1    1    2  501    0  0.93065921528E+02  0.55803505128E+02  0.14310717828E+04  0.14351800391E+04  0.00000000000E+00 0. -1.
<scales pt_clust_3="14000.00000" pt_clust_4="58.18733" pt_clust_5="76.53765" pt_clust_6="110.36307"></scales>
<clustering>
<clus scale="   58.187">  2  4  1 -1</clus>
<clus scale="   76.538">  2  5  1 -1</clus>
<clus scale="  110.363">  1  6  2 -1</clus>
<clus scale="   58.187">  2  3  1 -1</clus>
</clustering>
</event>
<event>
 6    0  0.4945982E+002  0.9953716E+02  0.7546771E-02  0.1281272E+00
          1   -1    0    0  503    0 -0.00000000000E+00  0.00000000000E+00  0.76290347894E+03  0.76290347894E+03  0.00000000000E+00 0.  1.
         21   -1    0    0  504  502  0.00000000000E+00 -0.00000000000E+00 -0.43783673047E+03  0.43783673047E+03  0.00000000000E+00 0. -1.
         21    1    1    2  503  502  0.11969457160E+02 -0.81474199309E+02 -0.25771430914E+03  0.27055124874E+03  0.00000000000E+00 0. -1.
         21    1    1    2  504  505  0.30376886416E+02 -0.97900342165E+01 -0.12342662273E+03  0.12748620002E+03  0.00000000000E+00 0. -1.
         21    1    1    2  505  501 -0.21731456976E+01  0.12594180617E+03  0.36843886246E+02  0.13123845876E+03  0.00000000000E+00 0. -1.
          1    1    1    2  501    0 -0.40173197879E+02 -0.34677572649E+02  0.66936379409E+03  0.67146430189E+03  0.00000000000E+00 0.  1.
<scales pt_clust_3="99.53716" pt_clust_4="31.91551" pt_clust_5="14000.00000" pt_clust_6="53.01423"></scales>
<clustering>
<clus scale="   31.916">  2  4  1 -1</clus>
<clus scale="   53.014">  1  6  2 -1</clus>
<clus scale="   99.537">  2  3  1 -1</clus>
<clus scale="   31.916">  2  3  1 -1</clus>
</clustering>
</event>
<event>
 6    0  0.4945982E+002  0.2706025E+03  0.7546771E-02  0.1100935E+00
         21   -1    0    0  505  502  0.00000000000E+00  0.00000000000E+00  0.73615582918E+03  0.73615582918E+03  0.00000000000E+00 0. -1.
         -1   -1    0    0    0  501 -0.00000000000E+00 -0.00000000000E+00 -0.33538395641E+03  0.33538395641E+03  0.00000000000E+00 0.  1.
         21    1    1    2  503  502  0.11682058385E+03 -0.18945662419E+03  0.50639764429E+02  0.22826573769E+03  0.00000000000E+00 0.  1.
         21    1    1    2  504  501 -0.11353611485E+03  0.10878414294E+03  0.28201496481E+03  0.32288833907E+03  0.00000000000E+00 0. -1.
         21    1    1    2  505  504 -0.75665319098E+02  0.10820492134E+03  0.27196608880E+03  0.30232283899E+03  0.00000000000E+00 0. -1.
         -1    1    1    2    0  503  0.72380850092E+02 -0.27532440097E+02 -0.20384894527E+03  0.21806286985E+03  0.00000000000E+00 0.  1.
<scales pt_clust_3="268.53892" pt_clust_4="30.56533" pt_clust_5="30.56533" pt_clust_6="77.44045"></scales>
<clustering>
<clus scale="   30.565">  4  5 -1 -1</clus>
<clus scale="   77.440">  2  6  1 -1</clus>
<clus scale="  268.539">  2  3  1 -1</clus>
<clus scale="  270.603">  1  3  2 -1</clus>
</clustering>
</event>
<event>
 6    0  0.4945982E+002  0.1885274E+03  0.7546771E-02  0.1159796E+00
         21   -1    0    0  504  502  0.00000000000E+00  0.00000000000E+00  0.11907842259E+03  0.11907842259E+03  0.00000000000E+00 0.  1.
          2   -1    0    0  503    0 -0.00000000000E+00 -0.00000000000E+00 -0.26687528778E+04  0.26687528778E+04  0.00000000000E+00 0.  1.
         21    1    1    2  503  505 -0.83454537672E+02  0.76223232934E+02 -0.26753470795E+03  0.29042978679E+03  0.00000000000E+00 0. -1.
         21    1    1    2  504  501 -0.15101107070E+03  0.76513797525E+02 -0.78738430140E+01  0.16947183273E+03  0.00000000000E+00 0.  1.
         21    1    1    2  505  502  0.18558570515E+03  0.10603403542E+03 -0.70392089792E+03  0.73565610250E+03  0.00000000000E+00 0.  1.
          2    1    1    2  501    0  0.48879903221E+02 -0.25877106588E+03 -0.15703450064E+04  0.15922735784E+04  0.00000000000E+00 0.  1.
<scales pt_clust_3="113.02496" pt_clust_4="173.33302" pt_clust_5="188.52739" pt_clust_6="14000.00000"></scales>
<clustering>
<clus scale="  113.025">  2  3  1 -1</clus>
<clus scale="  173.333">  1  4  2 -1</clus>
<clus scale="  188.527">  1  5  2 -1</clus>
<clus scale="  173.333">  1  3  2 -1</clus>
</clustering>
</event>
<event>
 6    0  0.4945982E+002  0.6728534E+02  0.7546771E-02  0.1369575E+00
          1   -1    0    0  503    0 -0.00000000000E+00  0.00000000000E+00  0.10013408576E+03  0.10013408576E+03  0.00000000000E+00 0.  1.
         21   -1    0    0  504  502  0.00000000000E+00 -0.00000000000E+00 -0.98142423935E+03  0.98142423935E+03  0.00000000000E+00 0. -1.
         21    1    1    2  503  505 -0.74681123980E+01 -0.10632575597E+03 -0.19116270677E+03  0.21887009742E+03  0.00000000000E+00 0.  1.
         21    1    1    2  504  501 -0.41356120727E+02  0.71069053385E+01 -0.12053468475E+03  0.12763011812E+03  0.00000000000E+00 0.  1.
         21    1    1    2  505  502  0.48768201485E+02  0.46646387862E+02 -0.64202268861E+03  0.64555972277E+03  0.00000000000E+00 0. -1.
          1    1    1    2  501    0  0.56031640049E-01  0.52572462768E+02  0.72429926530E+02  0.89498386791E+02  0.00000000000E+00 0.  1.
<scales pt_clust_3="67.28534" pt_clust_4="41.96233" pt_clust_5="14000.00000" pt_clust_6="52.64441"></scales>
<clustering>
<clus scale="   41.962">  2  4  1 -1</clus>
<clus scale="   52.644">  1  6  2 -1</clus>
<clus scale="   67.285">  1  3  2 -1</clus>
<clus scale="   41.962">  2  3  1 -1</clus>
</clustering>
</event>
<event>
 6    0  0.4945982E+002  0.1573359E+03  0.7546771E-02  0.1191738E+00
          1   -1    0    0  503    0 -0.00000000000E+00  0.00000000000E+00  0.83958660372E+03  0.83958660372E+03  0.00000000000E+00 0.  1.
         21   -1    0    0  505  502  0.00000000000E+00 -0.00000000000E+00 -0.12460698237E+04  0.12460698237E+04  0.00000000000E+00 0.  1.
         21    1    1    2  503  504  0.10988867770E+03 -0.60945075960E+02  0.11593335539E+03  0.17096890554E+03  0.00000000000E+00 0.  1.
         21    1    1    2  504  502  0.36110440160E+02  0.68595108097E+02 -0.11728239313E+04  0.11753830127E+04  0.00000000000E+00 0.  1.
         21    1    1    2  505  501 -0.22629341906E+03 -0.13485048377E+02  0.28007622694E+03  0.36032381399E+03  0.00000000000E+00 0.  1.
          1    1    1    2  501    0  0.80294301196E+02  0.58350162398E+01  0.37033112899E+03  0.37898069518E+03  0.00000000000E+00 0.  1.
<scales pt_clust_3="157.33589" pt_clust_4="77.51937" pt_clust_5="14000.00000" pt_clust_6="83.06331"></scales>
<clustering>
<clus scale="   77.519">  2  4  1 -1</clus>
<clus scale="   83.063">  1  6  2 -1</clus>
<clus scale="  157.336">  2  3  1 -1</clus>
<clus scale="   77.519">  2  3  1 -1</clus>
</clustering>
</event>
<event>
 6    0  0.4945982E+002  0.1797207E+03  0.7546771E-02  0.1168074E+00
          2   -1    0    0  503    0 -0.00000000000E+00  0.00000000000E+00  0.62625265831E+03  0.62625265831E+03  0.00000000000E+00 0.  1.
         21   -1    0    0  504  502  0.00000000000E+00 -0.00000000000E+00 -0.71759616539E+03  0.71759616539E+03  0.00000000000E+00 0.  1.
         21    1    1    2  503  505 -0.31447974857E+02 -0.16256075174E+01  0.44401413989E+00  0.31493092433E+02  0.00000000000E+00 0. -1.
         21    1    1    2  504  501 -0.67142573646E+02  0.11897298880E+03 -0.89282650087E+02  0.16319953697E+03  0.00000000000E+00 0.  1.
         21    1    1    2  505  502  0.10771013305E+03 -0.16865654431E+03 -0.55718582118E+03  0.59203255149E+03  0.00000000000E+00 0.  1.
          2    1    1    2  501    0 -0.91195845417E+01  0.51309163024E+02  0.55468095005E+03  0.55712364281E+03  0.00000000000E+00 0.  1.
<scales pt_clust_3="31.48996" pt_clust_4="14000.00000" pt_clust_5="179.72070" pt_clust_6="62.52268"></scales>
<clustering>
<clus scale="   31.490">  1  3  2 -1</clus>
<clus scale="   62.523">  1  6  2 -1</clus>
<clus scale="  179.721">  2  5  1 -1</clus>
<clus scale="  179.721">  2  3  1 -1</clus>
</clustering>
</event>
<event>
 6    0  0.4945982E+002  0.1161899E+03  0.7546771E-02  0.1249518E+00
          1   -1    0    0  502    0 -0.00000000000E+00  0.00000000000E+00  0.25805249083E+04  0.25805249083E+04  0.00000000000E+00 0.  1.
         21   -1    0    0  504  502  0.00000000000E+00 -0.00000000000E+00 -0.46792790272E+03  0.46792790272E+03  0.00000000000E+00 0. -1.
         21    1    1    2  503  501 -0.10042690594E+01 -0.48943463448E+02 -0.30396638090E+02  0.57623144463E+02  0.00000000000E+00 0.  1.
         21    1    1    2  504  505  0.46477840897E+02  0.70068866288E+02 -0.21946879679E+03  0.23502422956E+03  0.00000000000E+00 0. -1.
         21    1    1    2  505  503 -0.38336042056E+02 -0.85886816889E+02 -0.18498621888E+03  0.20752373024E+03  0.00000000000E+00 0. -1.
          1    1    1    2  501    0 -0.71375297817E+01  0.64761414049E+02  0.25474486593E+04  0.25482817068E+04  0.00000000000E+00 0.  1.
<scales pt_clust_3="46.67832" pt_clust_4="96.50833" pt_clust_5="46.67832" pt_clust_6="65.15355"></scales>
<clustering>
<clus scale="   46.678">  3  5 -1 -1</clus>
<clus scale="   65.154">  1  6  2 -1</clus>
<clus scale="   96.508">  2  4  1 -1</clus>
<clus scale="   96.508">  2  3  1 -1</clus>
</clustering>
</event>
<event>
 6    0  0.4945982E+002  0.7266438E+02  0.7546771E-02  0.1351260E+00
         21   -1    0    0  504  502  0.00000000000E+00  0.00000000000E+00  0.63561248661E+02  0.63561248661E+02  0.00000000000E+00 0. -1.
         -4   -1    0    0    0  501 -0.00000000000E+00 -0.00000000000E+00 -0.85229521204E+03  0.85229521204E+03  0.00000000000E+00 0.  1.
         21    1    1    2  503  502  0.26415804750E+02  0.80348768460E+02 -0.17128097686E+02  0.86296529849E+02  0.00000000000E+00 0. -1.
         21    1    1    2  504  501  0.25415650328E+02 -0.32854286718E+02 -0.11199348054E+02  0.43020748880E+02  0.00000000000E+00 0. -1.
         21    1    1    2  505  503 -0.12562605285E+02 -0.75233361826E+02 -0.10720375825E+03  0.13156946289E+03  0.00000000000E+00 0. -1.
         -4    1    1    2    0  505 -0.39268849794E+02  0.27738880084E+02 -0.65320275940E+03  0.65496971908E+03  0.00000000000E+00 0.  1.
<scales pt_clust_3="14000.00000" pt_clust_4="41.53745" pt_clust_5="72.66438" pt_clust_6="47.34214"></scales>
<clustering>
<clus scale="   41.537">  1  4  2 -1</clus>
<clus scale="   47.342">  2  6  1 -1</clus>
<clus scale="   72.664">  2  5  1 -1</clus>
<clus scale="   41.537">  1  3  2 -1</clus>
</clustering>
</event>
<event>
 6    0  0.4945982E+002  0.2268662E+03  0.7546771E-02  0.1128865E+00
         21   -1    0    0  503  502  0.00000000000E+00  0.00000000000E+00  0.34736471151E+03  0.34736471151E+03  0.00000000000E+00 0. -1.
         -4   -1    0    0    0  501 -0.00000000000E+00 -0.00000000000E+00 -0.51995836120E+03  0.51995836120E+03  0.00000000000E+00 0.  1.
         21    1    1    2  503  504 -0.67972821036E+02  0.26807587315E+02  0.47869495159E+02  0.87352388085E+02  0.00000000000E+00 0.  1.
         21    1    1    2  504  501 -0.82111143370E+02  0.12897629571E+03  0.30843412311E+02  0.15597576992E+03  0.00000000000E+00 0. -1.
         21    1    1    2  505  502  0.38041316456E+02  0.25145221502E+02  0.15703715430E+03  0.16352397913E+03  0.00000000000E+00 0. -1.
         -4    1    1    2    0  505  0.11204264795E+03 -0.18092910452E+03 -0.40834371146E+03  0.46047093557E+03  0.00000000000E+00 0.  1.
<scales pt_clust_3="51.08533" pt_clust_4="51.08533" pt_clust_5="45.60070" pt_clust_6="212.71863"></scales>
<clustering>
<clus scale="   45.601">  1  5  2 -1</clus>
<clus scale="   51.085">  3  4 -1 -1</clus>
<clus scale="  212.719">  2  6  1 -1</clus>
<clus scale="   45.601">  1  3  2 -1</clus>
</clustering>
</event>
<event>
 6    0  0.4945982E+002  0.1488065E+03  0.7546771E-02  0.1201947E+00
         21   -1    0    0  503  502  0.00000000000E+00  0.00000000000E+00  0.51203689495E+03  0.51203689495E+03  0.00000000000E+00 0.  1.
          2   -1    0    0  504    0 -0.00000000000E+00 -0.00000000000E+00 -0.28469278203E+04  0.28469278203E+04  0.00000000000E+00 0. -1.
         21    1    1    2  503  501  0.11725708599E+03 -0.16469974040E+02  0.37171708022E+02  0.12410568132E+03  0.00000000000E+00 0.  1.
         21    1    1    2  504  505  0.33028660254E+02  0.12758692786E+02 -0.59414554561E+02  0.69164773790E+02  0.00000000000E+00 0.  1.
         21    1    1    2  505  502 -0.15573588407E+03 -0.47648975935E+02  0.41072261321E+03  0.44183385508E+03  0.00000000000E+00 0.  1.
          2    1    1    2  501    0  0.54501378325E+01  0.51360257189E+02 -0.27233706920E+04  0.27238604051E+04  0.00000000000E+00 0. -1.
<scales pt_clust_3="14000.00000" pt_clust_4="35.40730" pt_clust_5="148.80652" pt_clust_6="74.18762"></scales>
<clustering>
<clus scale="   35.407">  2  4  1 -1</clus>
<clus scale="   74.188">  2  6  1 -1</clus>
<clus scale="  148.807">  1  5  2 -1</clus>
<clus scale="  148.807">  1  3  2 -1</clus>
</clustering>
</event>
<event>
 6    0  0.4945982E+002  0.1021836E+03  0.7546771E-02  0.1275770E+00
         21   -1    0    0  503  502  0.00000000000E+00  0.00000000000E+00  0.48236960056E+03  0.48236960056E+03  0.00000000000E+00 0. -1.
          2   -1    0    0  504    0 -0.00000000000E+00 -0.00000000000E+00 -0.27018238628E+04  0.27018238628E+04  0.00000000000E+00 0.  1.
         21    1    1    2  503  501  0.56410675877E+02  0.39752588618E+01 -0.54217409481E+02  0.78342163148E+02  0.00000000000E+00 0. -1.
         21    1    1    2  504  505 -0.46969974990E+02 -0.13800305053E+03  0.38329611217E+03  0.41008161396E+03  0.00000000000E+00 0. -1.
         21    1    1    2  505  502  0.38646276619E+02  0.43859309218E+02  0.60854079228E+02  0.84382419142E+02  0.00000000000E+00 0.  1.
          2    1    1    2  501    0 -0.48086977506E+02  0.90168482447E+02 -0.26093870442E+04  0.26113872671E+04  0.00000000000E+00 0.  1.
<scales pt_clust_3="56.55057" pt_clust_4="102.18360" pt_clust_5="64.96529" pt_clust_6="14000.00000"></scales>
<clustering>
<clus scale="   56.551">  1  3  2 -1</clus>
<clus scale="   64.965">  1  5  2 -1</clus>
<clus scale="  102.184">  1  4  2 -1</clus>
<clus scale="   56.551">  1  3  2 -1</clus>
</clustering>
</event>
<event>
 6    0  0.4945982E+002  0.1574207E+03  0.7546771E-02  0.1191640E+00
         21   -1    0    0  504  502  0.00000000000E+00  0.00000000000E+00  0.11703203371E+03  0.11703203371E+03  0.00000000000E+00 0. -1.
          4   -1    0    0  505    0 -0.00000000000E+00 -0.00000000000E+00 -0.20905241132E+04  0.20905241132E+04  0.00000000000E+00 0. -1.
         21    1    1    2  503  502 -0.61139423026E+02 -0.75436602747E+02 -0.64209386348E+01  0.97313609197E+02  0.00000000000E+00 0. -1.
         21    1    1    2  504  501  0.22625246014E+03  0.92264825262E+02 -0.20080104005E+03  0.31626576069E+03  0.00000000000E+00 0. -1.
         21    1    1    2  505  503 -0.13224805644E+02 -0.44107708651E+02 -0.40509520189E+02  0.61330307946E+02  0.00000000000E+00 0.  1.
          4    1    1    2  501    0 -0.15188823147E+03  0.27279486136E+02 -0.17257605806E+04  0.17326464691E+04  0.00000000000E+00 0. -1.
<scales pt_clust_3="151.54347" pt_clust_4="14000.00000" pt_clust_5="38.61619" pt_clust_6="157.42073"></scales>
<clustering>
<clus scale="   38.616">  3  5 -1 -1</clus>
<clus scale="  151.543">  1  3  2 -1</clus>
<clus scale="  157.421">  2  6  1 -1</clus>
<clus scale="  151.543">  1  3  2 -1</clus>
</clustering>
</event>
<event>
 6    0  0.4945982E+002  0.1163154E+03  0.7546771E-02  0.1249302E+00
         -1   -1    0    0    0  501 -0.00000000000E+00  0.00000000000E+00  0.41831493335E+03  0.41831493335E+03  0.00000000000E+00 0. -1.
         21   -1    0    0  501  502  0.00000000000E+00 -0.00000000000E+00 -0.22667319112E+03  0.22667319112E+03  0.00000000000E+00 0. -1.
         21    1    1    2  503  502  0.49690430740E+02  0.32521587095E+02 -0.48345870047E+02  0.76577514225E+02  0.00000000000E+00 0. -1.
         21    1    1    2  504  505 -0.67086356152E+02 -0.11938223560E+03 -0.47308038744E+02  0.14488184113E+03  0.00000000000E+00 0. -1.
         21    1    1    2  505  503  0.88498536168E+01  0.42995266530E+02 -0.59458357471E+02  0.73906759678E+02  0.00000000000E+00 0. -1.
         -1    1    1    2    0  504  0.85460717951E+01  0.43865381978E+02  0.34675400849E+03  0.34962200944E+03  0.00000000000E+00 0. -1.
<scales pt_clust_3="37.41632" pt_clust_4="107.86686" pt_clust_5="37.41632" pt_clust_6="44.69012"></scales>
<clustering>
<clus scale="   37.416">  3  5 -1 -1</clus>
<clus scale="   44.690">  1  6  2 -1</clus>
<clus scale="  107.867">  1  4  2 -1</clus>
<clus scale="  116.315">  2  3  1 -1</clus>
</clustering>
</event>
<event>
 6    0  0.4945982E+002  0.6725432E+02  0.7546771E-02  0.1369687E+00
          2   -1    0    0  503    0 -0.00000000000E+00  0.00000000000E+00  0.30484153458E+04  0.30484153458E+04  0.00000000000E+00 0. -1.
         21   -1    0    0  504  502  0.00000000000E+00 -0.00000000000E+00 -0.10682810958E+03  0.10682810958E+03  0.00000000000E+00 0. -1.
         21    1    1    2  503  505 -0.12158725286E+03 -0.51685126274E+02  0.27394173736E+02  0.13492684348E+03  0.00000000000E+00 0. -1.
         21    1    1    2  504  501  0.37403028043E+02 -0.36950589935E+01  0.49519174845E+02  0.62167424308E+02  0.00000000000E+00 0.  1.
         21    1    1    2  505  502  0.17333671698E+02  0.54397606919E+02 -0.28770843778E+02  0.63932130144E+02  0.00000000000E+00 0. -1.
          2    1    1    2  501    0  0.66850553121E+02  0.98257834922E+00  0.28934447314E+04  0.28942170575E+04  0.00000000000E+00 0. -1.
<scales pt_clust_3="67.25432" pt_clust_4="37.58510" pt_clust_5="63.02879" pt_clust_6="14000.00000"></scales>
<clustering>
<clus scale="   37.585">  2  4  1 -1</clus>
<clus scale="   63.029">  2  5  1 -1</clus>
<clus scale="   67.254">  2  3  1 -1</clus>
<clus scale="   37.585">  2  3  1 -1</clus>
</clustering>
</event>
<event>
 6    0  0.4945982E+002  0.2803673E+03  0.7546771E-02  0.1095489E+00
          2   -1    0    0  503    0 -0.00000000000E+00  0.00000000000E+00  0.23777440945E+04  0.23777440945E+04  0.00000000000E+00 0. -1.
         21   -1    0    0  505  502  0.00000000000E+00 -0.00000000000E+00 -0.52081326806E+03  0.52081326806E+03  0.00000000000E+00 0.  1.
         21    1    1    2  503  502 -0.30469714158E+01 -0.44727254365E+02 -0.42646661987E+02  0.61875270475E+02  0.00000000000E+00 0.  1.
         21    1    1    2  504  501 -0.54008688450E+02 -0.15917606683E+03  0.70109774530E+02  0.18212451555E+03  0.00000000000E+00 0. -1.
         21    1    1    2  505  504  0.57264139322E+02 -0.98462246049E+02 -0.39425150373E+03  0.41037573484E+03  0.00000000000E+00 0.  1.
          2    1    1    2  501    0 -0.20847945640E+00  0.30236556724E+03  0.22237192177E+04  0.22441818417E+04  0.00000000000E+00 0. -1.
<scales pt_clust_3="44.83092" pt_clust_4="280.36728" pt_clust_5="147.37307" pt_clust_6="14000.00000"></scales>
<clustering>
<clus scale="   44.831">  2  3  1 -1</clus>
<clus scale="  147.373">  2  5  1 -1</clus>
<clus scale="  280.367">  2  4  1 -1</clus>
<clus scale="   44.831">  2  3  1 -1</clus>
</clustering>
</event>
<event>
 6    0  0.4945982E+002  0.6957412E+02  0.7546771E-02  0.1361547E+00
         21   -1    0    0  504  502  0.00000000000E+00  0.00000000000E+00  0.64315259131E+02  0.64315259131E+02  0.00000000000E+00 0. -1.
          2   -1    0    0  503    0 -0.00000000000E+00 -0.00000000000E+00 -0.90375381695E+03  0.90375381695E+03  0.00000000000E+00 0. -1.
         21    1    1    2  503  505  0.24366176045E+02 -0.65015332015E+02 -0.82652088851E+02  0.10794476237E+03  0.00000000000E+00 0. -1.
         21    1    1    2  504  501  0.26591882553E+01 -0.50980414075E+02  0.20530605702E+02  0.55023446565E+02  0.00000000000E+00 0. -1.
         21    1    1    2  505  502  0.22893928290E+02  0.82043498806E+02 -0.13284322445E+03  0.15780554468E+03  0.00000000000E+00 0. -1.
          2    1    1    2  501    0 -0.49919292590E+02  0.33952247284E+02 -0.64447385023E+03  0.64729532247E+03  0.00000000000E+00 0. -1.
<scales pt_clust_3="14000.00000" pt_clust_4="51.04972" pt_clust_5="69.57412" pt_clust_6="58.77004"></scales>
<clustering>
<clus scale="   51.050">  1  4  2 -1</clus>
<clus scale="   58.770">  2  6  1 -1</clus>
<clus scale="   69.574">  1  5  2 -1</clus>
<clus scale="   51.050">  1  3  2 -1</clus>
</clustering>
</event>
<event>
 6    0  0.4945982E+002  0.1992512E+03  0.7546771E-02  0.1150372E+00
          3   -1    0    0  504    0 -0.00000000000E+00  0.00000000000E+00  0.53626143904E+03  0.53626143904E+03  0.00000000000E+00 0. -1.
         21   -1    0    0  503  502  0.00000000000E+00 -0.00000000000E+00 -0.10973780727E+04  0.10973780727E+04  0.00000000000E+00 0. -1.
         21    1    1    2  503  505 -0.18771497578E+03  0.36149704417E+01 -0.70126076983E+03  0.72595912244E+03  0.00000000000E+00 0. -1.
         21    1    1    2  504  502 -0.22190423992E+01 -0.84186973484E+02  0.39357748119E+01  0.84308131144E+02  0.00000000000E+00 0. -1.
         21    1    1    2  505  501  0.24023236852E+03  0.68492829545E+02 -0.29643058048E+03  0.38765183816E+03  0.00000000000E+00 0. -1.
          3    1    1    2  501    0 -0.50298350345E+02  0.12079173497E+02  0.43263894179E+03  0.43572042004E+03  0.00000000000E+00 0. -1.
<scales pt_clust_3="14000.00000" pt_clust_4="82.52079" pt_clust_5="199.25124" pt_clust_6="51.72843"></scales>
<clustering>
<clus scale="   51.728">  1  6  2 -1</clus>
<clus scale="   82.521">  1  4  2 -1</clus>
<clus scale="  199.251">  1  5  2 -1</clus>
<clus scale="  199.251">  2  3  1 -1</clus>
</clustering>
</event>
<event>
 6    0  0.4945982E+002  0.1317030E+03  0.7546771E-02  0.1224950E+00
         21   -1    0    0  504  502  0.00000000000E+00  0.00000000000E+00  0.13545366069E+03  0.13545366069E+03  0.00000000000E+00 0.  1.
         -2   -1    0    0    0  501 -0.00000000000E+00 -0.00000000000E+00 -0.54227832876E+03  0.54227832876E+03  0.00000000000E+00 0.  1.
         21    1    1    2  503  502 -0.16686471152E+03  0.44143855375E+02 -0.13845189447E+03  0.22127231865E+03  0.00000000000E+00 0.  1.
         21    1    1    2  504  505  0.77236369078E+02 -0.10026251079E+03  0.84390160979E+01  0.12684338679E+03  0.00000000000E+00 0.  1.
         21    1    1    2  505  501  0.10661028456E+03  0.83245070603E+02 -0.16521743214E+03  0.21352352197E+03  0.00000000000E+00 0.  1.
         -2    1    1    2    0  503 -0.16981942118E+02 -0.27126415186E+02 -0.11159435756E+03  0.11609276204E+03  0.00000000000E+00 0.  1.
<scales pt_clust_3="131.70301" pt_clust_4="14000.00000" pt_clust_5="122.06113" pt_clust_6="32.00357"></scales>
<clustering>
<clus scale="   32.004">  2  6  1 -1</clus>
<clus scale="  122.061">  2  5  1 -1</clus>
<clus scale="  131.703">  2  3  1 -1</clus>
<clus scale="  131.703">  1  3  2 -1</clus>
</clustering>
</event>
<event>
 6    0  0.4945982E+002  0.1375625E+03  0.7546771E-02  0.1216647E+00
         21   -1    0    0  501  502  0.00000000000E+00  0.00000000000E+00  0.51079032412E+02  0.51079032412E+02  0.00000000000E+00 0. -1.
          2   -1    0    0  504    0 -0.00000000000E+00 -0.00000000000E+00 -0.80216994577E+03  0.80216994577E+03  0.00000000000E+00 0. -1.
         21    1    1    2  503  505 -0.27706029091E+02 -0.19033110108E+02 -0.21547424981E+02  0.39927119251E+02  0.00000000000E+00 0.  1.
         21    1    1    2  504  503 -0.60066843876E+02  0.12077372675E+03 -0.21775883631E+03  0.25615079465E+03  0.00000000000E+00 0. -1.
         21    1    1    2  505  502 -0.52995613543E+02 -0.38303714362E+02 -0.13601849783E+03  0.15091965193E+03  0.00000000000E+00 0. -1.
          2    1    1    2  501    0  0.14076848651E+03 -0.63436902282E+02 -0.37576615424E+03  0.40625141235E+03  0.00000000000E+00 0. -1.
<scales pt_clust_3="30.37828" pt_clust_4="137.56245" pt_clust_5="107.68226" pt_clust_6="14000.00000"></scales>
<clustering>
<clus scale="   30.378">  3  5 -1 -1</clus>
<clus scale="  107.682">  1  3  2 -1</clus>
<clus scale="  137.562">  1  4  2 -1</clus>
<clus scale="  107.682">  1  3  2 -1</clus>
</clustering>
</event>
<event>
 6    0  0.4945982E+002  0.1116272E+03  0.7546771E-02  0.1257586E+00
          1   -1    0    0  503    0 -0.00000000000E+00  0.00000000000E+00  0.12843992813E+04  0.12843992813E+04  0.00000000000E+00 0. -1.
         21   -1    0    0  505  502  0.00000000000E+00 -0.00000000000E+00 -0.70514037969E+02  0.70514037969E+02  0.00000000000E+00 0. -1.
         21    1    1    2  503  504  0.98743608388E+02 -0.12955496038E+03  0.16234329882E+03  0.22997855254E+03  0.00000000000E+00 0. -1.
         21    1    1    2  504  502 -0.26464232218E+02  0.16138144187E+02  0.32331566979E+02  0.44789792454E+02  0.00000000000E+00 0. -1.
         21    1    1    2  505  501  0.15609479539E+02  0.50877778698E+02 -0.19974977345E+01  0.53255931255E+02  0.00000000000E+00 0. -1.
          1    1    1    2  501    0 -0.87888855709E+02  0.62539037498E+02  0.10212078752E+04  0.10268890430E+04  0.00000000000E+00 0. -1.
<scales pt_clust_3="111.62719" pt_clust_4="30.99670" pt_clust_5="57.96822" pt_clust_6="14000.00000"></scales>
<clustering>
<clus scale="   30.997">  2  4  1 -1</clus>
<clus scale="   57.968">  2  5  1 -1</clus>
<clus scale="  111.627">  2  3  1 -1</clus>
<clus scale="   30.997">  2  3  1 -1</clus>
</clustering>
</event>
<event>
 6    0  0.4945982E+002  0.2218364E+03  0.7546771E-02  0.1132521E+00
         -1   -1    0    0    0  501 -0.00000000000E+00  0.00000000000E+00  0.92416306067E+03  0.92416306067E+03  0.00000000000E+00 0.  1.
         21   -1    0    0  503  502  0.00000000000E+00 -0.00000000000E+00 -0.29520835755E+03  0.29520835755E+03  0.00000000000E+00 0.  1.
         21    1    1    2  503  501  0.18451207567E+03  0.11814406250E+03 -0.20532293982E+03  0.30026693989E+03  0.00000000000E+00 0.  1.
         21    1    1    2  504  502 -0.22680643053E+02 -0.79948534876E+02  0.63600815037E+02  0.10464818905E+03  0.00000000000E+00 0.  1.
         21    1    1    2  505  504 -0.86245870266E+02 -0.22007449041E+02  0.80648802936E+02  0.12011206170E+03  0.00000000000E+00 0.  1.
         -1    1    1    2    0  505 -0.75585562353E+02 -0.16188078584E+02  0.69002802497E+03  0.69434422758E+03  0.00000000000E+00 0.  1.
<scales pt_clust_3="204.35793" pt_clust_4="77.75298" pt_clust_5="77.75298" pt_clust_6="77.29962"></scales>
<clustering>
<clus scale="   77.300">  1  6  2 -1</clus>
<clus scale="   77.753">  4  5 -1 -1</clus>
<clus scale="  204.358">  2  3  1 -1</clus>
<clus scale="  204.358">  2  3  1 -1</clus>
</clustering>
</event>
<event>
 6    0  0.4945982E+002  0.1033991E+03  0.7546771E-02  0.1273306E+00
          2   -1    0    0  502    0 -0.00000000000E+00  0.00000000000E+00  0.59752430732E+02  0.59752430732E+02  0.00000000000E+00 0. -1.
         21   -1    0    0  503  502  0.00000000000E+00 -0.00000000000E+00 -0.71957165998E+03  0.71957165998E+03  0.00000000000E+00 0. -1.
         21    1    1    2  503  505  0.19724324357E+02 -0.23951225117E+02 -0.81199731995E+02  0.86925868601E+02  0.00000000000E+00 0. -1.
         21    1    1    2  504  501 -0.43962513966E+02  0.98794360457E+02 -0.34473027736E+03  0.36129211508E+03  0.00000000000E+00 0. -1.
         21    1    1    2  505  504 -0.79848404354E+02 -0.42167483521E+02 -0.19568611300E+03  0.21551547315E+03  0.00000000000E+00 0. -1.
          2    1    1    2  501    0  0.10408659396E+03 -0.32675651819E+02 -0.38203106891E+02  0.11559063388E+03  0.00000000000E+00 0. -1.
<scales pt_clust_3="31.02757" pt_clust_4="14000.00000" pt_clust_5="88.82034" pt_clust_6="103.39905"></scales>
<clustering>
<clus scale="   31.028">  2  3  1 -1</clus>
<clus scale="   88.820">  2  5  1 -1</clus>
<clus scale="  103.399">  1  6  2 -1</clus>
<clus scale="   31.028">  2  3  1 -1</clus>
</clustering>
</event>
<event>
 6    0  0.4945982E+002  0.1380119E+03  0.7546771E-02  0.1216029E+00
          2   -1    0    0  505    0 -0.00000000000E+00  0.00000000000E+00  0.12197751744E+04  0.12197751744E+04  0.00000000000E+00 0. -1.
         21   -1    0    0  503  502  0.00000000000E+00 -0.00000000000E+00 -0.47508865544E+02  0.47508865544E+02  0.00000000000E+00 0.  1.
         21    1    1    2  503  501 -0.17510376410E+02 -0.32681531061E+02  0.11481181969E+03  0.12065011270E+03  0.00000000000E+00 0.  1.
         21    1    1    2  504  502 -0.29941484393E+02  0.95619810602E+01 -0.16755899322E+02  0.35618592498E+02  0.00000000000E+00 0.  1.
         21    1    1    2  505  504  0.15567407417E+03 -0.36685410801E+02  0.60095617927E+03  0.62187504061E+03  0.00000000000E+00 0.  1.
          2    1    1    2  501    0 -0.10822221336E+03  0.59804960802E+02  0.47325420924E+03  0.48914029415E+03  0.00000000000E+00 0. -1.
<scales pt_clust_3="38.09469" pt_clust_4="31.43126" pt_clust_5="138.01193" pt_clust_6="14000.00000"></scales>
<clustering>
<clus scale="   31.431">  2  4  1 -1</clus>
<clus scale="   38.095">  2  3  1 -1</clus>
<clus scale="  138.012">  2  5  1 -1</clus>
<clus scale="   31.431">  2  3  1 -1</clus>
</clustering>
</event>
<event>
 6    0  0.4945982E+002  0.9088015E+02  0.7546771E-02  0.1300734E+00
         21   -1    0    0  504  502  0.00000000000E+00  0.00000000000E+00  0.54178810002E+02  0.54178810002E+02  0.00000000000E+00 0. -1.
          1   -1    0    0  503    0 -0.00000000000E+00 -0.00000000000E+00 -0.90754297215E+03  0.90754297215E+03  0.00000000000E+00 0.  1.
         21    1    1    2  503  505  0.40686983245E+01 -0.76236856057E+02 -0.53357713217E+02  0.93143212781E+02  0.00000000000E+00 0. -1.
         21    1    1    2  504  501  0.51076820064E+02  0.11218648836E+02 -0.10036068919E+02  0.53248683635E+02  0.00000000000E+00 0. -1.
         21    1    1    2  505  502 -0.46626477755E+02 -0.27655063849E+02 -0.66033352010E+02  0.85435557949E+02  0.00000000000E+00 0. -1.
          1    1    1    2  501    0 -0.85190406326E+01  0.92673271070E+02 -0.72393702800E+03  0.72989432779E+03  0.00000000000E+00 0.  1.
<scales pt_clust_3="14000.00000" pt_clust_4="52.29436" pt_clust_5="39.72422" pt_clust_6="90.88015"></scales>
<clustering>
<clus scale="   52.294">  1  4  2 -1</clus>
<clus scale="   39.724">  1  5  2 -1</clus>
<clus scale="   90.880">  2  6  1 -1</clus>
<clus scale="   52.294">  1  3  2 -1</clus>
</clustering>
</event>
<event>
 6    0  0.4945982E+002  0.2574379E+03  0.7546771E-02  0.1108692E+00
         -1   -1    0    0    0  501 -0.00000000000E+00  0.00000000000E+00  0.11642992388E+03  0.11642992388E+03  0.00000000000E+00 0. -1.
         21   -1    0    0  504  502  0.00000000000E+00 -0.00000000000E+00 -0.23520664762E+04  0.23520664762E+04  0.00000000000E+00 0. -1.
         21    1    1    2  503  505 -0.20825516011E+03 -0.87544780070E+02 -0.10116929913E+04  0.10366084164E+04  0.00000000000E+00 0. -1.
         21    1    1    2  504  503 -0.68333581290E+01 -0.67687110236E+02 -0.10728127703E+04  0.10749676645E+04  0.00000000000E+00 0. -1.
         21    1    1    2  505  501 -0.21607504627E+02  0.26318311592E+02 -0.66006376253E+02  0.74272333256E+02  0.00000000000E+00 0.  1.
         -1    1    1    2    0  502  0.23669602287E+03  0.12891357871E+03 -0.85124414483E+02  0.28264798595E+03  0.00000000000E+00 0. -1.
<scales pt_clust_3="257.43786" pt_clust_4="67.80115" pt_clust_5="34.05199" pt_clust_6="14000.00000"></scales>
<clustering>
<clus scale="   34.052">  1  5  2 -1</clus>
<clus scale="   67.801">  2  4  1 -1</clus>
<clus scale="  257.438">  2  3  1 -1</clus>
<clus scale="   67.801">  2  3  1 -1</clus>
</clustering>
</event>
<event>
 6    0  0.4945982E+002  0.6838108E+02  0.7546771E-02  0.1365686E+00
         21   -1    0    0  504  502  0.00000000000E+00  0.00000000000E+00  0.10010941155E+02  0.10010941155E+02  0.00000000000E+00 0.  1.
          2   -1    0    0  505    0 -0.00000000000E+00 -0.00000000000E+00 -0.25896041094E+04  0.25896041094E+04  0.00000000000E+00 0. -1.
         21    1    1    2  503  502 -0.51436850907E+02  0.56459638555E+02 -0.51193583330E+03  0.51760191058E+03  0.00000000000E+00 0.  1.
         21    1    1    2  504  501  0.47936725160E+02 -0.26671408945E+00 -0.10622715264E+03  0.11654273342E+03  0.00000000000E+00 0.  1.
         21    1    1    2  505  503  0.21953901806E+01  0.34829709693E+02 -0.56222190754E+03  0.56330400472E+03  0.00000000000E+00 0.  1.
          2    1    1    2  501    0  0.13047355658E+01 -0.91022634159E+02 -0.13992082747E+04  0.14021664018E+04  0.00000000000E+00 0. -1.
<scales pt_clust_3="14000.00000" pt_clust_4="48.08560" pt_clust_5="34.89883" pt_clust_6="68.38108"></scales>
<clustering>
<clus scale="   34.899">  2  5  1 -1</clus>
<clus scale="   48.086">  1  4  2 -1</clus>
<clus scale="   68.381">  2  6  1 -1</clus>
<clus scale="   48.086">  1  3  2 -1</clus>
</clustering>
</event>
<event>
 6    0  0.4945982E+002  0.1366948E+03  0.7546771E-02  0.1217847E+00
          2   -1    0    0  503    0 -0.00000000000E+00  0.00000000000E+00  0.68058351829E+03  0.68058351829E+03  0.00000000000E+00 0.  1.
         21   -1    0    0  504  502  0.00000000000E+00 -0.00000000000E+00 -0.42383904276E+03  0.42383904276E+03  0.00000000000E+00 0. -1.
         21    1    1    2  503  502 -0.40149459548E+02 -0.16073358980E+03  0.40000661804E+03  0.43295791998E+03  0.00000000000E+00 0.  1.
         21    1    1    2  504  505  0.41326275782E+02  0.45366043286E+02 -0.30518180897E+03  0.31129066077E+03  0.00000000000E+00 0. -1.
         21    1    1    2  505  501 -0.73217808659E+02  0.93690538373E+02 -0.54683371557E+02  0.13087794165E+03  0.00000000000E+00 0. -1.
          2    1    1    2  501    0  0.72040992425E+02  0.21677008138E+02  0.21660303801E+03  0.22929603867E+03  0.00000000000E+00 0.  1.
<scales pt_clust_3="136.69481" pt_clust_4="61.36725" pt_clust_5="14000.00000" pt_clust_6="78.14098"></scales>
<clustering>
<clus scale="   61.367">  2  4  1 -1</clus>
<clus scale="   78.141">  1  6  2 -1</clus>
<clus scale="  136.695">  1  3  2 -1</clus>
<clus scale="   61.367">  2  3  1 -1</clus>
</clustering>
</event>
<event>
 6    0  0.4945982E+002  0.1787861E+03  0.7546771E-02  0.1168983E+00
          1   -1    0    0  503    0 -0.00000000000E+00  0.00000000000E+00  0.74450095170E+03  0.74450095170E+03  0.00000000000E+00 0.  1.
         21   -1    0    0  505  502  0.00000000000E+00 -0.00000000000E+00 -0.30086826069E+03  0.30086826069E+03  0.00000000000E+00 0.  1.
         21    1    1    2  503  504  0.68756796438E+02  0.17071423878E+03 -0.62787673788E+02  0.19445601137E+03  0.00000000000E+00 0.  1.
         21    1    1    2  504  502 -0.41467457824E+02 -0.17345415409E+03 -0.63170548090E+02  0.18919939687E+03  0.00000000000E+00 0.  1.
         21    1    1    2  505  501 -0.29421938735E+02  0.35982773823E+02 -0.33758180988E+02  0.57445846451E+02  0.00000000000E+00 0.  1.
          1    1    1    2  501    0  0.21326001210E+01 -0.33242858508E+02  0.60334909388E+03  0.60426795770E+03  0.00000000000E+00 0.  1.
<scales pt_clust_3="178.78611" pt_clust_4="14000.00000" pt_clust_5="44.23027" pt_clust_6="33.31119"></scales>
<clustering>
<clus scale="   33.311">  1  6  2 -1</clus>
<clus scale="   44.230">  2  5  1 -1</clus>
<clus scale="  178.786">  1  3  2 -1</clus>
<clus scale="   44.230">  2  3  1 -1</clus>
</clustering>
</event>
<event>
 6    0  0.4945982E+002  0.2091176E+03  0.7546771E-02  0.1142267E+00
          4   -1    0    0  505    0 -0.00000000000E+00  0.00000000000E+00  0.13469714688E+04  0.13469714688E+04  0.00000000000E+00 0.  1.
         21   -1    0    0  504  502  0.00000000000E+00 -0.00000000000E+00 -0.19406596085E+03  0.19406596085E+03  0.00000000000E+00 0.  1.
         21    1    1    2  503  501  0.10096439838E+02  0.14038929911E+03 -0.60042051773E+02  0.15302333608E+03  0.00000000000E+00 0.  1.
         21    1    1    2  504  503 -0.53940385874E+02  0.75464645510E+02  0.29184886359E+02  0.97243177354E+02  0.00000000000E+00 0.  1.
         21    1    1    2  505  502  0.35911771025E+02 -0.77075603335E+00 -0.36772086655E+02  0.51404627418E+02  0.00000000000E+00 0.  1.
          4    1    1    2  501    0  0.79321750104E+01 -0.21508318859E+03  0.12205347600E+04  0.12393662888E+04  0.00000000000E+00 0.  1.
<scales pt_clust_3="14000.00000" pt_clust_4="88.12192" pt_clust_5="35.92004" pt_clust_6="209.11762"></scales>
<clustering>
<clus scale="   35.920">  2  5  1 -1</clus>
<clus scale="   88.122">  2  4  1 -1</clus>
<clus scale="  209.118">  1  6  2 -1</clus>
<clus scale="   35.920">  2  3  1 -1</clus>
</clustering>
</event>
<event>
 6    0  0.4945982E+002  0.1453066E+03  0.7546771E-02  0.1206362E+00
         -3   -1    0    0    0  501 -0.00000000000E+00  0.00000000000E+00  0.26453832385E+04  0.26453832385E+04  0.00000000000E+00 0. -1.
         21   -1    0    0  504  502  0.00000000000E+00 -0.00000000000E+00 -0.31992274309E+02  0.31992274309E+02  0.00000000000E+00 0. -1.
         21    1    1    2  503  502  0.65138538553E+02 -0.43733133854E+02  0.74431402771E+03  0.74843769818E+03  0.00000000000E+00 0. -1.
         21    1    1    2  504  505 -0.75261914925E+02  0.11603945255E+03  0.16899087449E+03  0.21837450869E+03  0.00000000000E+00 0. -1.
         21    1    1    2  505  501 -0.68660297454E+02 -0.48525574405E+02  0.45105544334E+03  0.45882456428E+03  0.00000000000E+00 0. -1.
         -3    1    1    2    0  503  0.78783673827E+02 -0.23780744288E+02  0.12490306186E+04  0.12517387416E+04  0.00000000000E+00 0. -1.
<scales pt_clust_3="43.78832" pt_clust_4="138.21300" pt_clust_5="84.07715" pt_clust_6="43.78832"></scales>
<clustering>
<clus scale="   43.788">  3  6 -1 -1</clus>
<clus scale="   84.077">  1  5  2 -1</clus>
<clus scale="  138.213">  2  4  1 -1</clus>
<clus scale="  138.213">  2  3  1 -1</clus>
</clustering>
</event>
<event>
 6    0  0.4945982E+002  0.6991570E+02  0.7546771E-02  0.1360380E+00
         -1   -1    0    0    0  501 -0.00000000000E+00  0.00000000000E+00  0.61954801404E+03  0.61954801404E+03  0.00000000000E+00 0.  1.
         21   -1    0    0  505  502  0.00000000000E+00 -0.00000000000E+00 -0.52034052304E+02  0.52034052304E+02  0.00000000000E+00 0.  1.
         21    1    1    2  503  501 -0.35423857653E+02  0.50545162422E+01  0.18734518887E+03  0.19073179499E+03  0.00000000000E+00 0.  1.
         21    1    1    2  504  502 -0.41775418387E+01 -0.38091736892E+02  0.13394522531E+02  0.40593663411E+02  0.00000000000E+00 0.  1.
         21    1    1    2  505  503 -0.48930371877E+02  0.68807133587E+02  0.29042596088E+02  0.89286478887E+02  0.00000000000E+00 0.  1.
         -1    1    1    2    0  504  0.88531771368E+02 -0.35769912937E+02  0.33773165424E+03  0.35097012906E+03  0.00000000000E+00 0.  1.
<scales pt_clust_3="35.78265" pt_clust_4="38.31291" pt_clust_5="69.91570" pt_clust_6="14000.00000"></scales>
<clustering>
<clus scale="   35.783">  1  3  2 -1</clus>
<clus scale="   38.313">  2  4  1 -1</clus>
<clus scale="   69.916">  2  5  1 -1</clus>
<clus scale="   38.313">  2  3  1 -1</clus>
</clustering>
</event>
<event>
 6    0  0.7856371E+002  0.1022391E+03  0.7546771E-02  0.1275657E+00
         21   -1    0    0  503  502  0.00000000000E+00  0.00000000000E+00  0.88906505580E+02  0.88906505580E+02  0.00000000000E+00 0. -1.
          2   -1    0    0  504    0 -0.00000000000E+00 -0.00000000000E+00 -0.40484318165E+04  0.40484318165E+04  0.00000000000E+00 0.  1.
         21    1    1    2  503  501  0.44706633100E+02  0.10402777079E+03  0.42711738063E+02  0.12101550606E+03  0.00000000000E+00 0. -1.
         21    1    1    2  504  505 -0.14298416400E+02 -0.31213746822E+02 -0.13427870634E+03  0.13859838989E+03  0.00000000000E+00 0. -1.
         21    1    1    2  505  502 -0.41947872704E+02 -0.82197648565E+00 -0.92593119677E+02  0.10165522850E+03  0.00000000000E+00 0. -1.
          2    1    1    2  501    0  0.11539656005E+02 -0.71992047483E+02 -0.37753652229E+04  0.37760691976E+04  0.00000000000E+00 0.  1.
<scales pt_clust_3="14000.00000" pt_clust_4="34.33282" pt_clust_5="42.33299" pt_clust_6="102.23913"></scales>
<clustering>
<clus scale="   34.333">  2  4  1 -1</clus>
<clus scale="   42.333">  1  5  2 -1</clus>
<clus scale="  102.239">  2  6  1 -1</clus>
<clus scale="   42.333">  1  3  2 -1</clus>
</clustering>
</event>
<event>
 6    0  0.4945982E+002  0.1131372E+03  0.7546771E-02  0.1254868E+00
         21   -1    0    0  505  502  0.00000000000E+00  0.00000000000E+00  0.25763688665E+03  0.25763688665E+03  0.00000000000E+00 0. -1.
          1   -1    0    0  503    0 -0.00000000000E+00 -0.00000000000E+00 -0.11220302276E+04  0.11220302276E+04  0.00000000000E+00 0.  1.
         21    1    1    2  503  504  0.11183206323E+02  0.32256936227E+02 -0.48814359612E+02  0.59568580164E+02  0.00000000000E+00 0.  1.
         21    1    1    2  504  502  0.38655952401E+02  0.65197002705E+01  0.20590143140E+02  0.44280279382E+02  0.00000000000E+00 0.  1.
         21    1    1    2  505  501  0.69601265403E+02  0.30050256059E+02  0.20862332331E+03  0.22197082030E+03  0.00000000000E+00 0. -1.
          1    1    1    2  501    0 -0.11944042413E+03 -0.68826892557E+02 -0.10447924478E+04  0.10538474344E+04  0.00000000000E+00 0.  1.
<scales pt_clust_3="34.14050" pt_clust_4="39.38513" pt_clust_5="14000.00000" pt_clust_6="113.13721"></scales>
<clustering>
<clus scale="   34.141">  2  3  1 -1</clus>
<clus scale="   39.385">  1  4  2 -1</clus>
<clus scale="  113.137">  2  6  1 -1</clus>
<clus scale="   39.385">  1  3  2 -1</clus>
</clustering>
</event>
<event>
 6    0  0.4945982E+002  0.1150083E+03  0.7546771E-02  0.1251567E+00
         21   -1    0    0  504  502  0.00000000000E+00  0.00000000000E+00  0.14355576612E+03  0.14355576612E+03  0.00000000000E+00 0. -1.
          2   -1    0    0  503    0 -0.00000000000E+00 -0.00000000000E+00 -0.14533896081E+04  0.14533896081E+04  0.00000000000E+00 0.  1.
         21    1    1    2  503  502 -0.12758073982E+03 -0.10063388123E+03  0.26077222321E+02  0.16457230857E+03  0.00000000000E+00 0. -1.
         21    1    1    2  504  505  0.86668731845E+02  0.15716115851E+02 -0.72346439884E+01  0.88378761310E+02  0.00000000000E+00 0. -1.
         21    1    1    2  505  501  0.17254636589E+02  0.56363749234E+02 -0.11037646263E+03  0.12513016508E+03  0.00000000000E+00 0. -1.
          2    1    1    2  501    0  0.23657371387E+02  0.28554016143E+02 -0.12182999577E+04  0.12188641393E+04  0.00000000000E+00 0.  1.
<scales pt_clust_3="115.00830" pt_clust_4="14000.00000" pt_clust_5="76.44614" pt_clust_6="37.08103"></scales>
<clustering>
<clus scale="   37.081">  2  6  1 -1</clus>
<clus scale="   76.446">  2  5  1 -1</clus>
<clus scale="  115.008">  2  3  1 -1</clus>
<clus scale="  115.008">  1  3  2 -1</clus>
</clustering>
</event>
<event>
 6    0  0.4945982E+002  0.1273865E+03  0.7546771E-02  0.1231386E+00
          2   -1    0    0  503    0 -0.00000000000E+00  0.00000000000E+00  0.19628805494E+04  0.19628805494E+04  0.00000000000E+00 0.  1.
         21   -1    0    0  505  502  0.00000000000E+00 -0.00000000000E+00 -0.32288369793E+02  0.32288369793E+02  0.00000000000E+00 0.  1.
         21    1    1    2  503  504 -0.33936645791E+02 -0.53507121505E+01  0.87738089010E+03  0.87805327421E+03  0.00000000000E+00 0. -1.
         21    1    1    2  504  502 -0.85491615167E+02 -0.83726874566E+01  0.93196069744E+03  0.93591113880E+03  0.00000000000E+00 0.  1.
         21    1    1    2  505  501  0.27742748710E+02 -0.21295794954E+02  0.44578959121E+02  0.56660873493E+02  0.00000000000E+00 0.  1.
          2    1    1    2  501    0  0.91685512248E+02  0.35019194561E+02  0.76671632951E+02  0.12454363269E+03  0.00000000000E+00 0.  1.
<scales pt_clust_3="30.31948" pt_clust_4="30.31948" pt_clust_5="34.97386" pt_clust_6="118.02055"></scales>
<clustering>
<clus scale="   30.319">  3  4 -1 -1</clus>
<clus scale="   34.974">  2  5  1 -1</clus>
<clus scale="  118.021">  2  6  1 -1</clus>
<clus scale="   34.974">  2  3  1 -1</clus>
</clustering>
</event>
<event>
 6    0  0.4945982E+002  0.8424656E+02  0.7546771E-02  0.1317415E+00
         21   -1    0    0  505  502  0.00000000000E+00  0.00000000000E+00  0.26661828290E+02  0.26661828290E+02  0.00000000000E+00 0. -1.
          2   -1    0    0  504    0 -0.00000000000E+00 -0.00000000000E+00 -0.39231190001E+04  0.39231190001E+04  0.00000000000E+00 0. -1.
         21    1    1    2  503  501  0.42319124844E+02 -0.12359030494E+03 -0.59233521619E+03  0.60656943555E+03  0.00000000000E+00 0. -1.
         21    1    1    2  504  502  0.18405673262E+02  0.31414849103E+02 -0.26320458815E+01  0.36504646525E+02  0.00000000000E+00 0. -1.
         21    1    1    2  505  503 -0.30703426588E+02  0.17073160610E+02 -0.14551870172E+03  0.14969931786E+03  0.00000000000E+00 0. -1.
          2    1    1    2  501    0 -0.30021371518E+02  0.75102295222E+02 -0.31559712080E+04  0.31570074285E+04  0.00000000000E+00 0. -1.
<scales pt_clust_3="84.24656" pt_clust_4="43.27072" pt_clust_5="35.13109" pt_clust_6="14000.00000"></scales>
<clustering>
<clus scale="   35.131">  1  5  2 -1</clus>
<clus scale="   43.271">  1  4  2 -1</clus>
<clus scale="   84.247">  1  3  2 -1</clus>
<clus scale="   35.131">  1  3  2 -1</clus>
</clustering>
</event>
<event>
 6    0  0.4945982E+002  0.2644613E+03  0.7546771E-02  0.1104492E+00
          1   -1    0    0  504    0 -0.00000000000E+00  0.00000000000E+00  0.18976550278E+04  0.18976550278E+04  0.00000000000E+00 0.  1.
         21   -1    0    0  503  502  0.00000000000E+00 -0.00000000000E+00 -0.13376524565E+04  0.13376524565E+04  0.00000000000E+00 0. -1.
         21    1    1    2  503  501  0.10294329130E+03 -0.23828061108E+03  0.13190244022E+04  0.13443215182E+04  0.00000000000E+00 0.  1.
         21    1    1    2  504  505 -0.69165103723E+01  0.11062337037E+03  0.40266897222E+02  0.11792705881E+03  0.00000000000E+00 0.  1.
         21    1    1    2  505  502 -0.23123884262E+03  0.12955347379E+03 -0.12627522598E+04  0.12902708144E+04  0.00000000000E+00 0. -1.
          1    1    1    2  501    0  0.13521206169E+03 -0.18962330796E+01  0.46346353177E+03  0.48278809286E+03  0.00000000000E+00 0.  1.
<scales pt_clust_3="264.46130" pt_clust_4="110.83938" pt_clust_5="14000.00000" pt_clust_6="136.09440"></scales>
<clustering>
<clus scale="  110.839">  1  4  2 -1</clus>
<clus scale="  136.094">  1  6  2 -1</clus>
<clus scale="  264.461">  1  3  2 -1</clus>
<clus scale="  264.461">  2  3  1 -1</clus>
</clustering>
</event>
<event>
 6    0  0.4945982E+002  0.1207693E+03  0.7546771E-02  0.1241833E+00
         21   -1    0    0  503  502  0.00000000000E+00  0.00000000000E+00  0.55729892486E+03  0.55729892486E+03  0.00000000000E+00 0. -1.
          1   -1    0    0  504    0 -0.00000000000E+00 -0.00000000000E+00 -0.21662802316E+04  0.21662802316E+04  0.00000000000E+00 0. -1.
         21    1    1    2  503  505 -0.67554917035E+01  0.89112496523E+02 -0.65723962481E+01  0.89609542445E+02  0.00000000000E+00 0.  1.
         21    1    1    2  504  502 -0.17341420884E+03 -0.19775955739E+03  0.44797623705E+03  0.51948439758E+03  0.00000000000E+00 0. -1.
         21    1    1    2  505  501  0.85310209503E+02  0.34730202762E+02 -0.39854726644E+02  0.10036143714E+03  0.00000000000E+00 0. -1.
          1    1    1    2  501    0  0.94859491044E+02  0.73916858104E+02 -0.20105304209E+04  0.20141237793E+04  0.00000000000E+00 0. -1.
<scales pt_clust_3="89.36819" pt_clust_4="120.76927" pt_clust_5="93.84537" pt_clust_6="14000.00000"></scales>
<clustering>
<clus scale="   89.368">  1  3  2 -1</clus>
<clus scale="   93.845">  1  5  2 -1</clus>
<clus scale="  120.769">  1  4  2 -1</clus>
<clus scale="   89.368">  1  3  2 -1</clus>
</clustering>
</event>
<event>
 6    0  0.4945982E+002  0.1497516E+03  0.7546771E-02  0.1200779E+00
         21   -1    0    0  503  502  0.00000000000E+00  0.00000000000E+00  0.32305493664E+03  0.32305493664E+03  0.00000000000E+00 0.  1.
          4   -1    0    0  505    0 -0.00000000000E+00 -0.00000000000E+00 -0.28773645340E+03  0.28773645340E+03  0.00000000000E+00 0.  1.
         21    1    1    2  503  501 -0.79551574352E+02 -0.11024034284E+03  0.19850932977E+03  0.24059788066E+03  0.00000000000E+00 0.  1.
         21    1    1    2  504  502  0.58956544591E+02  0.10073537524E+03  0.35007094746E+02  0.12185641821E+03  0.00000000000E+00 0.  1.
         21    1    1    2  505  504  0.63644685948E+01  0.52065948656E+02 -0.81748677375E+01  0.53086702030E+02  0.00000000000E+00 0.  1.
          4    1    1    2  501    0  0.14230561166E+02 -0.42560981055E+02 -0.19002307354E+03  0.19525038914E+03  0.00000000000E+00 0.  1.
<scales pt_clust_3="141.97009" pt_clust_4="31.93983" pt_clust_5="31.93983" pt_clust_6="44.87701"></scales>
<clustering>
<clus scale="   31.940">  4  5 -1 -1</clus>
<clus scale="   44.877">  2  6  1 -1</clus>
<clus scale="  141.970">  1  3  2 -1</clus>
<clus scale="  141.970">  1  3  2 -1</clus>
</clustering>
</event>
<event>
 6    0  0.4945982E+002  0.8286104E+02  0.7546771E-02  0.1321123E+00
          1   -1    0    0  504    0 -0.00000000000E+00  0.00000000000E+00  0.44365397627E+03  0.44365397627E+03  0.00000000000E+00 0.  1.
         21   -1    0    0  505  502  0.00000000000E+00 -0.00000000000E+00 -0.28848089846E+04  0.28848089846E+04  0.00000000000E+00 0.  1.
         21    1    1    2  503  502  0.47941824492E+02 -0.61072237509E+02 -0.22701301661E+04  0.22714575073E+04  0.00000000000E+00 0.  1.
         21    1    1    2  504  503 -0.14354015076E+02 -0.60340101166E+02 -0.84680722107E+02  0.10496566226E+03  0.00000000000E+00 0. -1.
         21    1    1    2  505  501 -0.14275346138E+02  0.39626426990E+02 -0.51424407120E+03  0.51596608802E+03  0.00000000000E+00 0.  1.
          1    1    1    2  501    0 -0.19312463278E+02  0.81785911685E+02  0.42789995103E+03  0.43607370326E+03  0.00000000000E+00 0.  1.
<scales pt_clust_3="41.32200" pt_clust_4="14000.00000" pt_clust_5="42.11935" pt_clust_6="82.86104"></scales>
<clustering>
<clus scale="   42.119">  2  5  1 -1</clus>
<clus scale="   41.322">  2  3  1 -1</clus>
<clus scale="   82.861">  1  6  2 -1</clus>
<clus scale="   42.119">  2  3  1 -1</clus>
</clustering>
</event>
<event>
 6    0  0.4945982E+002  0.1549217E+03  0.7546771E-02  0.1194552E+00
         -2   -1    0    0    0  501 -0.00000000000E+00  0.00000000000E+00  0.90981428589E+03  0.90981428589E+03  0.00000000000E+00 0.  1.
         21   -1    0    0  503  502  0.00000000000E+00 -0.00000000000E+00 -0.79356137320E+02  0.79356137320E+02  0.00000000000E+00 0.  1.
         21    1    1    2  503  505  0.11475945149E+03  0.11744775400E+03  0.23556234214E+03  0.28714686776E+03  0.00000000000E+00 0.  1.
         21    1    1    2  504  502 -0.47703062179E+02 -0.28463893184E+02  0.17636122018E+02  0.58282142688E+02  0.00000000000E+00 0.  1.
         21    1    1    2  505  501 -0.35869166630E+02 -0.15635838500E+03  0.18654567884E+03  0.24603624117E+03  0.00000000000E+00 0.  1.
         -2    1    1    2    0  504 -0.31187222684E+02  0.67374524180E+02  0.39071400557E+03  0.39770517159E+03  0.00000000000E+00 0.  1.
<scales pt_clust_3="14000.00000" pt_clust_4="55.54976" pt_clust_5="154.92173" pt_clust_6="73.97204"></scales>
<clustering>
<clus scale="   55.550">  2  4  1 -1</clus>
<clus scale="   73.972">  1  6  2 -1</clus>
<clus scale="  154.922">  1  5  2 -1</clus>
<clus scale="   55.550">  2  3  1 -1</clus>
</clustering>
</event>
<event>
 6    0  0.4945982E+002  0.8801359E+02  0.7546771E-02  0.1307735E+00
          2   -1    0    0  503    0 -0.00000000000E+00  0.00000000000E+00  0.78020980509E+03  0.78020980509E+03  0.00000000000E+00 0.  1.
         21   -1    0    0  504  502  0.00000000000E+00 -0.00000000000E+00 -0.14726131481E+03  0.14726131481E+03  0.00000000000E+00 0.  1.
         21    1    1    2  503  505  0.27766670102E+02  0.17795887242E+02  0.63943203933E+02  0.71947306416E+02  0.00000000000E+00 0. -1.
         21    1    1    2  504  501 -0.10355038435E+03  0.57001903285E+02 -0.41101996823E+02  0.12514500877E+03  0.00000000000E+00 0.  1.
         21    1    1    2  505  502  0.57619482192E+02 -0.44071972421E+02 -0.37587220823E+02  0.81701546194E+02  0.00000000000E+00 0.  1.
          2    1    1    2  501    0  0.18164232061E+02 -0.30725818106E+02  0.64769450399E+03  0.64867725852E+03  0.00000000000E+00 0.  1.
<scales pt_clust_3="32.98002" pt_clust_4="14000.00000" pt_clust_5="88.01359" pt_clust_6="45.79916"></scales>
<clustering>
<clus scale="   32.980">  1  3  2 -1</clus>
<clus scale="   45.799">  1  6  2 -1</clus>
<clus scale="   88.014">  2  5  1 -1</clus>
<clus scale="   88.014">  2  3  1 -1</clus>
</clustering>
</event>
<event>
 6    0  0.4945982E+002  0.1101255E+03  0.7546771E-02  0.1260338E+00
         21   -1    0    0  504  502  0.00000000000E+00  0.00000000000E+00  0.49525105892E+03  0.49525105892E+03  0.00000000000E+00 0.  1.
          2   -1    0    0  503    0 -0.00000000000E+00 -0.00000000000E+00 -0.12490540640E+04  0.12490540640E+04  0.00000000000E+00 0. -1.
         21    1    1    2  503  505  0.13517943159E+02  0.51370488564E+02  0.39207419879E+03  0.39565621345E+03  0.00000000000E+00 0.  1.
         21    1    1    2  504  501  0.44507836638E+02 -0.85508186246E+01  0.25895232363E+02  0.52197960502E+02  0.00000000000E+00 0.  1.
         21    1    1    2  505  502  0.88660490851E+01  0.45148018009E+02  0.51004268999E+02  0.68690507442E+02  0.00000000000E+00 0.  1.
          2    1    1    2  501    0 -0.66891828882E+02 -0.87967687948E+02 -0.12227767053E+04  0.12277604416E+04  0.00000000000E+00 0. -1.
<scales pt_clust_3="110.12549" pt_clust_4="45.32178" pt_clust_5="46.41708" pt_clust_6="14000.00000"></scales>
<clustering>
<clus scale="   45.322">  1  4  2 -1</clus>
<clus scale="   46.417">  1  5  2 -1</clus>
<clus scale="  110.125">  1  3  2 -1</clus>
<clus scale="   45.322">  1  3  2 -1</clus>
</clustering>
</event>
<event>
 6    0  0.4945982E+002  0.1244783E+03  0.7546771E-02  0.1235887E+00
         -1   -1    0    0    0  501 -0.00000000000E+00  0.00000000000E+00  0.29515724100E+03  0.29515724100E+03  0.00000000000E+00 0. -1.
         21   -1    0    0  503  502  0.00000000000E+00 -0.00000000000E+00 -0.13252530667E+03  0.13252530667E+03  0.00000000000E+00 0.  1.
         21    1    1    2  503  501  0.68747383387E+02  0.13955188279E+03  0.94199061940E+00  0.15556933521E+03  0.00000000000E+00 0.  1.
         21    1    1    2  504  505 -0.93949715957E+02 -0.52439342836E+02  0.96708901105E+02  0.14466874354E+03  0.00000000000E+00 0. -1.
         21    1    1    2  505  502  0.19464694557E+02 -0.44921237438E+02 -0.94185043028E+00  0.48966100410E+02  0.00000000000E+00 0.  1.
         -1    1    1    2    0  504  0.57376380133E+01 -0.42191302514E+02  0.65922893029E+02  0.78478368505E+02  0.00000000000E+00 0. -1.
<scales pt_clust_3="124.47830" pt_clust_4="14000.00000" pt_clust_5="53.38648" pt_clust_6="42.57965"></scales>
<clustering>
<clus scale="   42.580">  1  6  2 -1</clus>
<clus scale="   53.386">  2  5  1 -1</clus>
<clus scale="  124.478">  2  3  1 -1</clus>
<clus scale="   53.386">  2  3  1 -1</clus>
</clustering>
</event>
<event>
 6    0  0.4945982E+002  0.1113871E+03  0.7546771E-02  0.1258023E+00
         21   -1    0    0  503  502  0.00000000000E+00  0.00000000000E+00  0.72941949179E+03  0.72941949179E+03  0.00000000000E+00 0.  1.
          1   -1    0    0  502    0 -0.00000000000E+00 -0.00000000000E+00 -0.97744914045E+03  0.97744914045E+03  0.00000000000E+00 0.  1.
         21    1    1    2  503  504 -0.29058571772E+02 -0.30489456286E+02  0.49487111291E+03  0.49666027215E+03  0.00000000000E+00 0.  1.
         21    1    1    2  504  505  0.12206278886E+03 -0.39089904145E+02  0.19777439297E+03  0.23567362081E+03  0.00000000000E+00 0.  1.
         21    1    1    2  505  501 -0.51482974287E+02  0.66155654295E+02 -0.90572082984E+02  0.12341138299E+03  0.00000000000E+00 0. -1.
          1    1    1    2  501    0 -0.41521242803E+02  0.34237061363E+01 -0.85010307155E+03  0.85112335629E+03  0.00000000000E+00 0.  1.
<scales pt_clust_3="42.30415" pt_clust_4="111.38711" pt_clust_5="14000.00000" pt_clust_6="41.66216"></scales>
<clustering>
<clus scale="   41.662">  2  6  1 -1</clus>
<clus scale="   42.304">  1  3  2 -1</clus>
<clus scale="  111.387">  1  4  2 -1</clus>
<clus scale="   42.304">  1  3  2 -1</clus>
</clustering>
</event>
<event>
 6    0  0.4945982E+002  0.8153650E+02  0.7546771E-02  0.1324747E+00
         -2   -1    0    0    0  501 -0.00000000000E+00  0.00000000000E+00  0.52217754484E+02  0.52217754484E+02  0.00000000000E+00 0.  1.
         21   -1    0    0  504  502  0.00000000000E+00 -0.00000000000E+00 -0.99592764454E+03  0.99592764454E+03  0.00000000000E+00 0. -1.
         21    1    1    2  503  505  0.39966819907E+02  0.27460213221E+02 -0.21739491110E+03  0.22273741800E+03  0.00000000000E+00 0. -1.
         21    1    1    2  504  503 -0.38638568233E+02  0.20974936957E+02 -0.21333003480E+03  0.21781320135E+03  0.00000000000E+00 0. -1.
         21    1    1    2  505  501 -0.62805018984E+02 -0.98555413389E+02 -0.51515697791E+03  0.52824648774E+03  0.00000000000E+00 0. -1.
         -2    1    1    2    0  502  0.61476767310E+02  0.50120263210E+02  0.21720337521E+01  0.79348291940E+02  0.00000000000E+00 0.  1.
<scales pt_clust_3="44.26062" pt_clust_4="43.96461" pt_clust_5="81.53650" pt_clust_6="14000.00000"></scales>
<clustering>
<clus scale="   43.965">  2  4  1 -1</clus>
<clus scale="   44.261">  2  3  1 -1</clus>
<clus scale="   81.537">  2  5  1 -1</clus>
<clus scale="   43.965">  2  3  1 -1</clus>
</clustering>
</event>
<event>
 6    0  0.4945982E+002  0.1450390E+03  0.7546771E-02  0.1206705E+00
          4   -1    0    0  505    0 -0.00000000000E+00  0.00000000000E+00  0.20876634954E+03  0.20876634954E+03  0.00000000000E+00 0. -1.
         21   -1    0    0  504  502  0.00000000000E+00 -0.00000000000E+00 -0.30076148212E+04  0.30076148212E+04  0.00000000000E+00 0. -1.
         21    1    1    2  503  502 -0.95626567541E+01 -0.42362474270E+02 -0.22467006987E+04  0.22471203914E+04  0.00000000000E+00 0. -1.
         21    1    1    2  504  501 -0.10115894350E+03  0.13312256808E+03 -0.66594530680E+03  0.68661335672E+03  0.00000000000E+00 0.  1.
         21    1    1    2  505  503  0.56903012979E+02  0.56845608251E+02  0.94905957367E+02  0.12440464946E+03  0.00000000000E+00 0. -1.
          4    1    1    2  501    0  0.53818587276E+02 -0.14760570206E+03  0.18891576464E+02  0.15824277323E+03  0.00000000000E+00 0. -1.
<scales pt_clust_3="43.42837" pt_clust_4="14000.00000" pt_clust_5="79.72203" pt_clust_6="145.03898"></scales>
<clustering>
<clus scale="   43.428">  2  3  1 -1</clus>
<clus scale="   79.722">  1  5  2 -1</clus>
<clus scale="  145.039">  1  6  2 -1</clus>
<clus scale="   43.428">  2  3  1 -1</clus>
</clustering>
</event>
<event>
 6    0  0.1173730E+003  0.1207667E+03  0.7546771E-02  0.1241838E+00
          2   -1    0    0  503    0 -0.00000000000E+00  0.00000000000E+00  0.22389760116E+04  0.22389760116E+04  0.00000000000E+00 0.  1.
         21   -1    0    0  505  502  0.00000000000E+00 -0.00000000000E+00 -0.37372854474E+03  0.37372854474E+03  0.00000000000E+00 0. -1.
         21    1    1    2  503  502 -0.79198786220E+01  0.10984639946E+03 -0.31562357262E+03  0.33428609835E+03  0.00000000000E+00 0. -1.
         21    1    1    2  504  501 -0.16001375070E+02 -0.67888375180E+02  0.11006692334E+03  0.13030580609E+03  0.00000000000E+00 0.  1.
         21    1    1    2  505  504  0.23790131322E+02  0.18886956969E+02 -0.32177977158E+02  0.44250533396E+02  0.00000000000E+00 0. -1.
          2    1    1    2  501    0  0.13112237011E+00 -0.60844981250E+02  0.21029820933E+04  0.21038621185E+04  0.00000000000E+00 0.  1.
<scales pt_clust_3="14000.00000" pt_clust_4="120.76672" pt_clust_5="30.37577" pt_clust_6="60.82043"></scales>
<clustering>
<clus scale="   30.376">  2  5  1 -1</clus>
<clus scale="   60.820">  1  6  2 -1</clus>
<clus scale="  120.767">  1  4  2 -1</clus>
<clus scale="   30.376">  2  3  1 -1</clus>
</clustering>
</event>
<event>
 6    0  0.4945982E+002  0.9324327E+02  0.7546771E-02  0.1295182E+00
         21   -1    0    0  503  502  0.00000000000E+00  0.00000000000E+00  0.19302187807E+03  0.19302187807E+03  0.00000000000E+00 0.  1.
          2   -1    0    0  505    0 -0.00000000000E+00 -0.00000000000E+00 -0.27166476727E+03  0.27166476727E+03  0.00000000000E+00 0. -1.
         21    1    1    2  503  501 -0.96103446278E+02 -0.21963147347E+02  0.80149829666E+02  0.12705214451E+03  0.00000000000E+00 0.  1.
         21    1    1    2  504  502  0.75759222924E+02  0.46761004802E+02  0.32882419825E+02  0.94906822525E+02  0.00000000000E+00 0. -1.
         21    1    1    2  505  504 -0.26144113725E+02 -0.48515862191E+02 -0.13051608501E+02  0.56636102011E+02  0.00000000000E+00 0.  1.
          2    1    1    2  501    0  0.46488337079E+02  0.23718004736E+02 -0.17862353019E+03  0.18609157630E+03  0.00000000000E+00 0. -1.
<scales pt_clust_3="14000.00000" pt_clust_4="93.24327" pt_clust_5="40.07013" pt_clust_6="52.18917"></scales>
<clustering>
<clus scale="   52.189">  2  6  1 -1</clus>
<clus scale="   40.070">  2  5  1 -1</clus>
<clus scale="   93.243">  2  4  1 -1</clus>
<clus scale="   93.243">  1  3  2 -1</clus>
</clustering>
</event>
<event>
 6    0  0.4945982E+002  0.8550960E+02  0.7546771E-02  0.1314105E+00
         21   -1    0    0  503  502  0.00000000000E+00  0.00000000000E+00  0.13358526451E+04  0.13358526451E+04  0.00000000000E+00 0. -1.
          1   -1    0    0  504    0 -0.00000000000E+00 -0.00000000000E+00 -0.97727370177E+03  0.97727370177E+03  0.00000000000E+00 0. -1.
         21    1    1    2  503  501 -0.10579485683E+03 -0.12658459949E+03  0.10633049971E+04  0.10760268256E+04  0.00000000000E+00 0. -1.
         21    1    1    2  504  505  0.51507519319E+02  0.41507541751E+02  0.76723581859E+02  0.10130354674E+03  0.00000000000E+00 0. -1.
         21    1    1    2  505  502 -0.23479593822E+02  0.49793804713E+02  0.17093960800E+03  0.17958581207E+03  0.00000000000E+00 0. -1.
          1    1    1    2  501    0  0.77766931336E+02  0.35283253022E+02 -0.95238924359E+03  0.95621016249E+03  0.00000000000E+00 0. -1.
<scales pt_clust_3="85.50960" pt_clust_4="67.27001" pt_clust_5="55.05192" pt_clust_6="14000.00000"></scales>
<clustering>
<clus scale="   55.052">  1  5  2 -1</clus>
<clus scale="   67.270">  1  4  2 -1</clus>
<clus scale="   85.510">  1  3  2 -1</clus>
<clus scale="   55.052">  1  3  2 -1</clus>
</clustering>
</event>
<event>
 6    0  0.4945982E+002  0.9946088E+02  0.7546771E-02  0.1281434E+00
          2   -1    0    0  503    0 -0.00000000000E+00  0.00000000000E+00  0.37911755632E+03  0.37911755632E+03  0.00000000000E+00 0.  1.
         21   -1    0    0  501  502  0.00000000000E+00 -0.00000000000E+00 -0.49149223159E+03  0.49149223159E+03  0.00000000000E+00 0.  1.
         21    1    1    2  503  505 -0.63118779854E+02 -0.50174221787E+02 -0.13237537150E+03  0.15499894155E+03  0.00000000000E+00 0.  1.
         21    1    1    2  504  502  0.91811296109E+01  0.51223003270E+02 -0.79793906901E+02  0.95263617312E+02  0.00000000000E+00 0.  1.
         21    1    1    2  505  504 -0.30888706506E+02 -0.54776637414E+02 -0.24929480479E+03  0.25710404876E+03  0.00000000000E+00 0.  1.
          2    1    1    2  501    0  0.84826356748E+02  0.53727855931E+02  0.34908940792E+03  0.36324318028E+03  0.00000000000E+00 0.  1.
<scales pt_clust_3="99.46088" pt_clust_4="52.03930" pt_clust_5="33.84792" pt_clust_6="14000.00000"></scales>
<clustering>
<clus scale="   52.039">  2  4  1 -1</clus>
<clus scale="   33.848">  2  5  1 -1</clus>
<clus scale="   99.461">  2  3  1 -1</clus>
<clus scale="   52.039">  2  3  1 -1</clus>
</clustering>
</event>
<event>
 6    0  0.4945982E+002  0.9239085E+02  0.7546771E-02  0.1297163E+00
          1   -1    0    0  505    0 -0.00000000000E+00  0.00000000000E+00  0.12945244388E+04  0.12945244388E+04  0.00000000000E+00 0. -1.
         21   -1    0    0  501  502  0.00000000000E+00 -0.00000000000E+00 -0.15016136692E+02  0.15016136692E+02  0.00000000000E+00 0. -1.
         21    1    1    2  503  504  0.69477886369E+01  0.41741875752E+02  0.12324250488E+03  0.13030491537E+03  0.00000000000E+00 0. -1.
         21    1    1    2  504  502 -0.26564267024E+02  0.29711475780E+02  0.76791198332E+02  0.86517745098E+02  0.00000000000E+00 0. -1.
         21    1    1    2  505  503 -0.29203639218E+02  0.39072353922E+02  0.31180654578E+03  0.31559914983E+03  0.00000000000E+00 0. -1.
          1    1    1    2  501    0  0.48820117605E+02 -0.11052570545E+03  0.76766805311E+03  0.77711876520E+03  0.00000000000E+00 0. -1.
<scales pt_clust_3="37.68930" pt_clust_4="37.68930" pt_clust_5="48.78013" pt_clust_6="83.83241"></scales>
<clustering>
<clus scale="   37.689">  3  4 -1 -1</clus>
<clus scale="   48.780">  1  5  2 -1</clus>
<clus scale="   83.832">  1  6  2 -1</clus>
<clus scale="   92.391">  2  3  1 -1</clus>
</clustering>
</event>
<event>
 6    0  0.4945982E+002  0.1145057E+03  0.7546771E-02  0.1252446E+00
         21   -1    0    0  504  502  0.00000000000E+00  0.00000000000E+00  0.12880222283E+03  0.12880222283E+03  0.00000000000E+00 0.  1.
          1   -1    0    0  505    0 -0.00000000000E+00 -0.00000000000E+00 -0.30959438732E+04  0.30959438732E+04  0.00000000000E+00 0. -1.
         21    1    1    2  503  501 -0.11443079884E+03  0.13662701538E+03 -0.88829363136E+03  0.90599499147E+03  0.00000000000E+00 0. -1.
         21    1    1    2  504  503  0.42531212504E+02 -0.10448222038E+03  0.88581143719E+02  0.14342962537E+03  0.00000000000E+00 0.  1.
         21    1    1    2  505  502  0.47955953942E+02 -0.94855537407E+01 -0.15294283347E+03  0.16056543700E+03  0.00000000000E+00 0.  1.
          1    1    1    2  501    0  0.23943632390E+02 -0.22659241262E+02 -0.20144863292E+04  0.20147560421E+04  0.00000000000E+00 0. -1.
<scales pt_clust_3="114.50566" pt_clust_4="14000.00000" pt_clust_5="52.98880" pt_clust_6="32.96572"></scales>
<clustering>
<clus scale="   32.966">  2  6  1 -1</clus>
<clus scale="   52.989">  2  5  1 -1</clus>
<clus scale="  114.506">  2  3  1 -1</clus>
<clus scale="  114.506">  1  3  2 -1</clus>
</clustering>
</event>
<event>
 6    0  0.4945982E+002  0.1589090E+03  0.7546771E-02  0.1189934E+00
         21   -1    0    0  501  502  0.00000000000E+00  0.00000000000E+00  0.65371807453E+03  0.65371807453E+03  0.00000000000E+00 0. -1.
         -3   -1    0    0    0  501 -0.00000000000E+00 -0.00000000000E+00 -0.23480326492E+03  0.23480326492E+03  0.00000000000E+00 0.  1.
         21    1    1    2  503  504 -0.50474027717E+00 -0.62493349587E+02 -0.82208727919E+01  0.63033770749E+02  0.00000000000E+00 0. -1.
         21    1    1    2  504  505  0.31607280936E+02 -0.10372526041E+03  0.49313118588E+02  0.11912066790E+03  0.00000000000E+00 0. -1.
         21    1    1    2  505  502  0.12603627256E+02  0.28777635682E+02  0.50986262516E+03  0.51082961961E+03  0.00000000000E+00 0. -1.
         -3    1    1    2    0  503 -0.43706167915E+02  0.13744097431E+03 -0.13204006134E+03  0.19553728119E+03  0.00000000000E+00 0.  1.
<scales pt_clust_3="41.65095" pt_clust_4="41.65095" pt_clust_5="31.41662" pt_clust_6="149.52054"></scales>
<clustering>
<clus scale="   31.417">  1  5  2 -1</clus>
<clus scale="   41.651">  3  4 -1 -1</clus>
<clus scale="  149.521">  2  6  1 -1</clus>
<clus scale="   31.417">  1  3  2 -1</clus>
</clustering>
</event>
<event>
 6    0  0.4945982E+002  0.1004989E+03  0.7546771E-02  0.1279250E+00
         21   -1    0    0  505  502  0.00000000000E+00  0.00000000000E+00  0.28959998156E+03  0.28959998156E+03  0.00000000000E+00 0.  1.
          1   -1    0    0  503    0 -0.00000000000E+00 -0.00000000000E+00 -0.39402781007E+03  0.39402781007E+03  0.00000000000E+00 0.  1.
         21    1    1    2  503  504 -0.85376085215E+02  0.46402741151E+02  0.20891768343E+02  0.99391932758E+02  0.00000000000E+00 0.  1.
         21    1    1    2  504  502 -0.43957178479E+02 -0.23337139356E+02 -0.25972745758E+02  0.56137680174E+02  0.00000000000E+00 0.  1.
         21    1    1    2  505  501  0.28189962890E+02 -0.11370075741E+02  0.20496411970E+03  0.20720579865E+03  0.00000000000E+00 0.  1.
          1    1    1    2  501    0  0.10114330080E+03 -0.11695526054E+02 -0.30431097080E+03  0.32089238005E+03  0.00000000000E+00 0.  1.
<scales pt_clust_3="14000.00000" pt_clust_4="46.42477" pt_clust_5="30.39659" pt_clust_6="100.49888"></scales>
<clustering>
<clus scale="   30.397">  1  5  2 -1</clus>
<clus scale="   46.425">  1  4  2 -1</clus>
<clus scale="  100.499">  2  6  1 -1</clus>
<clus scale="   30.397">  1  3  2 -1</clus>
</clustering>
</event>
<event>
 6    0  0.4945982E+002  0.1077542E+03  0.7546771E-02  0.1264786E+00
         21   -1    0    0  505  502  0.00000000000E+00  0.00000000000E+00  0.15948585851E+04  0.15948585851E+04  0.00000000000E+00 0.  1.
          2   -1    0    0  503    0 -0.00000000000E+00 -0.00000000000E+00 -0.23529762973E+04  0.23529762973E+04  0.00000000000E+00 0.  1.
         21    1    1    2  503  504 -0.43179238054E+02 -0.10724970007E+03  0.99773442919E+02  0.15271438923E+03  0.00000000000E+00 0. -1.
         21    1    1    2  504  502  0.79972385264E+02  0.72543193235E+02  0.14514240013E+04  0.14554345498E+04  0.00000000000E+00 0.  1.
         21    1    1    2  505  501 -0.42250902614E+02 -0.53648411772E+01 -0.15210364418E+02  0.45224721982E+02  0.00000000000E+00 0. -1.
          2    1    1    2  501    0  0.54577554043E+01  0.40071348017E+02 -0.22941047919E+04  0.22944612214E+04  0.00000000000E+00 0.  1.
<scales pt_clust_3="107.75420" pt_clust_4="14000.00000" pt_clust_5="42.29218" pt_clust_6="40.44132"></scales>
<clustering>
<clus scale="   40.441">  2  6  1 -1</clus>
<clus scale="   42.292">  2  5  1 -1</clus>
<clus scale="  107.754">  2  3  1 -1</clus>
<clus scale="  107.754">  1  3  2 -1</clus>
</clustering>
</event>
<event>
 6    0  0.4945982E+002  0.1821883E+03  0.7546771E-02  0.1165702E+00
          2   -1    0    0  504    0 -0.00000000000E+00  0.00000000000E+00  0.27933258931E+03  0.27933258931E+03  0.00000000000E+00 0. -1.
         21   -1    0    0  501  502  0.00000000000E+00 -0.00000000000E+00 -0.17073047822E+03  0.17073047822E+03  0.00000000000E+00 0. -1.
         21    1    1    2  503  505  0.61203342321E+02 -0.26071441073E+02  0.18304064582E+02  0.68997158863E+02  0.00000000000E+00 0. -1.
         21    1    1    2  504  503  0.12508053956E+03 -0.27613606133E+01  0.99580371529E+02  0.15990314844E+03  0.00000000000E+00 0. -1.
         21    1    1    2  505  502 -0.28388965538E+02  0.23832579895E+02 -0.45902542048E+02  0.58999733857E+02  0.00000000000E+00 0. -1.
          2    1    1    2  501    0 -0.15789491634E+03  0.50002217922E+01  0.36620217032E+02  0.16216302637E+03  0.00000000000E+00 0. -1.
<scales pt_clust_3="38.51624" pt_clust_4="38.51624" pt_clust_5="37.06650" pt_clust_6="173.85912"></scales>
<clustering>
<clus scale="   37.066">  2  5  1 -1</clus>
<clus scale="   38.516">  3  4 -1 -1</clus>
<clus scale="  173.859">  2  6  1 -1</clus>
<clus scale="   37.066">  2  3  1 -1</clus>
</clustering>
</event>
<event>
 6    0  0.4945982E+002  0.1151902E+03  0.7546771E-02  0.1251249E+00
          2   -1    0    0  504    0 -0.00000000000E+00  0.00000000000E+00  0.10081641382E+04  0.10081641382E+04  0.00000000000E+00 0.  1.
         21   -1    0    0  503  502  0.00000000000E+00 -0.00000000000E+00 -0.14158080679E+04  0.14158080679E+04  0.00000000000E+00 0.  1.
         21    1    1    2  503  501  0.66102810833E+02 -0.15318082304E+02 -0.29930366512E+03  0.30689885826E+03  0.00000000000E+00 0. -1.
         21    1    1    2  504  505 -0.12813960429E+03  0.72373434322E+02 -0.74144571936E+03  0.75590966851E+03  0.00000000000E+00 0.  1.
         21    1    1    2  505  502 -0.13733730675E+02  0.29566796925E+02 -0.35996938151E+03  0.36144261849E+03  0.00000000000E+00 0. -1.
          2    1    1    2  501    0  0.75770524135E+02 -0.86622148943E+02  0.99307483625E+03  0.99972106080E+03  0.00000000000E+00 0.  1.
<scales pt_clust_3="62.53100" pt_clust_4="115.19022" pt_clust_5="32.60078" pt_clust_6="14000.00000"></scales>
<clustering>
<clus scale="   32.601">  2  5  1 -1</clus>
<clus scale="   62.531">  2  3  1 -1</clus>
<clus scale="  115.190">  2  4  1 -1</clus>
<clus scale="   32.601">  2  3  1 -1</clus>
</clustering>
</event>
<event>
 6    0  0.4945982E+002  0.1141488E+03  0.7546771E-02  0.1253074E+00
         -1   -1    0    0    0  501 -0.00000000000E+00  0.00000000000E+00  0.30504015080E+03  0.30504015080E+03  0.00000000000E+00 0.  1.
         21   -1    0    0  504  502  0.00000000000E+00 -0.00000000000E+00 -0.41138972839E+03  0.41138972839E+03  0.00000000000E+00 0. -1.
         21    1    1    2  503  502 -0.46653338645E+02 -0.27142858455E+02 -0.19709243026E+03  0.20434944296E+03  0.00000000000E+00 0.  1.
         21    1    1    2  504  501 -0.12654894855E+03  0.26902146043E+02 -0.14674157275E+03  0.19563090506E+03  0.00000000000E+00 0. -1.
         21    1    1    2  505  503  0.60011155301E+02 -0.23354981980E+01  0.80418543036E+01  0.60592612858E+02  0.00000000000E+00 0. -1.
         -1    1    1    2    0  505  0.11319113189E+03  0.25762106099E+01  0.22944257113E+03  0.25585691831E+03  0.00000000000E+00 0.  1.
<scales pt_clust_3="53.97470" pt_clust_4="114.14883" pt_clust_5="54.49351" pt_clust_6="14000.00000"></scales>
<clustering>
<clus scale="   53.975">  2  3  1 -1</clus>
<clus scale="   54.494">  2  5  1 -1</clus>
<clus scale="  114.149">  2  4  1 -1</clus>
<clus scale="   53.975">  2  3  1 -1</clus>
</clustering>
</event>
<event>
 6    0  0.4945982E+002  0.1642220E+03  0.7546771E-02  0.1184011E+00
         21   -1    0    0  501  502  0.00000000000E+00  0.00000000000E+00  0.96804076123E+02  0.96804076123E+02  0.00000000000E+00 0.  1.
          2   -1    0    0  503    0 -0.00000000000E+00 -0.00000000000E+00 -0.16033520083E+04  0.16033520083E+04  0.00000000000E+00 0.  1.
         21    1    1    2  503  505 -0.88561989383E+02 -0.33906894064E+02 -0.90157276828E+03  0.90654639150E+03  0.00000000000E+00 0. -1.
         21    1    1    2  504  502  0.14087451680E+03  0.67104916194E+02  0.23331881782E+02  0.15777539722E+03  0.00000000000E+00 0.  1.
         21    1    1    2  505  504 -0.61958018999E+02 -0.28258884383E+01 -0.32560662702E+03  0.33146109473E+03  0.00000000000E+00 0.  1.
          2    1    1    2  501    0  0.96454915831E+01 -0.30372133692E+02 -0.30270041862E+03  0.30437320093E+03  0.00000000000E+00 0.  1.
<scales pt_clust_3="40.58263" pt_clust_4="155.82411" pt_clust_5="40.58263" pt_clust_6="31.86694"></scales>
<clustering>
<clus scale="   31.867">  2  6  1 -1</clus>
<clus scale="   40.583">  3  5 -1 -1</clus>
<clus scale="  155.824">  1  4  2 -1</clus>
<clus scale="  155.824">  1  3  2 -1</clus>
</clustering>
</event>
<event>
 6    0  0.4945982E+002  0.1314527E+03  0.7546771E-02  0.1225316E+00
          3   -1    0    0  503    0 -0.00000000000E+00  0.00000000000E+00  0.17077149664E+04  0.17077149664E+04  0.00000000000E+00 0. -1.
         21   -1    0    0  505  502  0.00000000000E+00 -0.00000000000E+00 -0.43544732262E+03  0.43544732262E+03  0.00000000000E+00 0.  1.
         21    1    1    2  503  502 -0.11598139857E+02 -0.29410025258E+02 -0.26693049156E+02  0.41376144178E+02  0.00000000000E+00 0. -1.
         21    1    1    2  504  501  0.46961320479E+02  0.12563112059E+03 -0.33415480519E+03  0.36006662983E+03  0.00000000000E+00 0.  1.
         21    1    1    2  505  504 -0.24513473987E+02  0.34800512060E+02 -0.42970575811E+02  0.60485175309E+02  0.00000000000E+00 0.  1.
          3    1    1    2  501    0 -0.10849706635E+02 -0.13102160740E+03  0.16760860739E+04  0.16812343397E+04  0.00000000000E+00 0. -1.
<scales pt_clust_3="31.61434" pt_clust_4="14000.00000" pt_clust_5="40.47316" pt_clust_6="131.45273"></scales>
<clustering>
<clus scale="   31.614">  2  3  1 -1</clus>
<clus scale="   40.473">  2  5  1 -1</clus>
<clus scale="  131.453">  1  6  2 -1</clus>
<clus scale="   31.614">  2  3  1 -1</clus>
</clustering>
</event>
<event>
 6    0  0.4945982E+002  0.1239538E+03  0.7546771E-02  0.1236713E+00
          2   -1    0    0  503    0 -0.00000000000E+00  0.00000000000E+00  0.24976661884E+04  0.24976661884E+04  0.00000000000E+00 0. -1.
         21   -1    0    0  501  502  0.00000000000E+00 -0.00000000000E+00 -0.13228955166E+02  0.13228955166E+02  0.00000000000E+00 0. -1.
         21    1    1    2  503  505  0.73229423675E+02 -0.43288967493E+01  0.46791487130E+03  0.47363025096E+03  0.00000000000E+00 0. -1.
         21    1    1    2  504  502 -0.58860586036E+02 -0.23352275992E+02  0.23613753193E+03  0.24448073824E+03  0.00000000000E+00 0. -1.
         21    1    1    2  505  504  0.74053657218E+02 -0.37366259886E+02  0.42879281745E+03  0.43674187092E+03  0.00000000000E+00 0. -1.
          2    1    1    2  501    0 -0.88422494857E+02  0.65047432627E+02  0.13515920125E+04  0.13560422834E+04  0.00000000000E+00 0. -1.
<scales pt_clust_3="33.40712" pt_clust_4="63.32375" pt_clust_5="33.40712" pt_clust_6="118.75443"></scales>
<clustering>
<clus scale="   33.407">  3  5 -1 -1</clus>
<clus scale="   63.324">  2  4  1 -1</clus>
<clus scale="  118.754">  1  6  2 -1</clus>
<clus scale="   63.324">  2  3  1 -1</clus>
</clustering>
</event>
<event>
 6    0  0.4945982E+002  0.1246854E+03  0.7546771E-02  0.1235562E+00
         -2   -1    0    0    0  501 -0.00000000000E+00  0.00000000000E+00  0.18816928246E+04  0.18816928246E+04  0.00000000000E+00 0. -1.
         21   -1    0    0  503  502  0.00000000000E+00 -0.00000000000E+00 -0.45305767702E+02  0.45305767702E+02  0.00000000000E+00 0.  1.
         21    1    1    2  503  504 -0.64261101296E+02 -0.22751517947E+01  0.36290136048E+03  0.36855401625E+03  0.00000000000E+00 0.  1.
         21    1    1    2  504  501 -0.74417916958E+02  0.40774521165E+02  0.39547479347E+03  0.40447608114E+03  0.00000000000E+00 0. -1.
         21    1    1    2  505  502  0.29375432553E+02 -0.41423405277E+02 -0.16969462527E+02  0.53542293571E+02  0.00000000000E+00 0.  1.
         -2    1    1    2    0  505  0.10930358570E+03  0.29240359067E+01  0.10949803655E+04  0.11004262014E+04  0.00000000000E+00 0. -1.
<scales pt_clust_3="36.17620" pt_clust_4="36.17620" pt_clust_5="50.78203" pt_clust_6="117.55589"></scales>
<clustering>
<clus scale="   36.176">  3  4 -1 -1</clus>
<clus scale="   50.782">  2  5  1 -1</clus>
<clus scale="  117.556">  1  6  2 -1</clus>
<clus scale="   50.782">  2  3  1 -1</clus>
</clustering>
</event>
<event>
 6    0  0.4945982E+002  0.1294554E+03  0.7546771E-02  0.1228266E+00
          1   -1    0    0  505    0 -0.00000000000E+00  0.00000000000E+00  0.12204084885E+04  0.12204084885E+04  0.00000000000E+00 0.  1.
         21   -1    0    0  503  502  0.00000000000E+00 -0.00000000000E+00 -0.19725443220E+03  0.19725443220E+03  0.00000000000E+00 0. -1.
         21    1    1    2  503  501 -0.14256083228E+02 -0.16168459720E+03  0.49796194180E+03  0.52374730583E+03  0.00000000000E+00 0.  1.
         21    1    1    2  504  502  0.11379663630E+02  0.12745616892E+03 -0.15323462729E+03  0.19963822966E+03  0.00000000000E+00 0. -1.
         21    1    1    2  505  504 -0.36051520578E+02 -0.11697687997E+00  0.40418911092E+02  0.54161002515E+02  0.00000000000E+00 0.  1.
          1    1    1    2  501    0  0.38927940176E+02  0.34345405158E+02  0.63800783072E+03  0.64011638273E+03  0.00000000000E+00 0.  1.
<scales pt_clust_3="129.45542" pt_clust_4="14000.00000" pt_clust_5="36.05171" pt_clust_6="39.33558"></scales>
<clustering>
<clus scale="   36.052">  1  5  2 -1</clus>
<clus scale="   39.336">  1  6  2 -1</clus>
<clus scale="  129.455">  1  3  2 -1</clus>
<clus scale="  129.455">  2  3  1 -1</clus>
</clustering>
</event>
<event>
 6    0  0.4945982E+002  0.1298223E+03  0.7546771E-02  0.1227720E+00
         21   -1    0    0  504  502  0.00000000000E+00  0.00000000000E+00  0.48193688368E+02  0.48193688368E+02  0.00000000000E+00 0. -1.
          2   -1    0    0  503    0 -0.00000000000E+00 -0.00000000000E+00 -0.22072866149E+04  0.22072866149E+04  0.00000000000E+00 0.  1.
         21    1    1    2  503  502  0.59384934347E+02  0.31444441556E+02 -0.13275070569E+03  0.14878868637E+03  0.00000000000E+00 0. -1.
         21    1    1    2  504  505  0.73809698452E+01 -0.57018390988E+02 -0.84930380108E+00  0.57500408205E+02  0.00000000000E+00 0. -1.
         21    1    1    2  505  501 -0.47467443810E+02 -0.11044449554E+03 -0.39416481507E+03  0.41208863884E+03  0.00000000000E+00 0. -1.
          2    1    1    2  501    0 -0.19298460382E+02  0.13601844497E+03 -0.16313281019E+04  0.16371025698E+04  0.00000000000E+00 0.  1.
<scales pt_clust_3="62.93131" pt_clust_4="57.49414" pt_clust_5="129.82230" pt_clust_6="14000.00000"></scales>
<clustering>
<clus scale="   57.494">  1  4  2 -1</clus>
<clus scale="   62.931">  1  3  2 -1</clus>
<clus scale="  129.822">  1  5  2 -1</clus>
<clus scale="   57.494">  1  3  2 -1</clus>
</clustering>
</event>
<event>
 6    0  0.4945982E+002  0.1255263E+03  0.7546771E-02  0.1234249E+00
         21   -1    0    0  504  502  0.00000000000E+00  0.00000000000E+00  0.17390769080E+03  0.17390769080E+03  0.00000000000E+00 0.  1.
          2   -1    0    0  503    0 -0.00000000000E+00 -0.00000000000E+00 -0.31769720530E+04  0.31769720530E+04  0.00000000000E+00 0.  1.
         21    1    1    2  503  505  0.76603183897E+02  0.13125403614E+03 -0.22048410202E+03  0.26778519195E+03  0.00000000000E+00 0.  1.
         21    1    1    2  504  501 -0.29465812108E+02 -0.83070179009E+01 -0.18885338318E+02  0.35970774706E+02  0.00000000000E+00 0.  1.
         21    1    1    2  505  502 -0.67403437883E+02 -0.72367097797E+02  0.12417268131E+03  0.15874216537E+03  0.00000000000E+00 0.  1.
          2    1    1    2  501    0  0.20266066094E+02 -0.50579920441E+02 -0.28878676032E+04  0.28883816118E+04  0.00000000000E+00 0.  1.
<scales pt_clust_3="125.52627" pt_clust_4="30.61439" pt_clust_5="14000.00000" pt_clust_6="54.48389"></scales>
<clustering>
<clus scale="   30.614">  1  4  2 -1</clus>
<clus scale="   54.484">  2  6  1 -1</clus>
<clus scale="  125.526">  2  3  1 -1</clus>
<clus scale="   30.614">  1  3  2 -1</clus>
</clustering>
</event>
<event>
 6    0  0.4945982E+002  0.1632975E+03  0.7546771E-02  0.1185023E+00
         -4   -1    0    0    0  501 -0.00000000000E+00  0.00000000000E+00  0.15660190434E+04  0.15660190434E+04  0.00000000000E+00 0. -1.
         21   -1    0    0  504  502  0.00000000000E+00 -0.00000000000E+00 -0.43102556206E+03  0.43102556206E+03  0.00000000000E+00 0.  1.
         21    1    1    2  503  501  0.30733628250E+02  0.29796212062E+03  0.14484916879E+03  0.33272700962E+03  0.00000000000E+00 0.  1.
         21    1    1    2  504  503 -0.14302680837E+02 -0.11339218039E+03 -0.28934605080E+03  0.31110045060E+03  0.00000000000E+00 0.  1.
         21    1    1    2  505  502  0.36726038591E+02 -0.37035111868E+02 -0.10940483194E+02  0.53292547267E+02  0.00000000000E+00 0. -1.
         -4    1    1    2    0  505 -0.53156986004E+02 -0.14753482836E+03  0.12904308465E+04  0.12999245980E+04  0.00000000000E+00 0. -1.
<scales pt_clust_3="163.29750" pt_clust_4="141.89346" pt_clust_5="52.15747" pt_clust_6="14000.00000"></scales>
<clustering>
<clus scale="   52.157">  2  5  1 -1</clus>
<clus scale="  141.893">  2  4  1 -1</clus>
<clus scale="  163.297">  2  3  1 -1</clus>
<clus scale="   52.157">  2  3  1 -1</clus>
</clustering>
</event>
<event>
 6    0  0.4945982E+002  0.1350140E+03  0.7546771E-02  0.1220200E+00
          2   -1    0    0  505    0 -0.00000000000E+00  0.00000000000E+00  0.16388175736E+04  0.16388175736E+04  0.00000000000E+00 0.  1.
         21   -1    0    0  504  502  0.00000000000E+00 -0.00000000000E+00 -0.16045651709E+04  0.16045651709E+04  0.00000000000E+00 0.  1.
         21    1    1    2  503  501 -0.61242022528E+02 -0.16856444534E+03 -0.11242132142E+03  0.21166745396E+03  0.00000000000E+00 0.  1.
         21    1    1    2  504  503  0.19074398097E+02  0.27435550649E+02 -0.14190840716E+04  0.14194774194E+04  0.00000000000E+00 0.  1.
         21    1    1    2  505  502  0.39829439673E+02  0.67535077344E+01 -0.32471565522E+00  0.40399252118E+02  0.00000000000E+00 0.  1.
          2    1    1    2  501    0  0.23381847575E+01  0.13437538696E+03  0.15660825113E+04  0.15718386189E+04  0.00000000000E+00 0.  1.
<scales pt_clust_3="135.01399" pt_clust_4="33.41470" pt_clust_5="43.04862" pt_clust_6="14000.00000"></scales>
<clustering>
<clus scale="   33.415">  2  4  1 -1</clus>
<clus scale="   43.049">  2  5  1 -1</clus>
<clus scale="  135.014">  2  3  1 -1</clus>
<clus scale="   33.415">  2  3  1 -1</clus>
</clustering>
</event>
<event>
 6    0  0.4945982E+002  0.1028371E+03  0.7546771E-02  0.1274441E+00
          2   -1    0    0  502    0 -0.00000000000E+00  0.00000000000E+00  0.47653038038E+03  0.47653038038E+03  0.00000000000E+00 0.  1.
         21   -1    0    0  505  502  0.00000000000E+00 -0.00000000000E+00 -0.10866417258E+04  0.10866417258E+04  0.00000000000E+00 0. -1.
         21    1    1    2  503  501  0.94966443476E+02 -0.32811449843E+02  0.12340310984E+02  0.10122993580E+03  0.00000000000E+00 0. -1.
         21    1    1    2  504  503 -0.63593362849E+02  0.20500840664E+02 -0.15702229304E+03  0.17064700636E+03  0.00000000000E+00 0. -1.
         21    1    1    2  505  504 -0.57273830478E+02 -0.33431594849E+01 -0.87686908672E+03  0.87874391243E+03  0.00000000000E+00 0. -1.
          2    1    1    2  501    0  0.25900749851E+02  0.15653768664E+02  0.41143972331E+03  0.41255125164E+03  0.00000000000E+00 0.  1.
<scales pt_clust_3="102.83709" pt_clust_4="14000.00000" pt_clust_5="56.98285" pt_clust_6="30.26366"></scales>
<clustering>
<clus scale="   30.264">  1  6  2 -1</clus>
<clus scale="   56.983">  2  5  1 -1</clus>
<clus scale="  102.837">  1  3  2 -1</clus>
<clus scale="   56.983">  2  3  1 -1</clus>
</clustering>
</event>
<event>
 6    0  0.4945982E+002  0.1265644E+03  0.7546771E-02  0.1232645E+00
         21   -1    0    0  504  502  0.00000000000E+00  0.00000000000E+00  0.33684964056E+02  0.33684964056E+02  0.00000000000E+00 0. -1.
          2   -1    0    0  503    0 -0.00000000000E+00 -0.00000000000E+00 -0.14590091149E+04  0.14590091149E+04  0.00000000000E+00 0.  1.
         21    1    1    2  503  502 -0.62964734138E+01 -0.55233765592E+02 -0.61634453404E+02  0.83001327010E+02  0.00000000000E+00 0. -1.
         21    1    1    2  504  505  0.47193816739E+02  0.30772954712E+02 -0.12764023603E+03  0.13952154290E+03  0.00000000000E+00 0. -1.
         21    1    1    2  505  501  0.68156475323E+02 -0.46807125655E+01 -0.67011617894E+02  0.95696244081E+02  0.00000000000E+00 0. -1.
          2    1    1    2  501    0 -0.10905381865E+03  0.29141523445E+02 -0.11690378435E+04  0.11744749650E+04  0.00000000000E+00 0.  1.
<scales pt_clust_3="55.59150" pt_clust_4="53.35233" pt_clust_5="53.35233" pt_clust_6="112.10249"></scales>
<clustering>
<clus scale="   53.352">  4  5 -1 -1</clus>
<clus scale="   55.591">  1  3  2 -1</clus>
<clus scale="  112.102">  2  6  1 -1</clus>
<clus scale="   55.591">  1  3  2 -1</clus>
</clustering>
</event>
<event>
 6    0  0.4945982E+002  0.1239547E+03  0.7546771E-02  0.1236712E+00
          2   -1    0    0  503    0 -0.00000000000E+00  0.00000000000E+00  0.71131282773E+03  0.71131282773E+03  0.00000000000E+00 0.  1.
         21   -1    0    0  505  502  0.00000000000E+00 -0.00000000000E+00 -0.26614611369E+03  0.26614611369E+03  0.00000000000E+00 0.  1.
         21    1    1    2  503  504 -0.38242987086E+02  0.81702067616E+01 -0.24820520761E+02  0.46317778343E+02  0.00000000000E+00 0. -1.
         21    1    1    2  504  502 -0.66110832290E+02 -0.27989460275E+02 -0.11310218345E+03  0.13396326337E+03  0.00000000000E+00 0.  1.
         21    1    1    2  505  501  0.12219715428E+03  0.55095613908E+02 -0.64240329392E+02  0.14864215790E+03  0.00000000000E+00 0.  1.
          2    1    1    2  501    0 -0.17843334903E+02 -0.35276360395E+02  0.64732974765E+03  0.64853574180E+03  0.00000000000E+00 0.  1.
<scales pt_clust_3="34.58649" pt_clust_4="34.58649" pt_clust_5="114.75504" pt_clust_6="39.53234"></scales>
<clustering>
<clus scale="   34.586">  3  4 -1 -1</clus>
<clus scale="   39.532">  1  6  2 -1</clus>
<clus scale="  114.755">  1  5  2 -1</clus>
<clus scale="  123.955">  2  3  1 -1</clus>
</clustering>
</event>
<event>
 6    0  0.4945982E+002  0.9400893E+02  0.7546771E-02  0.1293424E+00
          2   -1    0    0  504    0 -0.00000000000E+00  0.00000000000E+00  0.42137796009E+04  0.42137796009E+04  0.00000000000E+00 0.  1.
         21   -1    0    0  505  502  0.00000000000E+00 -0.00000000000E+00 -0.25137127428E+02  0.25137127428E+02  0.00000000000E+00 0.  1.
         21    1    1    2  503  502 -0.34158348380E+02 -0.31575179223E+02  0.32658658019E+03  0.32988267470E+03  0.00000000000E+00 0.  1.
         21    1    1    2  504  503 -0.33830087198E+02 -0.84821862136E+02  0.36719524398E+03  0.37838019279E+03  0.00000000000E+00 0.  1.
         21    1    1    2  505  501  0.66723060883E+02  0.36888025790E+02  0.65909320274E+02  0.10078061222E+03  0.00000000000E+00 0.  1.
          2    1    1    2  501    0  0.12653746953E+01  0.79509015569E+02  0.34289513291E+04  0.34298732487E+04  0.00000000000E+00 0.  1.
<scales pt_clust_3="32.95744" pt_clust_4="32.95744" pt_clust_5="76.24102" pt_clust_6="81.88594"></scales>
<clustering>
<clus scale="   32.957">  3  4 -1 -1</clus>
<clus scale="   76.241">  2  5  1 -1</clus>
<clus scale="   81.886">  1  6  2 -1</clus>
<clus scale="   76.241">  2  3  1 -1</clus>
</clustering>
</event>
<event>
 6    0  0.4945982E+002  0.1440201E+03  0.7546771E-02  0.1208020E+00
          2   -1    0    0  505    0 -0.00000000000E+00  0.00000000000E+00  0.10392987777E+04  0.10392987777E+04  0.00000000000E+00 0. -1.
         21   -1    0    0  501  502  0.00000000000E+00 -0.00000000000E+00 -0.37212344627E+03  0.37212344627E+03  0.00000000000E+00 0.  1.
         21    1    1    2  503  502  0.26904391035E+02  0.23709390260E+02 -0.12828408181E+03  0.13320205362E+03  0.00000000000E+00 0.  1.
         21    1    1    2  504  503  0.42108864425E+02 -0.31046796965E+02 -0.24941384709E+02  0.57958025641E+02  0.00000000000E+00 0. -1.
         21    1    1    2  505  504  0.62953757427E+02 -0.54511793897E+02 -0.18577526297E+03  0.20358575486E+03  0.00000000000E+00 0.  1.
          2    1    1    2  501    0 -0.13196701289E+03  0.61849200602E+02  0.10061760609E+04  0.10166763898E+04  0.00000000000E+00 0. -1.
<scales pt_clust_3="35.86058" pt_clust_4="53.95611" pt_clust_5="144.02007" pt_clust_6="14000.00000"></scales>
<clustering>
<clus scale="   35.861">  2  3  1 -1</clus>
<clus scale="   53.956">  2  4  1 -1</clus>
<clus scale="  144.020">  2  5  1 -1</clus>
<clus scale="   35.861">  2  3  1 -1</clus>
</clustering>
</event>
<event>
 6    0  0.4945982E+002  0.1208733E+03  0.7546771E-02  0.1241663E+00
         21   -1    0    0  504  502  0.00000000000E+00  0.00000000000E+00  0.57787811668E+03  0.57787811668E+03  0.00000000000E+00 0.  1.
          2   -1    0    0  503    0 -0.00000000000E+00 -0.00000000000E+00 -0.19292474581E+04  0.19292474581E+04  0.00000000000E+00 0.  1.
         21    1    1    2  503  505  0.72123785689E+02 -0.39058488258E+02 -0.18987111172E+03  0.20682950717E+03  0.00000000000E+00 0. -1.
         21    1    1    2  504  501 -0.75791507833E+02  0.66000192793E+02  0.29290159437E+02  0.10468185874E+03  0.00000000000E+00 0. -1.
         21    1    1    2  505  502 -0.34911881028E+02  0.31048338324E+02  0.50060843912E+03  0.50278389798E+03  0.00000000000E+00 0.  1.
          2    1    1    2  501    0  0.38579603172E+02 -0.57990042859E+02 -0.16913968282E+04  0.16928303109E+04  0.00000000000E+00 0.  1.
<scales pt_clust_3="14000.00000" pt_clust_4="120.87328" pt_clust_5="46.72086" pt_clust_6="69.22573"></scales>
<clustering>
<clus scale="   46.721">  1  5  2 -1</clus>
<clus scale="   69.226">  2  6  1 -1</clus>
<clus scale="  120.873">  1  4  2 -1</clus>
<clus scale="   46.721">  1  3  2 -1</clus>
</clustering>
</event>
<event>
 6    0  0.4945982E+002  0.1607295E+03  0.7546771E-02  0.1187876E+00
          1   -1    0    0  502    0 -0.00000000000E+00  0.00000000000E+00  0.18821627939E+03  0.18821627939E+03  0.00000000000E+00 0. -1.
         21   -1    0    0  505  502  0.00000000000E+00 -0.00000000000E+00 -0.36187255184E+03  0.36187255184E+03  0.00000000000E+00 0. -1.
         21    1    1    2  503  504  0.63187747852E+02 -0.39036234413E+02 -0.20342376011E+03  0.21655887249E+03  0.00000000000E+00 0. -1.
         21    1    1    2  504  501  0.29375037444E+02 -0.44935779936E+02 -0.71849321238E+02  0.89690813943E+02  0.00000000000E+00 0. -1.
         21    1    1    2  505  503  0.42490815058E+02  0.35851567268E+01 -0.18045398104E+02  0.46302906019E+02  0.00000000000E+00 0. -1.
          1    1    1    2  501    0 -0.13505360035E+03  0.80386857622E+02  0.11966220701E+03  0.19753623878E+03  0.00000000000E+00 0. -1.
<scales pt_clust_3="41.60188" pt_clust_4="41.60188" pt_clust_5="42.64180" pt_clust_6="153.09972"></scales>
<clustering>
<clus scale="   41.602">  3  4 -1 -1</clus>
<clus scale="   42.642">  2  5  1 -1</clus>
<clus scale="  153.100">  1  6  2 -1</clus>
<clus scale="   42.642">  2  3  1 -1</clus>
</clustering>
</event>
<event>
 6    0  0.4945982E+002  0.1676499E+03  0.7546771E-02  0.1180321E+00
         21   -1    0    0  505  502  0.00000000000E+00  0.00000000000E+00  0.15677925387E+04  0.15677925387E+04  0.00000000000E+00 0. -1.
          2   -1    0    0  503    0 -0.00000000000E+00 -0.00000000000E+00 -0.20823356975E+04  0.20823356975E+04  0.00000000000E+00 0. -1.
         21    1    1    2  503  504 -0.34216669100E+02 -0.14680257952E+02  0.35907301092E+03  0.36099822380E+03  0.00000000000E+00 0. -1.
         21    1    1    2  504  502 -0.65074612249E+02 -0.13463291658E+03  0.86027891225E+03  0.87317840917E+03  0.00000000000E+00 0. -1.
         21    1    1    2  505  501  0.68093919488E+02  0.98244323439E+02  0.33010649276E+03  0.35108264771E+03  0.00000000000E+00 0. -1.
          2    1    1    2  501    0  0.31197361861E+02  0.51068851088E+02 -0.20640015748E+04  0.20648689556E+04  0.00000000000E+00 0. -1.
<scales pt_clust_3="32.41389" pt_clust_4="32.41389" pt_clust_5="154.55366" pt_clust_6="59.84399"></scales>
<clustering>
<clus scale="   32.414">  3  4 -1 -1</clus>
<clus scale="   59.844">  2  6  1 -1</clus>
<clus scale="  154.554">  2  5  1 -1</clus>
<clus scale="  167.650">  1  3  2 -1</clus>
</clustering>
</event>
<event>
 6    0  0.4945982E+002  0.1433771E+03  0.7546771E-02  0.1208856E+00
          1   -1    0    0  503    0 -0.00000000000E+00  0.00000000000E+00  0.18761169120E+04  0.18761169120E+04  0.00000000000E+00 0.  1.
         21   -1    0    0  505  502  0.00000000000E+00 -0.00000000000E+00 -0.69483097782E+03  0.69483097782E+03  0.00000000000E+00 0.  1.
         21    1    1    2  503  504 -0.28641363818E+02 -0.14979909069E+03 -0.23380508605E+03  0.27915034221E+03  0.00000000000E+00 0.  1.
         21    1    1    2  504  502 -0.42853801687E+02 -0.22320522740E+02 -0.41508410151E+03  0.41788690501E+03  0.00000000000E+00 0.  1.
         21    1    1    2  505  501  0.15433024370E+02  0.40225605225E+02  0.52915855244E+01  0.43408276103E+02  0.00000000000E+00 0. -1.
          1    1    1    2  501    0  0.56062141135E+02  0.13189400820E+03  0.18248835362E+04  0.18305023665E+04  0.00000000000E+00 0.  1.
<scales pt_clust_3="14000.00000" pt_clust_4="33.43370" pt_clust_5="43.08454" pt_clust_6="143.37706"></scales>
<clustering>
<clus scale="   43.085">  2  5  1 -1</clus>
<clus scale="   33.434">  2  4  1 -1</clus>
<clus scale="  143.377">  1  6  2 -1</clus>
<clus scale="   43.085">  2  3  1 -1</clus>
</clustering>
</event>
<event>
 6    0  0.4945982E+002  0.7712087E+02  0.7546771E-02  0.1337426E+00
          2   -1    0    0  505    0 -0.00000000000E+00  0.00000000000E+00  0.12486374723E+04  0.12486374723E+04  0.00000000000E+00 0. -1.
         21   -1    0    0  504  502  0.00000000000E+00 -0.00000000000E+00 -0.30933970431E+02  0.30933970431E+02  0.00000000000E+00 0.  1.
         21    1    1    2  503  502 -0.13669842764E+02  0.30526596779E+02  0.99408965919E+02  0.10488508100E+03  0.00000000000E+00 0.  1.
         21    1    1    2  504  501 -0.15526034675E+02 -0.50769930813E+02  0.37464230767E+02  0.64978551957E+02  0.00000000000E+00 0.  1.
         21    1    1    2  505  503  0.75000972976E+02  0.77667449525E+02  0.21326449698E+03  0.23903791401E+03  0.00000000000E+00 0.  1.
          2    1    1    2  501    0 -0.45805095536E+02 -0.57424115490E+02  0.86756580825E+03  0.87066989581E+03  0.00000000000E+00 0. -1.
<scales pt_clust_3="33.44754" pt_clust_4="42.18660" pt_clust_5="77.12087" pt_clust_6="14000.00000"></scales>
<clustering>
<clus scale="   33.448">  2  3  1 -1</clus>
<clus scale="   42.187">  2  4  1 -1</clus>
<clus scale="   77.121">  2  5  1 -1</clus>
<clus scale="   33.448">  2  3  1 -1</clus>
</clustering>
</event>
<event>
 6    0  0.4945982E+002  0.1189587E+03  0.7546771E-02  0.1244825E+00
         21   -1    0    0  505  502  0.00000000000E+00  0.00000000000E+00  0.12577784839E+03  0.12577784839E+03  0.00000000000E+00 0.  1.
          2   -1    0    0  502    0 -0.00000000000E+00 -0.00000000000E+00 -0.40715728351E+04  0.40715728351E+04  0.00000000000E+00 0. -1.
         21    1    1    2  503  504 -0.36793868359E+02  0.57564879513E+02 -0.94079359772E+02  0.11626878359E+03  0.00000000000E+00 0. -1.
         21    1    1    2  504  501 -0.54038446694E+02  0.23603173084E+02 -0.44970155102E+02  0.74159142057E+02  0.00000000000E+00 0.  1.
         21    1    1    2  505  503  0.32394344446E+02  0.11558195237E+02  0.96341597667E+02  0.10229706188E+03  0.00000000000E+00 0.  1.
          2    1    1    2  501    0  0.58437970607E+02 -0.92726247834E+02 -0.39030870695E+04  0.39046256959E+04  0.00000000000E+00 0. -1.
<scales pt_clust_3="38.39276" pt_clust_4="38.39276" pt_clust_5="34.39456" pt_clust_6="109.82675"></scales>
<clustering>
<clus scale="   34.395">  1  5  2 -1</clus>
<clus scale="   38.393">  3  4 -1 -1</clus>
<clus scale="  109.827">  2  6  1 -1</clus>
<clus scale="   34.395">  1  3  2 -1</clus>
</clustering>
</event>
<event>
 6    0  0.4945982E+002  0.1390130E+03  0.7546771E-02  0.1214663E+00
          2   -1    0    0  505    0 -0.00000000000E+00  0.00000000000E+00  0.39349971435E+04  0.39349971435E+04  0.00000000000E+00 0.  1.
         21   -1    0    0  504  502  0.00000000000E+00 -0.00000000000E+00 -0.14417459513E+03  0.14417459513E+03  0.00000000000E+00 0.  1.
         21    1    1    2  503  502 -0.16836267940E+02  0.35097699093E+02 -0.95939059593E+02  0.10353555696E+03  0.00000000000E+00 0.  1.
         21    1    1    2  504  501 -0.31183715902E+02  0.71784059430E+02  0.93423834230E+01  0.78820399984E+02  0.00000000000E+00 0. -1.
         21    1    1    2  505  503  0.73712581628E+02  0.32683069662E+02  0.18668613180E+03  0.20335545122E+03  0.00000000000E+00 0. -1.
          2    1    1    2  501    0 -0.25692597786E+02 -0.13956482818E+03  0.36907330928E+04  0.36934603305E+04  0.00000000000E+00 0.  1.
<scales pt_clust_3="38.92696" pt_clust_4="14000.00000" pt_clust_5="80.74524" pt_clust_6="139.01304"></scales>
<clustering>
<clus scale="   38.927">  2  3  1 -1</clus>
<clus scale="   80.745">  2  5  1 -1</clus>
<clus scale="  139.013">  1  6  2 -1</clus>
<clus scale="   38.927">  2  3  1 -1</clus>
</clustering>
</event>
<event>
 6    0  0.4945982E+002  0.1712256E+03  0.7546771E-02  0.1176576E+00
         21   -1    0    0  504  502  0.00000000000E+00  0.00000000000E+00  0.36733159948E+02  0.36733159948E+02  0.00000000000E+00 0. -1.
         -3   -1    0    0    0  501 -0.00000000000E+00 -0.00000000000E+00 -0.14064091436E+04  0.14064091436E+04  0.00000000000E+00 0. -1.
         21    1    1    2  503  501 -0.13878694642E+03 -0.98799732090E+02 -0.57026508318E+03  0.59516843721E+03  0.00000000000E+00 0. -1.
         21    1    1    2  504  505  0.40883139538E+02  0.14739551762E+02 -0.83769279056E+02  0.94371487209E+02  0.00000000000E+00 0. -1.
         21    1    1    2  505  503  0.54974371020E+02  0.11293224917E+03 -0.20550325690E+03  0.24084738522E+03  0.00000000000E+00 0. -1.
         -3    1    1    2    0  502  0.42929435867E+02 -0.28872068840E+02 -0.51013836449E+03  0.51275499387E+03  0.00000000000E+00 0. -1.
<scales pt_clust_3="161.59788" pt_clust_4="33.29745" pt_clust_5="33.29745" pt_clust_6="51.73522"></scales>
<clustering>
<clus scale="   33.297">  4  5 -1 -1</clus>
<clus scale="   51.735">  2  6  1 -1</clus>
<clus scale="  161.598">  2  3  1 -1</clus>
<clus scale="  171.226">  1  3  2 -1</clus>
</clustering>
</event>
<event>
 6    0  0.4945982E+002  0.1714364E+03  0.7546771E-02  0.1176358E+00
          3   -1    0    0  504    0 -0.00000000000E+00  0.00000000000E+00  0.68995424094E+03  0.68995424094E+03  0.00000000000E+00 0. -1.
         21   -1    0    0  503  502  0.00000000000E+00 -0.00000000000E+00 -0.50326682581E+03  0.50326682581E+03  0.00000000000E+00 0.  1.
         21    1    1    2  503  501  0.10935406426E+03  0.40609793552E+01  0.15773007040E+03  0.19197285754E+03  0.00000000000E+00 0. -1.
         21    1    1    2  504  505 -0.11658851393E+03  0.55073713440E+02 -0.26939225706E+03  0.29866064966E+03  0.00000000000E+00 0.  1.
         21    1    1    2  505  502 -0.31629386067E+02  0.14152311050E+02 -0.19716017803E+03  0.20018202160E+03  0.00000000000E+00 0.  1.
          3    1    1    2  501    0  0.38863835738E+02 -0.73287003845E+02  0.49550977982E+03  0.50240553795E+03  0.00000000000E+00 0. -1.
<scales pt_clust_3="158.04555" pt_clust_4="34.43359" pt_clust_5="34.43359" pt_clust_6="82.95410"></scales>
<clustering>
<clus scale="   34.434">  4  5 -1 -1</clus>
<clus scale="   82.954">  1  6  2 -1</clus>
<clus scale="  158.046">  1  3  2 -1</clus>
<clus scale="  171.436">  2  3  1 -1</clus>
</clustering>
</event>
<event>
 6    0  0.4945982E+002  0.9570549E+02  0.7546771E-02  0.1289595E+00
         -3   -1    0    0    0  501 -0.00000000000E+00  0.00000000000E+00  0.12505590892E+04  0.12505590892E+04  0.00000000000E+00 0. -1.
         21   -1    0    0  504  502  0.00000000000E+00 -0.00000000000E+00 -0.33822452588E+03  0.33822452588E+03  0.00000000000E+00 0.  1.
         21    1    1    2  503  505 -0.11964058716E+03 -0.44492626929E+02  0.38256154519E+03  0.40329492906E+03  0.00000000000E+00 0.  1.
         21    1    1    2  504  501  0.29945592941E+02  0.24682239685E+02  0.60724453909E+02  0.72065323111E+02  0.00000000000E+00 0.  1.
         21    1    1    2  505  502  0.43115156121E+02 -0.16497874684E+02 -0.31942371580E+03  0.32274232256E+03  0.00000000000E+00 0.  1.
         -3    1    1    2    0  503  0.46579838094E+02  0.36308261928E+02  0.78847228004E+03  0.79068104037E+03  0.00000000000E+00 0. -1.
<scales pt_clust_3="14000.00000" pt_clust_4="38.80659" pt_clust_5="46.19066" pt_clust_6="95.70549"></scales>
<clustering>
<clus scale="   38.807">  1  4  2 -1</clus>
<clus scale="   46.191">  2  5  1 -1</clus>
<clus scale="   95.705">  1  6  2 -1</clus>
<clus scale="   46.191">  2  3  1 -1</clus>
</clustering>
</event>
<event>
 6    0  0.4945982E+002  0.1062987E+03  0.7546771E-02  0.1267582E+00
         21   -1    0    0  503  502  0.00000000000E+00  0.00000000000E+00  0.11261230498E+03  0.11261230498E+03  0.00000000000E+00 0.  1.
          2   -1    0    0  505    0 -0.00000000000E+00 -0.00000000000E+00 -0.47917962636E+03  0.47917962636E+03  0.00000000000E+00 0.  1.
         21    1    1    2  503  504  0.35425915563E+02  0.27303640264E+01 -0.26604357736E+02  0.44387410735E+02  0.00000000000E+00 0.  1.
         21    1    1    2  504  501  0.24540700565E+02 -0.12677818190E+03 -0.56389063613E+02  0.14090663535E+03  0.00000000000E+00 0.  1.
         21    1    1    2  505  502 -0.28841558857E+01  0.37684399655E+02  0.46874305423E+02  0.60213228127E+02  0.00000000000E+00 0.  1.
          2    1    1    2  501    0 -0.57082460243E+02  0.86363418217E+02 -0.33044820545E+03  0.34628465713E+03  0.00000000000E+00 0.  1.
<scales pt_clust_3="35.53098" pt_clust_4="14000.00000" pt_clust_5="42.01914" pt_clust_6="106.29874"></scales>
<clustering>
<clus scale="   35.531">  1  3  2 -1</clus>
<clus scale="   42.019">  1  5  2 -1</clus>
<clus scale="  106.299">  2  6  1 -1</clus>
<clus scale="   35.531">  1  3  2 -1</clus>
</clustering>
</event>
<event>
 6    0  0.4945982E+002  0.8376782E+02  0.7546771E-02  0.1318687E+00
         21   -1    0    0  504  502  0.00000000000E+00  0.00000000000E+00  0.76013518085E+02  0.76013518085E+02  0.00000000000E+00 0.  1.
          1   -1    0    0  503    0 -0.00000000000E+00 -0.00000000000E+00 -0.84188477408E+03  0.84188477408E+03  0.00000000000E+00 0.  1.
         21    1    1    2  503  505 -0.49963389678E+02 -0.58612752499E+02 -0.22855831134E+02  0.80337936745E+02  0.00000000000E+00 0.  1.
         21    1    1    2  504  501  0.76744057024E+02  0.22152470384E+02 -0.14737461546E+03  0.16762953056E+03  0.00000000000E+00 0.  1.
         21    1    1    2  505  502 -0.58930615475E+02  0.45981760757E+02 -0.14158159461E+01  0.74760579836E+02  0.00000000000E+00 0.  1.
          1    1    1    2  501    0  0.32149948130E+02 -0.95214786427E+01 -0.59422499345E+03  0.59517024503E+03  0.00000000000E+00 0.  1.
<scales pt_clust_3="83.76782" pt_clust_4="14000.00000" pt_clust_5="69.96457" pt_clust_6="33.53025"></scales>
<clustering>
<clus scale="   33.530">  2  6  1 -1</clus>
<clus scale="   69.965">  1  5  2 -1</clus>
<clus scale="   83.768">  1  3  2 -1</clus>
<clus scale="   69.965">  1  3  2 -1</clus>
</clustering>
</event>
<event>
 6    0  0.4945982E+002  0.1636495E+03  0.7546771E-02  0.1184637E+00
         21   -1    0    0  505  502  0.00000000000E+00  0.00000000000E+00  0.12156309886E+04  0.12156309886E+04  0.00000000000E+00 0. -1.
          2   -1    0    0  504    0 -0.00000000000E+00 -0.00000000000E+00 -0.21288194592E+04  0.21288194592E+04  0.00000000000E+00 0. -1.
         21    1    1    2  503  502  0.45432403477E+02  0.26708216280E+02  0.71822631520E+02  0.89083794828E+02  0.00000000000E+00 0. -1.
         21    1    1    2  504  503  0.87536252405E+02  0.37694081191E+02  0.33363395987E+03  0.34697991068E+03  0.00000000000E+00 0. -1.
         21    1    1    2  505  501 -0.15698450668E+03 -0.66920374617E+01  0.78663735572E+03  0.80217656916E+03  0.00000000000E+00 0. -1.
          2    1    1    2  501    0  0.24015850799E+02 -0.57710260009E+02 -0.21052824176E+04  0.21062101731E+04  0.00000000000E+00 0. -1.
<scales pt_clust_3="46.60628" pt_clust_4="46.60628" pt_clust_5="151.17203" pt_clust_6="62.50788"></scales>
<clustering>
<clus scale="   46.606">  3  4 -1 -1</clus>
<clus scale="   62.508">  2  6  1 -1</clus>
<clus scale="  151.172">  1  5  2 -1</clus>
<clus scale="  151.172">  1  3  2 -1</clus>
</clustering>
</event>
<event>
 6    0  0.4945982E+002  0.9110793E+02  0.7546771E-02  0.1300191E+00
          2   -1    0    0  505    0 -0.00000000000E+00  0.00000000000E+00  0.21029884519E+03  0.21029884519E+03  0.00000000000E+00 0. -1.
         21   -1    0    0  504  502  0.00000000000E+00 -0.00000000000E+00 -0.18667986959E+03  0.18667986959E+03  0.00000000000E+00 0.  1.
         21    1    1    2  503  501 -0.16656396629E+01  0.81983188190E+02  0.28393057742E+02  0.86776628358E+02  0.00000000000E+00 0. -1.
         21    1    1    2  504  503 -0.94475769687E+02 -0.11118795083E+02 -0.87805494026E+02  0.12945695595E+03  0.00000000000E+00 0.  1.
         21    1    1    2  505  502  0.30215726110E+02  0.13244424082E+02 -0.14524453179E+02  0.36046700456E+02  0.00000000000E+00 0. -1.
          2    1    1    2  501    0  0.65925683240E+02 -0.84108817189E+02  0.97555865067E+02  0.14469843001E+03  0.00000000000E+00 0. -1.
<scales pt_clust_3="14000.00000" pt_clust_4="74.17094" pt_clust_5="32.99098" pt_clust_6="91.10793"></scales>
<clustering>
<clus scale="   32.991">  2  5  1 -1</clus>
<clus scale="   74.171">  2  4  1 -1</clus>
<clus scale="   91.108">  1  6  2 -1</clus>
<clus scale="   32.991">  2  3  1 -1</clus>
</clustering>
</event>
<event>
 6    0  0.4945982E+002  0.1561479E+03  0.7546771E-02  0.1193116E+00
         21   -1    0    0  505  502  0.00000000000E+00  0.00000000000E+00  0.36427421734E+03  0.36427421734E+03  0.00000000000E+00 0.  1.
         -4   -1    0    0    0  501 -0.00000000000E+00 -0.00000000000E+00 -0.16643148369E+03  0.16643148369E+03  0.00000000000E+00 0.  1.
         21    1    1    2  503  502 -0.45174649964E+02 -0.12345896347E+01  0.27105574523E+02  0.52697109799E+02  0.00000000000E+00 0.  1.
         21    1    1    2  504  503 -0.59965676770E+02  0.53755268496E+02  0.11142822461E+02  0.81299900209E+02  0.00000000000E+00 0.  1.
         21    1    1    2  505  501  0.16938419349E+03 -0.20446188134E+01  0.23218960768E+03  0.28741468192E+03  0.00000000000E+00 0.  1.
         -4    1    1    2    0  504 -0.64243866751E+02 -0.50476060048E+02 -0.72595271014E+02  0.10929400911E+03  0.00000000000E+00 0.  1.
<scales pt_clust_3="38.77547" pt_clust_4="38.77547" pt_clust_5="147.31874" pt_clust_6="81.70133"></scales>
<clustering>
<clus scale="   38.775">  3  4 -1 -1</clus>
<clus scale="   81.701">  2  6  1 -1</clus>
<clus scale="  147.319">  1  5  2 -1</clus>
<clus scale="  147.319">  1  3  2 -1</clus>
</clustering>
</event>
<event>
 6    0  0.4945982E+002  0.1096383E+03  0.7546771E-02  0.1261241E+00
          1   -1    0    0  505    0 -0.00000000000E+00  0.00000000000E+00  0.52473823232E+03  0.52473823232E+03  0.00000000000E+00 0. -1.
         21   -1    0    0  503  502  0.00000000000E+00 -0.00000000000E+00 -0.11647906226E+03  0.11647906226E+03  0.00000000000E+00 0.  1.
         21    1    1    2  503  501  0.44254985372E+02  0.56407001317E+02  0.14995789442E+02  0.73247028806E+02  0.00000000000E+00 0.  1.
         21    1    1    2  504  502  0.14776604223E+02 -0.48672761074E+02 -0.22341464169E+02  0.55556518287E+02  0.00000000000E+00 0.  1.
         21    1    1    2  505  504 -0.44416520580E+02 -0.71509426996E+02 -0.72820581055E+01  0.84495288744E+02  0.00000000000E+00 0.  1.
          1    1    1    2  501    0 -0.14615069015E+02  0.63775186753E+02  0.42288690290E+03  0.42791845874E+03  0.00000000000E+00 0. -1.
<scales pt_clust_3="92.76791" pt_clust_4="45.42375" pt_clust_5="45.42375" pt_clust_6="65.42839"></scales>
<clustering>
<clus scale="   45.424">  4  5 -1 -1</clus>
<clus scale="   65.428">  1  6  2 -1</clus>
<clus scale="   92.768">  2  3  1 -1</clus>
<clus scale="   92.768">  2  3  1 -1</clus>
</clustering>
</event>
<event>
 6    0  0.4945982E+002  0.1347281E+03  0.7546771E-02  0.1220604E+00
         21   -1    0    0  503  502  0.00000000000E+00  0.00000000000E+00  0.14702221303E+03  0.14702221303E+03  0.00000000000E+00 0. -1.
          2   -1    0    0  504    0 -0.00000000000E+00 -0.00000000000E+00 -0.16505377430E+04  0.16505377430E+04  0.00000000000E+00 0. -1.
         21    1    1    2  503  501 -0.22587739552E+02  0.24372111972E+02  0.12008322077E+03  0.12459609035E+03  0.00000000000E+00 0. -1.
         21    1    1    2  504  505  0.12081413065E+02 -0.15068171954E+03 -0.52596515138E+03  0.54725705260E+03  0.00000000000E+00 0. -1.
         21    1    1    2  505  502  0.89646865863E+02  0.18238031990E+02 -0.22556365135E+03  0.24340942295E+03  0.00000000000E+00 0. -1.
          2    1    1    2  501    0 -0.79140539376E+02  0.10807157558E+03 -0.87206994802E+03  0.88229739014E+03  0.00000000000E+00 0. -1.
<scales pt_clust_3="33.22959" pt_clust_4="14000.00000" pt_clust_5="85.85353" pt_clust_6="134.72809"></scales>
<clustering>
<clus scale="   33.230">  1  3  2 -1</clus>
<clus scale="   85.854">  1  5  2 -1</clus>
<clus scale="  134.728">  2  6  1 -1</clus>
<clus scale="   33.230">  1  3  2 -1</clus>
</clustering>
</event>
<event>
 6    0  0.4945982E+002  0.8042942E+02  0.7546771E-02  0.1327837E+00
          4   -1    0    0  505    0 -0.00000000000E+00  0.00000000000E+00  0.21670706777E+03  0.21670706777E+03  0.00000000000E+00 0.  1.
         21   -1    0    0  503  502  0.00000000000E+00 -0.00000000000E+00 -0.10184433866E+04  0.10184433866E+04  0.00000000000E+00 0.  1.
         21    1    1    2  503  501 -0.52444678387E+01 -0.60696552051E+02 -0.76206357926E+02  0.97565285128E+02  0.00000000000E+00 0.  1.
         21    1    1    2  504  502  0.34530009238E+02  0.68703893879E+02 -0.61274715934E+03  0.61755293526E+03  0.00000000000E+00 0.  1.
         21    1    1    2  505  504 -0.18568372969E+01  0.55668203530E+02 -0.30793408207E+03  0.31293097582E+03  0.00000000000E+00 0.  1.
          4    1    1    2  501    0 -0.27428704102E+02 -0.63675545358E+02  0.19515128045E+03  0.20710125820E+03  0.00000000000E+00 0.  1.
<scales pt_clust_3="60.92270" pt_clust_4="34.15453" pt_clust_5="34.15453" pt_clust_6="69.70284"></scales>
<clustering>
<clus scale="   34.155">  4  5 -1 -1</clus>
<clus scale="   60.923">  2  3  1 -1</clus>
<clus scale="   69.703">  1  6  2 -1</clus>
<clus scale="   60.923">  2  3  1 -1</clus>
</clustering>
</event>
<event>
 6    0  0.4945982E+002  0.8212701E+02  0.7546771E-02  0.1323121E+00
         21   -1    0    0  504  502  0.00000000000E+00  0.00000000000E+00  0.20857354920E+02  0.20857354920E+02  0.00000000000E+00 0.  1.
          2   -1    0    0  505    0 -0.00000000000E+00 -0.00000000000E+00 -0.18064895828E+04  0.18064895828E+04  0.00000000000E+00 0.  1.
         21    1    1    2  503  501 -0.22073453099E+02 -0.78130398537E+02 -0.20600217181E+03  0.22142378214E+03  0.00000000000E+00 0.  1.
         21    1    1    2  504  503  0.29813192424E+02 -0.40489915436E+01 -0.10104209192E+03  0.10542639667E+03  0.00000000000E+00 0. -1.
         21    1    1    2  505  502 -0.88509554610E+02  0.63919452327E+02 -0.30429895119E+03  0.32329164749E+03  0.00000000000E+00 0.  1.
          2    1    1    2  501    0  0.80769815285E+02  0.18259937754E+02 -0.11742890129E+04  0.11772051114E+04  0.00000000000E+00 0.  1.
<scales pt_clust_3="80.39737" pt_clust_4="30.08689" pt_clust_5="14000.00000" pt_clust_6="82.12701"></scales>
<clustering>
<clus scale="   30.087">  1  4  2 -1</clus>
<clus scale="   80.397">  1  3  2 -1</clus>
<clus scale="   82.127">  2  6  1 -1</clus>
<clus scale="   30.087">  1  3  2 -1</clus>
</clustering>
</event>
<event>
 6    0  0.4945982E+002  0.1151933E+03  0.7546771E-02  0.1251244E+00
          2   -1    0    0  503    0 -0.00000000000E+00  0.00000000000E+00  0.35195909776E+04  0.35195909776E+04  0.00000000000E+00 0. -1.
         21   -1    0    0  505  502  0.00000000000E+00 -0.00000000000E+00 -0.46296419786E+02  0.46296419786E+02  0.00000000000E+00 0. -1.
         21    1    1    2  503  504  0.81761897685E+02 -0.27624565336E+02  0.10199089522E+03  0.13360489224E+03  0.00000000000E+00 0. -1.
         21    1    1    2  504  502  0.42103801800E+02 -0.63422337300E+01 -0.87645470737E+01  0.43471500321E+02  0.00000000000E+00 0. -1.
         21    1    1    2  505  501 -0.22122030967E+02 -0.24193592793E+02  0.77301017996E+02  0.83965240246E+02  0.00000000000E+00 0. -1.
          2    1    1    2  501    0 -0.10174366852E+03  0.58160391859E+02  0.33027671916E+04  0.33048457645E+04  0.00000000000E+00 0. -1.
<scales pt_clust_3="14000.00000" pt_clust_4="35.55613" pt_clust_5="32.78283" pt_clust_6="115.19333"></scales>
<clustering>
<clus scale="   32.783">  2  5  1 -1</clus>
<clus scale="   35.556">  2  4  1 -1</clus>
<clus scale="  115.193">  1  6  2 -1</clus>
<clus scale="   32.783">  2  3  1 -1</clus>
</clustering>
</event>
<event>
 6    0  0.4945982E+002  0.2233252E+03  0.7546771E-02  0.1131428E+00
         21   -1    0    0  505  502  0.00000000000E+00  0.00000000000E+00  0.18450796718E+03  0.18450796718E+03  0.00000000000E+00 0.  1.
          1   -1    0    0  504    0 -0.00000000000E+00 -0.00000000000E+00 -0.17836754309E+04  0.17836754309E+04  0.00000000000E+00 0. -1.
         21    1    1    2  503  502 -0.31131418973E+02  0.60809694234E+01  0.10784248863E+02  0.33502887337E+02  0.00000000000E+00 0.  1.
         21    1    1    2  504  503  0.38006474161E+02  0.27888647243E+03 -0.15844045818E+03  0.32299463675E+03  0.00000000000E+00 0.  1.
         21    1    1    2  505  501 -0.21168154354E+02 -0.67184718190E+02  0.55048675787E+02  0.89399294309E+02  0.00000000000E+00 0.  1.
          1    1    1    2  501    0  0.14293099165E+02 -0.21778272366E+03 -0.15065599302E+04  0.15222865797E+04  0.00000000000E+00 0. -1.
<scales pt_clust_3="31.71976" pt_clust_4="14000.00000" pt_clust_5="73.37420" pt_clust_6="223.32516"></scales>
<clustering>
<clus scale="   31.720">  1  3  2 -1</clus>
<clus scale="   73.374">  1  5  2 -1</clus>
<clus scale="  223.325">  2  6  1 -1</clus>
<clus scale="   31.720">  1  3  2 -1</clus>
</clustering>
</event>
<event>
 6    0  0.4945982E+002  0.1288903E+03  0.7546771E-02  0.1229112E+00
         -4   -1    0    0    0  501 -0.00000000000E+00  0.00000000000E+00  0.77166340574E+02  0.77166340574E+02  0.00000000000E+00 0.  1.
         21   -1    0    0  505  502  0.00000000000E+00 -0.00000000000E+00 -0.90180071054E+03  0.90180071054E+03  0.00000000000E+00 0.  1.
         21    1    1    2  503  502 -0.77098693786E+02 -0.53283191531E+02 -0.16334593660E+03  0.18832207010E+03  0.00000000000E+00 0. -1.
         21    1    1    2  504  501 -0.15919043569E+02 -0.30860186793E+02 -0.53383546632E+01  0.35132109352E+02  0.00000000000E+00 0. -1.
         21    1    1    2  505  504 -0.60778885496E+02  0.12785058089E+02 -0.55442951593E+03  0.55789749844E+03  0.00000000000E+00 0.  1.
         -4    1    1    2    0  503  0.15379662285E+03  0.71358320234E+02 -0.10152056277E+03  0.19761537322E+03  0.00000000000E+00 0.  1.
<scales pt_clust_3="128.89035" pt_clust_4="34.72416" pt_clust_5="62.37289" pt_clust_6="14000.00000"></scales>
<clustering>
<clus scale="   34.724">  1  4  2 -1</clus>
<clus scale="   62.373">  2  5  1 -1</clus>
<clus scale="  128.890">  2  3  1 -1</clus>
<clus scale="   62.373">  2  3  1 -1</clus>
</clustering>
</event>
<event>
 6    0  0.4945982E+002  0.6153722E+02  0.7546771E-02  0.1391492E+00
          3   -1    0    0  504    0 -0.00000000000E+00  0.00000000000E+00  0.53299589080E+02  0.53299589080E+02  0.00000000000E+00 0.  1.
         21   -1    0    0  505  502  0.00000000000E+00 -0.00000000000E+00 -0.51293748102E+03  0.51293748102E+03  0.00000000000E+00 0.  1.
         21    1    1    2  503  502 -0.28389148058E+01  0.60037480841E+02 -0.29827139428E+03  0.30426696040E+03  0.00000000000E+00 0.  1.
         21    1    1    2  504  503  0.43550299549E+02  0.33084994512E+02 -0.35067183333E+02  0.64968860230E+02  0.00000000000E+00 0. -1.
         21    1    1    2  505  501  0.22092828845E+02 -0.64795686869E+02 -0.10414420737E+03  0.12462981205E+03  0.00000000000E+00 0. -1.
          3    1    1    2  501    0 -0.62804213588E+02 -0.28326788484E+02 -0.22155106956E+02  0.72371437422E+02  0.00000000000E+00 0.  1.
<scales pt_clust_3="14000.00000" pt_clust_4="54.69228" pt_clust_5="61.53722" pt_clust_6="34.93215"></scales>
<clustering>
<clus scale="   54.692">  1  4  2 -1</clus>
<clus scale="   34.932">  1  6  2 -1</clus>
<clus scale="   61.537">  1  5  2 -1</clus>
<clus scale="   61.537">  2  3  1 -1</clus>
</clustering>
</event>
<event>
 6    0  0.4945982E+002  0.2130477E+03  0.7546771E-02  0.1139175E+00
          3   -1    0    0  505    0 -0.00000000000E+00  0.00000000000E+00  0.18805845000E+04  0.18805845000E+04  0.00000000000E+00 0. -1.
         21   -1    0    0  503  502  0.00000000000E+00 -0.00000000000E+00 -0.22783794407E+03  0.22783794407E+03  0.00000000000E+00 0. -1.
         21    1    1    2  503  504  0.83672156941E+02  0.65256655509E+02  0.67681121277E+02  0.12585783691E+03  0.00000000000E+00 0.  1.
         21    1    1    2  504  501  0.48449272742E+02 -0.10048957936E+03  0.48123649973E+02  0.12149639203E+03  0.00000000000E+00 0.  1.
         21    1    1    2  505  502 -0.14928081247E+01  0.20633041920E+03 -0.86270188530E+02  0.22364484298E+03  0.00000000000E+00 0. -1.
          3    1    1    2  501    0 -0.13062862156E+03 -0.17109749535E+03  0.16232119732E+04  0.16374233721E+04  0.00000000000E+00 0. -1.
<scales pt_clust_3="106.11061" pt_clust_4="109.10913" pt_clust_5="213.04769" pt_clust_6="14000.00000"></scales>
<clustering>
<clus scale="  106.111">  2  3  1 -1</clus>
<clus scale="  109.109">  2  4  1 -1</clus>
<clus scale="  213.048">  2  5  1 -1</clus>
<clus scale="  106.111">  2  3  1 -1</clus>
</clustering>
</event>
<event>
 6    0  0.4945982E+002  0.8007207E+02  0.7546771E-02  0.1328847E+00
         -2   -1    0    0    0  501 -0.00000000000E+00  0.00000000000E+00  0.57076935088E+03  0.57076935088E+03  0.00000000000E+00 0.  1.
         21   -1    0    0  503  502  0.00000000000E+00 -0.00000000000E+00 -0.13855887044E+03  0.13855887044E+03  0.00000000000E+00 0.  1.
         21    1    1    2  503  501 -0.76092309882E+02  0.26853451453E+02 -0.86778708896E+02  0.11849764468E+03  0.00000000000E+00 0.  1.
         21    1    1    2  504  505 -0.32862800662E+02  0.34765300294E+02  0.71645063100E+02  0.86148736720E+02  0.00000000000E+00 0.  1.
         21    1    1    2  505  502  0.63757431031E+02 -0.50205392431E+02  0.32807627694E+02  0.87532461840E+02  0.00000000000E+00 0.  1.
         -2    1    1    2    0  504  0.45197679513E+02 -0.11413359316E+02  0.41453649854E+03  0.41714937807E+03  0.00000000000E+00 0.  1.
<scales pt_clust_3="14000.00000" pt_clust_4="30.58127" pt_clust_5="80.07207" pt_clust_6="46.61647"></scales>
<clustering>
<clus scale="   46.616">  1  6  2 -1</clus>
<clus scale="   30.581">  1  4  2 -1</clus>
<clus scale="   80.072">  1  5  2 -1</clus>
<clus scale="   80.072">  2  3  1 -1</clus>
</clustering>
</event>
<event>
 6    0  0.4945982E+002  0.9263431E+02  0.7546771E-02  0.1296595E+00
         21   -1    0    0  505  502  0.00000000000E+00  0.00000000000E+00  0.36873127555E+03  0.36873127555E+03  0.00000000000E+00 0. -1.
         -2   -1    0    0    0  501 -0.00000000000E+00 -0.00000000000E+00 -0.54696550642E+03  0.54696550642E+03  0.00000000000E+00 0. -1.
         21    1    1    2  503  502  0.74007857739E+01  0.37536368175E+02  0.31274042053E+02  0.49414737399E+02  0.00000000000E+00 0. -1.
         21    1    1    2  504  503  0.81566568593E+02 -0.76838084780E+01  0.41685291519E+02  0.91922845657E+02  0.00000000000E+00 0. -1.
         21    1    1    2  505  501 -0.91111955120E+02 -0.91554691301E+02  0.24360162301E+03  0.27572704002E+03  0.00000000000E+00 0. -1.
         -2    1    1    2    0  504  0.21446007538E+01  0.61702131604E+02 -0.49479518745E+03  0.49863215889E+03  0.00000000000E+00 0. -1.
<scales pt_clust_3="38.25899" pt_clust_4="92.63431" pt_clust_5="14000.00000" pt_clust_6="61.96006"></scales>
<clustering>
<clus scale="   38.259">  1  3  2 -1</clus>
<clus scale="   61.960">  2  6  1 -1</clus>
<clus scale="   92.634">  2  4  1 -1</clus>
<clus scale="   38.259">  1  3  2 -1</clus>
</clustering>
</event>
<event>
 6    0  0.4945982E+002  0.1071974E+03  0.7546771E-02  0.1265850E+00
          2   -1    0    0  505    0 -0.00000000000E+00  0.00000000000E+00  0.51579800448E+04  0.51579800448E+04  0.00000000000E+00 0. -1.
         21   -1    0    0  503  502  0.00000000000E+00 -0.00000000000E+00 -0.43913184612E+03  0.43913184612E+03  0.00000000000E+00 0. -1.
         21    1    1    2  503  501  0.86229481734E+02 -0.22051581012E+02 -0.89789092152E+02  0.12642735786E+03  0.00000000000E+00 0. -1.
         21    1    1    2  504  502  0.23680205679E+02  0.18987287273E+02 -0.32454444050E+03  0.32596067720E+03  0.00000000000E+00 0. -1.
         21    1    1    2  505  504 -0.84079848879E+02 -0.61635075884E+02  0.48761593134E+03  0.49863573885E+03  0.00000000000E+00 0. -1.
          2    1    1    2  501    0 -0.25829838535E+02  0.64699369623E+02  0.46455658000E+04  0.46460881171E+04  0.00000000000E+00 0. -1.
<scales pt_clust_3="107.19741" pt_clust_4="30.35242" pt_clust_5="14000.00000" pt_clust_6="69.68517"></scales>
<clustering>
<clus scale="   30.352">  2  4  1 -1</clus>
<clus scale="   69.685">  1  6  2 -1</clus>
<clus scale="  107.197">  2  3  1 -1</clus>
<clus scale="   30.352">  2  3  1 -1</clus>
</clustering>
</event>
<event>
 6    0  0.4945982E+002  0.9629037E+02  0.7546771E-02  0.1288296E+00
          4   -1    0    0  505    0 -0.00000000000E+00  0.00000000000E+00  0.70445330617E+02  0.70445330617E+02  0.00000000000E+00 0.  1.
         21   -1    0    0  504  502  0.00000000000E+00 -0.00000000000E+00 -0.17891076924E+04  0.17891076924E+04  0.00000000000E+00 0. -1.
         21    1    1    2  503  502  0.18836644348E+01  0.78546378692E+02 -0.38070547032E+03  0.38872835879E+03  0.00000000000E+00 0. -1.
         21    1    1    2  504  501 -0.88179462435E+02 -0.36979428184E+02 -0.11865216097E+04  0.11903682733E+04  0.00000000000E+00 0. -1.
         21    1    1    2  505  503 -0.22711120750E+02  0.62224864326E+02 -0.10277052596E+03  0.12226818782E+03  0.00000000000E+00 0. -1.
          4    1    1    2  501    0  0.10900691875E+03 -0.10379181483E+03 -0.48664755825E+02  0.15818820317E+03  0.00000000000E+00 0.  1.
<scales pt_clust_3="82.65972" pt_clust_4="96.29037" pt_clust_5="66.23993" pt_clust_6="14000.00000"></scales>
<clustering>
<clus scale="   66.240">  1  5  2 -1</clus>
<clus scale="   82.660">  2  3  1 -1</clus>
<clus scale="   96.290">  2  4  1 -1</clus>
<clus scale="   82.660">  2  3  1 -1</clus>
</clustering>
</event>
<event>
 6    0  0.4945982E+002  0.1306041E+03  0.7546771E-02  0.1226562E+00
          1   -1    0    0  503    0 -0.00000000000E+00  0.00000000000E+00  0.51787494589E+03  0.51787494589E+03  0.00000000000E+00 0.  1.
         21   -1    0    0  504  502  0.00000000000E+00 -0.00000000000E+00 -0.12589890263E+04  0.12589890263E+04  0.00000000000E+00 0. -1.
         21    1    1    2  503  502  0.18803678621E+03  0.76281141786E+02 -0.83165191086E+03  0.85604996724E+03  0.00000000000E+00 0. -1.
         21    1    1    2  504  505 -0.35504409076E+02  0.65201482043E+02 -0.18673129065E+03  0.20094867811E+03  0.00000000000E+00 0. -1.
         21    1    1    2  505  501 -0.10095019044E+03 -0.21661355014E+02 -0.20000584463E+03  0.22508330266E+03  0.00000000000E+00 0. -1.
          1    1    1    2  501    0 -0.51582186698E+02 -0.11982126882E+03  0.47727496578E+03  0.49478202414E+03  0.00000000000E+00 0.  1.
<scales pt_clust_3="14000.00000" pt_clust_4="74.24147" pt_clust_5="108.38069" pt_clust_6="130.60408"></scales>
<clustering>
<clus scale="   74.241">  2  4  1 -1</clus>
<clus scale="  108.381">  2  5  1 -1</clus>
<clus scale="  130.604">  1  6  2 -1</clus>
<clus scale="   74.241">  2  3  1 -1</clus>
</clustering>
</event>
<event>
 6    0  0.4945982E+002  0.6650501E+02  0.7546771E-02  0.1372398E+00
         21   -1    0    0  504  502  0.00000000000E+00  0.00000000000E+00  0.73005413836E+03  0.73005413836E+03  0.00000000000E+00 0. -1.
          2   -1    0    0  503    0 -0.00000000000E+00 -0.00000000000E+00 -0.61200756237E+03  0.61200756237E+03  0.00000000000E+00 0. -1.
         21    1    1    2  503  502  0.76480395127E+02  0.53055983755E+02  0.71838409643E+02  0.11757952777E+03  0.00000000000E+00 0. -1.
         21    1    1    2  504  505 -0.69257129104E+01 -0.60635119646E+02  0.61003821525E+03  0.61308336081E+03  0.00000000000E+00 0. -1.
         21    1    1    2  505  501 -0.51160227634E+02  0.55993431337E+02 -0.41403002636E+02  0.86410889775E+02  0.00000000000E+00 0. -1.
          2    1    1    2  501    0 -0.18394454582E+02 -0.48414295447E+02 -0.52242704627E+03  0.52498792237E+03  0.00000000000E+00 0. -1.
<scales pt_clust_3="14000.00000" pt_clust_4="61.89517" pt_clust_5="66.50501" pt_clust_6="51.79093"></scales>
<clustering>
<clus scale="   51.791">  2  6  1 -1</clus>
<clus scale="   61.895">  1  4  2 -1</clus>
<clus scale="   66.505">  2  5  1 -1</clus>
<clus scale="   61.895">  1  3  2 -1</clus>
</clustering>
</event>
<event>
 6    0  0.4945982E+002  0.1195915E+03  0.7546771E-02  0.1243772E+00
          1   -1    0    0  504    0 -0.00000000000E+00  0.00000000000E+00  0.31750428968E+03  0.31750428968E+03  0.00000000000E+00 0.  1.
         21   -1    0    0  503  502  0.00000000000E+00 -0.00000000000E+00 -0.38215441606E+03  0.38215441606E+03  0.00000000000E+00 0.  1.
         21    1    1    2  503  505  0.32538289565E+02  0.35798752345E+02  0.12176059704E+03  0.13101883051E+03  0.00000000000E+00 0.  1.
         21    1    1    2  504  502 -0.38085705765E+02 -0.12035471620E+03 -0.34701955837E+03  0.36926731860E+03  0.00000000000E+00 0.  1.
         21    1    1    2  505  501  0.20216269676E+02  0.50728255303E+02  0.27287064139E+02  0.61046190012E+02  0.00000000000E+00 0.  1.
          1    1    1    2  501    0 -0.14668853476E+02  0.33827708557E+02  0.13332177080E+03  0.13832636661E+03  0.00000000000E+00 0.  1.
<scales pt_clust_3="119.59154" pt_clust_4="14000.00000" pt_clust_5="61.25803" pt_clust_6="36.87125"></scales>
<clustering>
<clus scale="   36.871">  1  6  2 -1</clus>
<clus scale="   61.258">  1  5  2 -1</clus>
<clus scale="  119.592">  1  3  2 -1</clus>
<clus scale="  119.592">  2  3  1 -1</clus>
</clustering>
</event>
<event>
 6    0  0.4945982E+002  0.7811028E+02  0.7546771E-02  0.1334501E+00
          1   -1    0    0  503    0 -0.00000000000E+00  0.00000000000E+00  0.27858004513E+03  0.27858004513E+03  0.00000000000E+00 0.  1.
         21   -1    0    0  504  502  0.00000000000E+00 -0.00000000000E+00 -0.29147836761E+03  0.29147836761E+03  0.00000000000E+00 0. -1.
         21    1    1    2  503  505 -0.37160307334E+02 -0.39569197466E+01  0.47146355258E+02  0.60160821713E+02  0.00000000000E+00 0.  1.
         21    1    1    2  504  501  0.73628691362E+02  0.10108792018E+02 -0.13926339669E+03  0.15785330382E+03  0.00000000000E+00 0.  1.
         21    1    1    2  505  502 -0.39733827307E+02  0.65877105199E+02 -0.11867205683E+03  0.14142710877E+03  0.00000000000E+00 0. -1.
          1    1    1    2  501    0  0.32654432786E+01 -0.72028977470E+02  0.19789077578E+03  0.21061717844E+03  0.00000000000E+00 0.  1.
<scales pt_clust_3="37.37038" pt_clust_4="72.77581" pt_clust_5="14000.00000" pt_clust_6="78.11028"></scales>
<clustering>
<clus scale="   37.370">  1  3  2 -1</clus>
<clus scale="   72.776">  2  4  1 -1</clus>
<clus scale="   78.110">  1  6  2 -1</clus>
<clus scale="   72.776">  2  3  1 -1</clus>
</clustering>
</event>
<event>
 6    0  0.4945982E+002  0.1113868E+03  0.7546771E-02  0.1258023E+00
         21   -1    0    0  503  502  0.00000000000E+00  0.00000000000E+00  0.47000192949E+03  0.47000192949E+03  0.00000000000E+00 0.  1.
          1   -1    0    0  505    0 -0.00000000000E+00 -0.00000000000E+00 -0.18521013816E+04  0.18521013816E+04  0.00000000000E+00 0.  1.
         21    1    1    2  503  501  0.64211792941E+01  0.54424677235E+02  0.95779947104E+02  0.11034978615E+03  0.00000000000E+00 0. -1.
         21    1    1    2  504  502 -0.21973158773E+02  0.56579849467E+02  0.34625328676E+03  0.35153298233E+03  0.00000000000E+00 0.  1.
         21    1    1    2  505  504  0.21822273988E+02 -0.14271908085E+03 -0.27365529969E+03  0.30940615819E+03  0.00000000000E+00 0. -1.
          1    1    1    2  501    0 -0.62702945095E+01  0.31714554150E+02 -0.15504773863E+04  0.15508143844E+04  0.00000000000E+00 0.  1.
<scales pt_clust_3="55.54606" pt_clust_4="111.38684" pt_clust_5="14000.00000" pt_clust_6="32.32846"></scales>
<clustering>
<clus scale="   32.328">  2  6  1 -1</clus>
<clus scale="   55.546">  1  3  2 -1</clus>
<clus scale="  111.387">  1  4  2 -1</clus>
<clus scale="   55.546">  1  3  2 -1</clus>
</clustering>
</event>
<event>
 6    0  0.4945982E+002  0.1042545E+03  0.7546771E-02  0.1271595E+00
          2   -1    0    0  504    0 -0.00000000000E+00  0.00000000000E+00  0.94627894709E+03  0.94627894709E+03  0.00000000000E+00 0.  1.
         21   -1    0    0  501  502  0.00000000000E+00 -0.00000000000E+00 -0.90049508868E+02  0.90049508868E+02  0.00000000000E+00 0.  1.
         21    1    1    2  503  502 -0.19232803752E+02  0.58879551305E+02 -0.43203578982E+02  0.75519875125E+02  0.00000000000E+00 0.  1.
         21    1    1    2  504  505 -0.65718043467E+02 -0.59533547333E+02  0.82391603396E+02  0.12104330137E+03  0.00000000000E+00 0. -1.
         21    1    1    2  505  503  0.58155289033E+01 -0.37208484575E+02  0.30817379372E+02  0.48662126671E+02  0.00000000000E+00 0. -1.
          2    1    1    2  501    0  0.79135318316E+02  0.37862480603E+02  0.78622403443E+03  0.79110315280E+03  0.00000000000E+00 0.  1.
<scales pt_clust_3="61.94112" pt_clust_4="35.91014" pt_clust_5="35.91014" pt_clust_6="88.50239"></scales>
<clustering>
<clus scale="   35.910">  4  5 -1 -1</clus>
<clus scale="   61.941">  2  3  1 -1</clus>
<clus scale="   88.502">  1  6  2 -1</clus>
<clus scale="   61.941">  2  3  1 -1</clus>
</clustering>
</event>
<event>
 6    0  0.4945982E+002  0.9076669E+02  0.7546771E-02  0.1301006E+00
          2   -1    0    0  505    0 -0.00000000000E+00  0.00000000000E+00  0.22304386385E+04  0.22304386385E+04  0.00000000000E+00 0.  1.
         21   -1    0    0  503  502  0.00000000000E+00 -0.00000000000E+00 -0.15510346468E+02  0.15510346468E+02  0.00000000000E+00 0.  1.
         21    1    1    2  503  501 -0.80340357663E+01 -0.14113879351E+03  0.90119495277E+03  0.91221546120E+03  0.00000000000E+00 0.  1.
         21    1    1    2  504  502 -0.16524442684E+02  0.35658614712E+02  0.12135616155E+03  0.12756140465E+03  0.00000000000E+00 0.  1.
         21    1    1    2  505  504  0.90129326832E+01  0.35382539341E+02  0.52010115848E+02  0.63546905482E+02  0.00000000000E+00 0.  1.
          2    1    1    2  501    0  0.15545545767E+02  0.70097639454E+02  0.11403670619E+04  0.11426252137E+04  0.00000000000E+00 0.  1.
<scales pt_clust_3="82.91767" pt_clust_4="35.58810" pt_clust_5="35.58810" pt_clust_6="71.80072"></scales>
<clustering>
<clus scale="   35.588">  4  5 -1 -1</clus>
<clus scale="   71.801">  1  6  2 -1</clus>
<clus scale="   82.918">  1  3  2 -1</clus>
<clus scale="   90.767">  2  3  1 -1</clus>
</clustering>
</event>
<event>
 6    0  0.4945982E+002  0.1322438E+03  0.7546771E-02  0.1224164E+00
         -3   -1    0    0    0  501 -0.00000000000E+00  0.00000000000E+00  0.16938624379E+04  0.16938624379E+04  0.00000000000E+00 0.  1.
         21   -1    0    0  504  502  0.00000000000E+00 -0.00000000000E+00 -0.84894167562E+03  0.84894167562E+03  0.00000000000E+00 0.  1.
         21    1    1    2  503  505 -0.59104867641E+02 -0.10674496968E+02 -0.34034449349E+03  0.34560339193E+03  0.00000000000E+00 0.  1.
         21    1    1    2  504  503 -0.90753699569E+01  0.55327927294E+02 -0.29861650687E+03  0.30383442869E+03  0.00000000000E+00 0.  1.
         21    1    1    2  505  501 -0.41521309962E+02  0.20305484544E+02 -0.19969245154E+03  0.20497172265E+03  0.00000000000E+00 0.  1.
         -3    1    1    2    0  502  0.10970154756E+03 -0.64958914869E+02  0.16835742141E+04  0.16883945702E+04  0.00000000000E+00 0.  1.
<scales pt_clust_3="31.31986" pt_clust_4="56.06730" pt_clust_5="31.31986" pt_clust_6="127.33326"></scales>
<clustering>
<clus scale="   31.320">  3  5 -1 -1</clus>
<clus scale="   56.067">  2  4  1 -1</clus>
<clus scale="  127.333">  1  6  2 -1</clus>
<clus scale="   56.067">  2  3  1 -1</clus>
</clustering>
</event>
<event>
 6    0  0.4945982E+002  0.3225083E+03  0.7546771E-02  0.1074501E+00
         21   -1    0    0  505  502  0.00000000000E+00  0.00000000000E+00  0.18757675195E+03  0.18757675195E+03  0.00000000000E+00 0.  1.
          2   -1    0    0  504    0 -0.00000000000E+00 -0.00000000000E+00 -0.91178710197E+03  0.91178710197E+03  0.00000000000E+00 0.  1.
         21    1    1    2  503  502 -0.15937762724E+03 -0.53567027109E+02 -0.12607427910E+03  0.21015560499E+03  0.00000000000E+00 0.  1.
         21    1    1    2  504  503 -0.14042403669E+03 -0.73623063827E+02 -0.37676528834E+02  0.16296866703E+03  0.00000000000E+00 0.  1.
         21    1    1    2  505  501  0.24795162950E+03  0.17222816744E+03 -0.20670971775E+03  0.36588448948E+03  0.00000000000E+00 0.  1.
          2    1    1    2  501    0  0.51850034432E+02 -0.45038076505E+02 -0.35374982433E+03  0.36035509240E+03  0.00000000000E+00 0.  1.
<scales pt_clust_3="78.63252" pt_clust_4="78.63252" pt_clust_5="312.51011" pt_clust_6="68.67936"></scales>
<clustering>
<clus scale="   68.679">  2  6  1 -1</clus>
<clus scale="   78.633">  3  4 -1 -1</clus>
<clus scale="  312.510">  2  5  1 -1</clus>
<clus scale="  322.508">  1  3  2 -1</clus>
</clustering>
</event>
<event>
 6    0  0.4945982E+002  0.1292556E+03  0.7546771E-02  0.1228564E+00
         21   -1    0    0  501  502  0.00000000000E+00  0.00000000000E+00  0.15841277323E+04  0.15841277323E+04  0.00000000000E+00 0. -1.
          2   -1    0    0  503    0 -0.00000000000E+00 -0.00000000000E+00 -0.76366992311E+03  0.76366992311E+03  0.00000000000E+00 0. -1.
         21    1    1    2  503  504 -0.90208798333E+02  0.68241256236E+01 -0.18789882242E+03  0.20854295350E+03  0.00000000000E+00 0.  1.
         21    1    1    2  504  505  0.14837664589E+03  0.73035767576E+02 -0.25537877197E+02  0.16733808760E+03  0.00000000000E+00 0.  1.
         21    1    1    2  505  502 -0.83260902157E+02 -0.98009524066E+02  0.14996393378E+04  0.15051433115E+04  0.00000000000E+00 0. -1.
          2    1    1    2  501    0  0.25093054599E+02  0.18149630866E+02 -0.46574482899E+03  0.46677330282E+03  0.00000000000E+00 0. -1.
<scales pt_clust_3="75.88131" pt_clust_4="129.25560" pt_clust_5="14000.00000" pt_clust_6="30.96886"></scales>
<clustering>
<clus scale="   30.969">  2  6  1 -1</clus>
<clus scale="   75.881">  2  3  1 -1</clus>
<clus scale="  129.256">  2  4  1 -1</clus>
<clus scale="  129.256">  1  3  2 -1</clus>
</clustering>
</event>
<event>
 6    0  0.4945982E+002  0.9845945E+02  0.7546771E-02  0.1283569E+00
         21   -1    0    0  505  502  0.00000000000E+00  0.00000000000E+00  0.35439036298E+03  0.35439036298E+03  0.00000000000E+00 0.  1.
         -1   -1    0    0    0  501 -0.00000000000E+00 -0.00000000000E+00 -0.99710340105E+03  0.99710340105E+03  0.00000000000E+00 0.  1.
         21    1    1    2  503  501  0.19435716264E+02 -0.46832581545E+02 -0.53397413686E+02  0.73636414559E+02  0.00000000000E+00 0.  1.
         21    1    1    2  504  502  0.20419135383E+01  0.16776757007E+03  0.19010712190E+03  0.25355639367E+03  0.00000000000E+00 0.  1.
         21    1    1    2  505  503 -0.81330498799E+01 -0.73581825124E+02  0.11050712440E+03  0.13301224016E+03  0.00000000000E+00 0.  1.
         -1    1    1    2    0  504 -0.13344579922E+02 -0.47353163398E+02 -0.88992987068E+03  0.89128871564E+03  0.00000000000E+00 0.  1.
<scales pt_clust_3="75.94783" pt_clust_4="98.45945" pt_clust_5="14000.00000" pt_clust_6="49.19756"></scales>
<clustering>
<clus scale="   49.198">  2  6  1 -1</clus>
<clus scale="   75.948">  2  3  1 -1</clus>
<clus scale="   98.459">  2  4  1 -1</clus>
<clus scale="   98.459">  1  3  2 -1</clus>
</clustering>
</event>
<event>
 6    0  0.4945982E+002  0.9915548E+02  0.7546771E-02  0.1282082E+00
         -1   -1    0    0    0  501 -0.00000000000E+00  0.00000000000E+00  0.69803960699E+03  0.69803960699E+03  0.00000000000E+00 0. -1.
         21   -1    0    0  505  502  0.00000000000E+00 -0.00000000000E+00 -0.54830192603E+02  0.54830192603E+02  0.00000000000E+00 0. -1.
         21    1    1    2  503  504  0.98629601836E+02 -0.92880599209E+02  0.26136861359E+03  0.29439455878E+03  0.00000000000E+00 0. -1.
         21    1    1    2  504  502 -0.87741383175E+02  0.28459488118E+02  0.42015565981E+02  0.10135975814E+03  0.00000000000E+00 0. -1.
         21    1    1    2  505  501  0.34645092002E+02  0.27408198886E+02  0.87036014100E+02  0.97605120339E+02  0.00000000000E+00 0. -1.
         -1    1    1    2    0  503 -0.45533310663E+02  0.37012912205E+02  0.25278922072E+03  0.25951036234E+03  0.00000000000E+00 0. -1.
<scales pt_clust_3="99.15548" pt_clust_4="14000.00000" pt_clust_5="44.17569" pt_clust_6="57.58487"></scales>
<clustering>
<clus scale="   44.176">  1  5  2 -1</clus>
<clus scale="   57.585">  1  6  2 -1</clus>
<clus scale="   99.155">  1  3  2 -1</clus>
<clus scale="   99.155">  2  3  1 -1</clus>
</clustering>
</event>
<event>
 6    0  0.4945982E+002  0.1001689E+03  0.7546771E-02  0.1279941E+00
         21   -1    0    0  505  502  0.00000000000E+00  0.00000000000E+00  0.34423951289E+03  0.34423951289E+03  0.00000000000E+00 0.  1.
          2   -1    0    0  503    0 -0.00000000000E+00 -0.00000000000E+00 -0.29532546675E+04  0.29532546675E+04  0.00000000000E+00 0.  1.
         21    1    1    2  503  504 -0.54498984781E+01 -0.50200075538E+02 -0.57445523910E+02  0.76483574673E+02  0.00000000000E+00 0.  1.
         21    1    1    2  504  502  0.14427780164E+02 -0.52224721914E+02 -0.12601150576E+02  0.55627074481E+02  0.00000000000E+00 0.  1.
         21    1    1    2  505  501 -0.56651563883E+02  0.69918517804E+02  0.30644522234E+03  0.31938483546E+03  0.00000000000E+00 0.  1.
          2    1    1    2  501    0  0.47673682197E+02  0.32506279648E+02 -0.28454137024E+04  0.28459986957E+04  0.00000000000E+00 0.  1.
<scales pt_clust_3="42.90534" pt_clust_4="42.90534" pt_clust_5="89.76945" pt_clust_6="57.70128"></scales>
<clustering>
<clus scale="   42.905">  3  4 -1 -1</clus>
<clus scale="   57.701">  2  6  1 -1</clus>
<clus scale="   89.769">  1  5  2 -1</clus>
<clus scale="   89.769">  1  3  2 -1</clus>
</clustering>
</event>
<event>
 6    0  0.6214496E+002  0.1730220E+03  0.7546771E-02  0.1174732E+00
          2   -1    0    0  505    0 -0.00000000000E+00  0.00000000000E+00  0.26026155268E+04  0.26026155268E+04  0.00000000000E+00 0. -1.
         21   -1    0    0  503  502  0.00000000000E+00 -0.00000000000E+00 -0.64437590637E+03  0.64437590637E+03  0.00000000000E+00 0. -1.
         21    1    1    2  503  504  0.12562048620E+03 -0.13074373696E+02 -0.49505919310E+03  0.51091589374E+03  0.00000000000E+00 0. -1.
         21    1    1    2  504  501  0.36023612164E+02 -0.35017255552E+02 -0.12320289815E+03  0.13305210608E+03  0.00000000000E+00 0. -1.
         21    1    1    2  505  502 -0.15054387402E+01  0.31329758982E+02  0.12173851502E+02  0.33645546571E+02  0.00000000000E+00 0. -1.
          2    1    1    2  501    0 -0.16013865962E+03  0.16761870266E+02  0.25643278601E+04  0.25693778867E+04  0.00000000000E+00 0. -1.
<scales pt_clust_3="38.31440" pt_clust_4="38.31440" pt_clust_5="31.36591" pt_clust_6="161.03252"></scales>
<clustering>
<clus scale="   31.366">  2  5  1 -1</clus>
<clus scale="   38.314">  3  4 -1 -1</clus>
<clus scale="  161.033">  1  6  2 -1</clus>
<clus scale="   31.366">  2  3  1 -1</clus>
</clustering>
</event>
<event>
 6    0  0.4945982E+002  0.1975976E+03  0.7546771E-02  0.1151782E+00
         21   -1    0    0  505  502  0.00000000000E+00  0.00000000000E+00  0.35873638071E+03  0.35873638071E+03  0.00000000000E+00 0. -1.
          2   -1    0    0  502    0 -0.00000000000E+00 -0.00000000000E+00 -0.43428967961E+03  0.43428967961E+03  0.00000000000E+00 0.  1.
         21    1    1    2  503  504 -0.91722869658E+02 -0.68732824475E+02  0.60684038966E+02  0.12969132031E+03  0.00000000000E+00 0.  1.
         21    1    1    2  504  501 -0.69382985117E+02 -0.58060824471E+02 -0.24598596627E+02  0.93755794050E+02  0.00000000000E+00 0.  1.
         21    1    1    2  505  503  0.36738026943E+02  0.22981255378E+01  0.20448780543E+03  0.20777446083E+03  0.00000000000E+00 0. -1.
          2    1    1    2  501    0  0.12436782783E+03  0.12449552341E+03 -0.31612654667E+03  0.36180448513E+03  0.00000000000E+00 0.  1.
<scales pt_clust_3="75.81943" pt_clust_4="75.81943" pt_clust_5="36.80984" pt_clust_6="180.13907"></scales>
<clustering>
<clus scale="   36.810">  1  5  2 -1</clus>
<clus scale="   75.819">  3  4 -1 -1</clus>
<clus scale="  180.139">  2  6  1 -1</clus>
<clus scale="   36.810">  1  3  2 -1</clus>
</clustering>
</event>
<event>
 6    0  0.4945982E+002  0.1052951E+03  0.7546771E-02  0.1269539E+00
         21   -1    0    0  504  502  0.00000000000E+00  0.00000000000E+00  0.38270189736E+03  0.38270189736E+03  0.00000000000E+00 0. -1.
          1   -1    0    0  505    0 -0.00000000000E+00 -0.00000000000E+00 -0.36288170070E+03  0.36288170070E+03  0.00000000000E+00 0. -1.
         21    1    1    2  503  502 -0.62405044548E+02  0.17572658606E+02 -0.42498514943E+02  0.77519750309E+02  0.00000000000E+00 0. -1.
         21    1    1    2  504  501  0.26776002799E+02 -0.53830685117E+02  0.33701539007E+03  0.34233619459E+03  0.00000000000E+00 0. -1.
         21    1    1    2  505  503 -0.39253296615E+02 -0.24011052106E+02 -0.14346397213E+02  0.48199284552E+02  0.00000000000E+00 0. -1.
          1    1    1    2  501    0  0.74882338364E+02  0.60269078617E+02 -0.26035028125E+03  0.27752836861E+03  0.00000000000E+00 0. -1.
<scales pt_clust_3="39.49784" pt_clust_4="60.12235" pt_clust_5="39.49784" pt_clust_6="94.28145"></scales>
<clustering>
<clus scale="   39.498">  3  5 -1 -1</clus>
<clus scale="   60.122">  1  4  2 -1</clus>
<clus scale="   94.281">  2  6  1 -1</clus>
<clus scale="   60.122">  1  3  2 -1</clus>
</clustering>
</event>
<event>
 6    0  0.4945982E+002  0.1206093E+03  0.7546771E-02  0.1242095E+00
         21   -1    0    0  503  502  0.00000000000E+00  0.00000000000E+00  0.90047953176E+02  0.90047953176E+02  0.00000000000E+00 0. -1.
          2   -1    0    0  502    0 -0.00000000000E+00 -0.00000000000E+00 -0.64302787562E+03  0.64302787562E+03  0.00000000000E+00 0. -1.
         21    1    1    2  503  505 -0.58032745293E+02 -0.22376087499E+02  0.44216611432E+02  0.76312499268E+02  0.00000000000E+00 0. -1.
         21    1    1    2  504  501 -0.34907505593E+02  0.50615964817E+02 -0.58478309485E+02  0.84854124952E+02  0.00000000000E+00 0. -1.
         21    1    1    2  505  504  0.18538386943E+00  0.51075216196E+02 -0.64690604163E+02  0.82423214834E+02  0.00000000000E+00 0. -1.
          2    1    1    2  501    0  0.92754867016E+02 -0.79315093514E+02 -0.47402762022E+03  0.48948598974E+03  0.00000000000E+00 0. -1.
<scales pt_clust_3="62.19718" pt_clust_4="32.40873" pt_clust_5="32.40873" pt_clust_6="115.24844"></scales>
<clustering>
<clus scale="   32.409">  4  5 -1 -1</clus>
<clus scale="   62.197">  1  3  2 -1</clus>
<clus scale="  115.248">  2  6  1 -1</clus>
<clus scale="   62.197">  1  3  2 -1</clus>
</clustering>
</event>
<event>
 6    0  0.4945982E+002  0.1238224E+03  0.7546771E-02  0.1236921E+00
         21   -1    0    0  505  502  0.00000000000E+00  0.00000000000E+00  0.84661057380E+03  0.84661057380E+03  0.00000000000E+00 0. -1.
          2   -1    0    0  503    0 -0.00000000000E+00 -0.00000000000E+00 -0.81215473735E+03  0.81215473735E+03  0.00000000000E+00 0.  1.
         21    1    1    2  503  502 -0.48401915715E+02 -0.34424954753E+02 -0.20816644294E+03  0.21647422692E+03  0.00000000000E+00 0.  1.
         21    1    1    2  504  501 -0.12359466813E+03  0.60287459498E+02 -0.15325891623E+03  0.20590899730E+03  0.00000000000E+00 0.  1.
         21    1    1    2  505  504  0.12382743031E+03  0.10950248929E+01  0.80959064485E+03  0.81900637593E+03  0.00000000000E+00 0. -1.
          2    1    1    2  501    0  0.48169153539E+02 -0.26957529638E+02 -0.41370944922E+03  0.41737571100E+03  0.00000000000E+00 0.  1.
<scales pt_clust_3="53.83666" pt_clust_4="123.82239" pt_clust_5="14000.00000" pt_clust_6="55.19942"></scales>
<clustering>
<clus scale="   55.199">  2  6  1 -1</clus>
<clus scale="   53.837">  2  3  1 -1</clus>
<clus scale="  123.822">  2  4  1 -1</clus>
<clus scale="  123.822">  1  3  2 -1</clus>
</clustering>
</event>
<event>
 6    0  0.4945982E+002  0.6008026E+02  0.7546771E-02  0.1397495E+00
          2   -1    0    0  503    0 -0.00000000000E+00  0.00000000000E+00  0.21093724262E+04  0.21093724262E+04  0.00000000000E+00 0. -1.
         21   -1    0    0  505  502  0.00000000000E+00 -0.00000000000E+00 -0.26216677035E+03  0.26216677035E+03  0.00000000000E+00 0. -1.
         21    1    1    2  503  502 -0.77313440471E+02 -0.44522965711E+02 -0.22453389706E+03  0.24160946480E+03  0.00000000000E+00 0. -1.
         21    1    1    2  504  501  0.32916377506E+02  0.85912510582E+02  0.11817603647E+03  0.14976656162E+03  0.00000000000E+00 0. -1.
         21    1    1    2  505  504  0.47012674497E+02  0.78272580971E+01  0.30751496103E+02  0.56719591370E+02  0.00000000000E+00 0. -1.
          2    1    1    2  501    0 -0.26156115312E+01 -0.49216802968E+02  0.19228120203E+04  0.19234435788E+04  0.00000000000E+00 0. -1.
<scales pt_clust_3="60.08026" pt_clust_4="14000.00000" pt_clust_5="47.65981" pt_clust_6="49.27323"></scales>
<clustering>
<clus scale="   47.660">  2  5  1 -1</clus>
<clus scale="   49.273">  1  6  2 -1</clus>
<clus scale="   60.080">  2  3  1 -1</clus>
<clus scale="   47.660">  2  3  1 -1</clus>
</clustering>
</event>
<event>
 6    0  0.4945982E+002  0.1909012E+03  0.7546771E-02  0.1157651E+00
         21   -1    0    0  503  502  0.00000000000E+00  0.00000000000E+00  0.14526987861E+04  0.14526987861E+04  0.00000000000E+00 0.  1.
         -1   -1    0    0    0  501 -0.00000000000E+00 -0.00000000000E+00 -0.18353203621E+03  0.18353203621E+03  0.00000000000E+00 0.  1.
         21    1    1    2  503  501 -0.14670359903E+03  0.13137816228E+03  0.11624650184E+04  0.11790280261E+04  0.00000000000E+00 0.  1.
         21    1    1    2  504  502 -0.11331492399E+02 -0.31865192250E+02  0.44719606913E+02  0.56068141040E+02  0.00000000000E+00 0.  1.
         21    1    1    2  505  504  0.12695069341E+03 -0.16748232743E+03  0.16963574917E+03  0.27007979553E+03  0.00000000000E+00 0.  1.
         -1    1    1    2    0  505  0.31084398025E+02  0.67969357404E+02 -0.10765362455E+03  0.13105485960E+03  0.00000000000E+00 0.  1.
<scales pt_clust_3="190.90118" pt_clust_4="33.82001" pt_clust_5="14000.00000" pt_clust_6="74.45893"></scales>
<clustering>
<clus scale="   33.820">  1  4  2 -1</clus>
<clus scale="   74.459">  2  6  1 -1</clus>
<clus scale="  190.901">  1  3  2 -1</clus>
<clus scale="   33.820">  1  3  2 -1</clus>
</clustering>
</event>
<event>
 6    0  0.1160784E+003  0.1352577E+03  0.7546771E-02  0.1219856E+00
         -2   -1    0    0    0  501 -0.00000000000E+00  0.00000000000E+00  0.11412656016E+04  0.11412656016E+04  0.00000000000E+00 0. -1.
         21   -1    0    0  505  502  0.00000000000E+00 -0.00000000000E+00 -0.47467755627E+03  0.47467755627E+03  0.00000000000E+00 0.  1.
         21    1    1    2  503  502 -0.31291178095E+02  0.18904268107E+02 -0.12881270824E+02  0.38761273422E+02  0.00000000000E+00 0. -1.
         21    1    1    2  504  503  0.43409649037E+02  0.55244114547E+01  0.39453853100E+01  0.43937260004E+02  0.00000000000E+00 0. -1.
         21    1    1    2  505  501 -0.31443867492E+01  0.11077711675E+03 -0.41744664798E+03  0.43190642583E+03  0.00000000000E+00 0.  1.
         -2    1    1    2    0  504 -0.89740841932E+01 -0.13520579631E+03  0.10929705789E+04  0.11013381987E+04  0.00000000000E+00 0. -1.
<scales pt_clust_3="36.55830" pt_clust_4="42.49529" pt_clust_5="135.25770" pt_clust_6="14000.00000"></scales>
<clustering>
<clus scale="   36.558">  2  3  1 -1</clus>
<clus scale="   42.495">  2  4  1 -1</clus>
<clus scale="  135.258">  2  5  1 -1</clus>
<clus scale="   36.558">  2  3  1 -1</clus>
</clustering>
</event>
<event>
 6    0  0.4945982E+002  0.1146884E+03  0.7546771E-02  0.1252126E+00
         21   -1    0    0  505  502  0.00000000000E+00  0.00000000000E+00  0.31582131088E+03  0.31582131088E+03  0.00000000000E+00 0. -1.
          2   -1    0    0  503    0 -0.00000000000E+00 -0.00000000000E+00 -0.10633017940E+04  0.10633017940E+04  0.00000000000E+00 0. -1.
         21    1    1    2  503  504 -0.97116432210E+02 -0.22471962807E+02  0.18923923063E+03  0.21388800089E+03  0.00000000000E+00 0. -1.
         21    1    1    2  504  502 -0.60300801081E+02  0.35223779362E+02  0.45015830827E+02  0.83086258001E+02  0.00000000000E+00 0. -1.
         21    1    1    2  505  501  0.43202476628E+02 -0.25645554116E+02  0.33527188325E+02  0.60400503224E+02  0.00000000000E+00 0. -1.
          2    1    1    2  501    0  0.11421475666E+03  0.12893737561E+02 -0.10152627329E+04  0.10217483427E+04  0.00000000000E+00 0. -1.
<scales pt_clust_3="14000.00000" pt_clust_4="57.86607" pt_clust_5="50.24090" pt_clust_6="114.68838"></scales>
<clustering>
<clus scale="   50.241">  1  5  2 -1</clus>
<clus scale="   57.866">  1  4  2 -1</clus>
<clus scale="  114.688">  2  6  1 -1</clus>
<clus scale="   50.241">  1  3  2 -1</clus>
</clustering>
</event>
<event>
 6    0  0.4945982E+002  0.7175256E+02  0.7546771E-02  0.1354233E+00
         21   -1    0    0  503  502  0.00000000000E+00  0.00000000000E+00  0.46232639995E+02  0.46232639995E+02  0.00000000000E+00 0.  1.
          2   -1    0    0  505    0 -0.00000000000E+00 -0.00000000000E+00 -0.16837242046E+04  0.16837242046E+04  0.00000000000E+00 0.  1.
         21    1    1    2  503  504 -0.33285711692E+02  0.45381617343E+02 -0.12065223657E+02  0.57558660664E+02  0.00000000000E+00 0.  1.
         21    1    1    2  504  501  0.94579304749E+02 -0.11954406765E+02 -0.15349715885E+03  0.18069181083E+03  0.00000000000E+00 0.  1.
         21    1    1    2  505  502  0.87261295482E+01 -0.39324919014E+02 -0.35895142664E+02  0.53954201497E+02  0.00000000000E+00 0. -1.
          2    1    1    2  501    0 -0.70019722605E+02  0.58977084357E+01 -0.14360340394E+04  0.14377521716E+04  0.00000000000E+00 0.  1.
<scales pt_clust_3="35.16413" pt_clust_4="71.75256" pt_clust_5="40.28144" pt_clust_6="14000.00000"></scales>
<clustering>
<clus scale="   40.281">  1  5  2 -1</clus>
<clus scale="   35.164">  1  3  2 -1</clus>
<clus scale="   71.753">  1  4  2 -1</clus>
<clus scale="   40.281">  1  3  2 -1</clus>
</clustering>
</event>
<event>
 6    0  0.4945982E+002  0.1764888E+03  0.7546771E-02  0.1171245E+00
         21   -1    0    0  504  502  0.00000000000E+00  0.00000000000E+00  0.39547383659E+03  0.39547383659E+03  0.00000000000E+00 0.  1.
          2   -1    0    0  505    0 -0.00000000000E+00 -0.00000000000E+00 -0.62203546540E+03  0.62203546540E+03  0.00000000000E+00 0. -1.
         21    1    1    2  503  501 -0.64126151756E+02 -0.93898442550E+02 -0.11925923519E+03  0.16477817219E+03  0.00000000000E+00 0. -1.
         21    1    1    2  504  503  0.31514110476E+02  0.56534817624E+01  0.18966940857E+03  0.19235276333E+03  0.00000000000E+00 0.  1.
         21    1    1    2  505  502  0.11583435937E+03  0.14500749052E+03  0.12681593939E+03  0.22478223595E+03  0.00000000000E+00 0. -1.
          2    1    1    2  501    0 -0.83222318092E+02 -0.56762529730E+02 -0.42378774157E+03  0.43559613051E+03  0.00000000000E+00 0. -1.
<scales pt_clust_3="176.48883" pt_clust_4="32.01720" pt_clust_5="14000.00000" pt_clust_6="99.89391"></scales>
<clustering>
<clus scale="   32.017">  1  4  2 -1</clus>
<clus scale="   99.894">  2  6  1 -1</clus>
<clus scale="  176.489">  2  3  1 -1</clus>
<clus scale="   32.017">  1  3  2 -1</clus>
</clustering>
</event>
<event>
 6    0  0.4945982E+002  0.9675730E+02  0.7546771E-02  0.1287267E+00
         21   -1    0    0  504  502  0.00000000000E+00  0.00000000000E+00  0.29250464138E+03  0.29250464138E+03  0.00000000000E+00 0.  1.
          2   -1    0    0  503    0 -0.00000000000E+00 -0.00000000000E+00 -0.27894901766E+04  0.27894901766E+04  0.00000000000E+00 0.  1.
         21    1    1    2  503  502 -0.34508082471E+02  0.20113437565E+02 -0.24448446564E+03  0.24772567906E+03  0.00000000000E+00 0. -1.
         21    1    1    2  504  505 -0.30314863602E+02 -0.42112290515E+02  0.28247157398E+03  0.28719788662E+03  0.00000000000E+00 0.  1.
         21    1    1    2  505  501  0.64265358574E+02 -0.64509660970E+02 -0.39536665390E+03  0.40571704880E+03  0.00000000000E+00 0.  1.
          2    1    1    2  501    0  0.55758749977E+00  0.86508513919E+02 -0.21396059896E+04  0.21413542035E+04  0.00000000000E+00 0.  1.
<scales pt_clust_3="39.94193" pt_clust_4="51.89227" pt_clust_5="96.75730" pt_clust_6="14000.00000"></scales>
<clustering>
<clus scale="   39.942">  2  3  1 -1</clus>
<clus scale="   51.892">  1  4  2 -1</clus>
<clus scale="   96.757">  1  5  2 -1</clus>
<clus scale="   51.892">  1  3  2 -1</clus>
</clustering>
</event>
<event>
 6    0  0.4945982E+002  0.8851114E+02  0.7546771E-02  0.1306498E+00
         -3   -1    0    0    0  501 -0.00000000000E+00  0.00000000000E+00  0.10913309129E+04  0.10913309129E+04  0.00000000000E+00 0. -1.
         21   -1    0    0  505  502  0.00000000000E+00 -0.00000000000E+00 -0.49942448713E+03  0.49942448713E+03  0.00000000000E+00 0.  1.
         21    1    1    2  503  501  0.50690246980E+02 -0.21264937538E+02 -0.10298327246E+03  0.11673582618E+03  0.00000000000E+00 0.  1.
         21    1    1    2  504  502 -0.66853961838E+02 -0.11191314907E+02 -0.31084474247E+03  0.31814957436E+03  0.00000000000E+00 0. -1.
         21    1    1    2  505  503  0.68695774974E+02 -0.23342642190E+02 -0.55827021075E+02  0.91545861325E+02  0.00000000000E+00 0.  1.
         -3    1    1    2    0  504 -0.52532060115E+02  0.55798894635E+02  0.10615614618E+04  0.10643241382E+04  0.00000000000E+00 0. -1.
<scales pt_clust_3="38.11744" pt_clust_4="67.78420" pt_clust_5="38.11744" pt_clust_6="76.91897"></scales>
<clustering>
<clus scale="   38.117">  3  5 -1 -1</clus>
<clus scale="   67.784">  2  4  1 -1</clus>
<clus scale="   76.919">  1  6  2 -1</clus>
<clus scale="   67.784">  2  3  1 -1</clus>
</clustering>
</event>
<event>
 6    0  0.4945982E+002  0.1256026E+03  0.7546771E-02  0.1234130E+00
          2   -1    0    0  503    0 -0.00000000000E+00  0.00000000000E+00  0.16724996686E+04  0.16724996686E+04  0.00000000000E+00 0. -1.
         21   -1    0    0  504  502  0.00000000000E+00 -0.00000000000E+00 -0.63855298883E+02  0.63855298883E+02  0.00000000000E+00 0.  1.
         21    1    1    2  503  505  0.16291848046E+02  0.27244432176E+02  0.84803784772E+02  0.90550346819E+02  0.00000000000E+00 0. -1.
         21    1    1    2  504  501 -0.27868522296E+02 -0.10353035580E+03  0.46338078523E+03  0.47562268788E+03  0.00000000000E+00 0. -1.
         21    1    1    2  505  502 -0.32390741143E+02  0.12671045333E+03  0.25730357038E+02  0.13329197413E+03  0.00000000000E+00 0.  1.
          2    1    1    2  501    0  0.43967415393E+02 -0.50424529708E+02  0.10347294426E+04  0.10368899586E+04  0.00000000000E+00 0. -1.
<scales pt_clust_3="31.74403" pt_clust_4="14000.00000" pt_clust_5="125.60265" pt_clust_6="63.61437"></scales>
<clustering>
<clus scale="   31.744">  1  3  2 -1</clus>
<clus scale="   63.614">  1  6  2 -1</clus>
<clus scale="  125.603">  2  5  1 -1</clus>
<clus scale="  125.603">  2  3  1 -1</clus>
</clustering>
</event>
<event>
 6    0  0.4945982E+002  0.9646496E+02  0.7546771E-02  0.1287910E+00
         21   -1    0    0  504  502  0.00000000000E+00  0.00000000000E+00  0.71912346204E+03  0.71912346204E+03  0.00000000000E+00 0.  1.
          1   -1    0    0  503    0 -0.00000000000E+00 -0.00000000000E+00 -0.13246481764E+04  0.13246481764E+04  0.00000000000E+00 0. -1.
         21    1    1    2  503  502 -0.48647102798E+01 -0.59885282945E+02  0.61117609405E+03  0.61412224390E+03  0.00000000000E+00 0.  1.
         21    1    1    2  504  505 -0.50892555359E+02  0.42861501590E+02  0.56844071087E+02  0.87512335858E+02  0.00000000000E+00 0.  1.
         21    1    1    2  505  501 -0.12243561334E+02  0.55865952280E+02  0.83973423735E+01  0.57805058405E+02  0.00000000000E+00 0.  1.
          1    1    1    2  501    0  0.68000826973E+02 -0.38842170925E+02 -0.12819422219E+04  0.12843320003E+04  0.00000000000E+00 0. -1.
<scales pt_clust_3="60.08255" pt_clust_4="51.84766" pt_clust_5="51.84766" pt_clust_6="78.60066"></scales>
<clustering>
<clus scale="   51.848">  4  5 -1 -1</clus>
<clus scale="   60.083">  1  3  2 -1</clus>
<clus scale="   78.601">  2  6  1 -1</clus>
<clus scale="   60.083">  1  3  2 -1</clus>
</clustering>
</event>
<event>
 6    0  0.4945982E+002  0.1452900E+03  0.7546771E-02  0.1206383E+00
         21   -1    0    0  505  502  0.00000000000E+00  0.00000000000E+00  0.44515517642E+03  0.44515517642E+03  0.00000000000E+00 0. -1.
          2   -1    0    0  504    0 -0.00000000000E+00 -0.00000000000E+00 -0.36241768697E+03  0.36241768697E+03  0.00000000000E+00 0.  1.
         21    1    1    2  503  501 -0.34083028695E+02 -0.12789570669E+03 -0.12431283354E+02  0.13294172198E+03  0.00000000000E+00 0.  1.
         21    1    1    2  504  502  0.31397449253E+02  0.13808193398E+03  0.90811536696E+02  0.16822352841E+03  0.00000000000E+00 0.  1.
         21    1    1    2  505  503 -0.11137434390E+02  0.56009177337E+02  0.24751735894E+03  0.25401951376E+03  0.00000000000E+00 0. -1.
          2    1    1    2  501    0  0.13823013832E+02 -0.66195404626E+02 -0.24316012284E+03  0.25238809925E+03  0.00000000000E+00 0.  1.
<scales pt_clust_3="145.28995" pt_clust_4="14000.00000" pt_clust_5="57.10578" pt_clust_6="66.26787"></scales>
<clustering>
<clus scale="   57.106">  1  5  2 -1</clus>
<clus scale="   66.268">  2  6  1 -1</clus>
<clus scale="  145.290">  1  3  2 -1</clus>
<clus scale="   57.106">  1  3  2 -1</clus>
</clustering>
</event>
<event>
 6    0  0.4945982E+002  0.7731367E+02  0.7546771E-02  0.1336852E+00
         21   -1    0    0  504  502  0.00000000000E+00  0.00000000000E+00  0.12584939419E+04  0.12584939419E+04  0.00000000000E+00 0. -1.
          2   -1    0    0  505    0 -0.00000000000E+00 -0.00000000000E+00 -0.17089993556E+04  0.17089993556E+04  0.00000000000E+00 0. -1.
         21    1    1    2  503  502 -0.57385405991E+02  0.30119528932E+02 -0.26918869234E+03  0.27688052104E+03  0.00000000000E+00 0. -1.
         21    1    1    2  504  501  0.56151301460E+02  0.19016069263E+02  0.12484666454E+04  0.12498734113E+04  0.00000000000E+00 0. -1.
         21    1    1    2  505  503  0.77036040653E+02 -0.48196401350E+02 -0.52684124001E+03  0.53462055408E+03  0.00000000000E+00 0. -1.
          2    1    1    2  501    0 -0.75801936122E+02 -0.93919684500E+00 -0.90294212669E+03  0.90611881107E+03  0.00000000000E+00 0. -1.
<scales pt_clust_3="51.11266" pt_clust_4="59.28389" pt_clust_5="14000.00000" pt_clust_6="77.31367"></scales>
<clustering>
<clus scale="   59.284">  1  4  2 -1</clus>
<clus scale="   51.113">  1  3  2 -1</clus>
<clus scale="   77.314">  2  6  1 -1</clus>
<clus scale="   59.284">  1  3  2 -1</clus>
</clustering>
</event>
<event>
 6    0  0.4945982E+002  0.1472009E+03  0.7546771E-02  0.1203955E+00
         21   -1    0    0  505  502  0.00000000000E+00  0.00000000000E+00  0.19178788011E+03  0.19178788011E+03  0.00000000000E+00 0.  1.
          2   -1    0    0  503    0 -0.00000000000E+00 -0.00000000000E+00 -0.18759453792E+04  0.18759453792E+04  0.00000000000E+00 0. -1.
         21    1    1    2  503  504 -0.11644875597E+03  0.61853300074E+02 -0.31695870688E+02  0.13561257949E+03  0.00000000000E+00 0.  1.
         21    1    1    2  504  502 -0.67720961495E+02 -0.67860793547E+02  0.68049904364E+02  0.11756702518E+03  0.00000000000E+00 0.  1.
         21    1    1    2  505  501  0.15724018257E+03 -0.40710313741E+02 -0.95038429527E+02  0.18818636440E+03  0.00000000000E+00 0.  1.
          2    1    1    2  501    0  0.26929534898E+02  0.46717807214E+02 -0.16254731033E+04  0.16263672903E+04  0.00000000000E+00 0. -1.
<scales pt_clust_3="147.20087" pt_clust_4="90.72306" pt_clust_5="14000.00000" pt_clust_6="53.92359"></scales>
<clustering>
<clus scale="   53.924">  2  6  1 -1</clus>
<clus scale="   90.723">  1  4  2 -1</clus>
<clus scale="  147.201">  1  3  2 -1</clus>
<clus scale="   90.723">  1  3  2 -1</clus>
</clustering>
</event>
<event>
 6    0  0.4945982E+002  0.1227001E+03  0.7546771E-02  0.1238708E+00
         21   -1    0    0  503  502  0.00000000000E+00  0.00000000000E+00  0.28922319403E+02  0.28922319403E+02  0.00000000000E+00 0.  1.
          1   -1    0    0  505    0 -0.00000000000E+00 -0.00000000000E+00 -0.13460498126E+04  0.13460498126E+04  0.00000000000E+00 0.  1.
         21    1    1    2  503  504 -0.40238464533E+02  0.11107900862E+02 -0.16337281257E+03  0.16862145586E+03  0.00000000000E+00 0.  1.
         21    1    1    2  504  501 -0.38799281994E+02  0.61423939701E+02 -0.27098792088E+03  0.28055790475E+03  0.00000000000E+00 0.  1.
         21    1    1    2  505  502 -0.29858269351E+02 -0.16376990815E+02  0.51024943150E+00  0.34058514813E+02  0.00000000000E+00 0.  1.
          1    1    1    2  501    0  0.10889601588E+03 -0.56154849749E+02 -0.88327700915E+03  0.89173425656E+03  0.00000000000E+00 0.  1.
<scales pt_clust_3="30.17785" pt_clust_4="30.17785" pt_clust_5="34.05469" pt_clust_6="116.06166"></scales>
<clustering>
<clus scale="   30.178">  3  4 -1 -1</clus>
<clus scale="   34.055">  1  5  2 -1</clus>
<clus scale="  116.062">  2  6  1 -1</clus>
<clus scale="   34.055">  1  3  2 -1</clus>
</clustering>
</event>
<event>
 6    0  0.4945982E+002  0.9431102E+02  0.7546771E-02  0.1292735E+00
          2   -1    0    0  503    0 -0.00000000000E+00  0.00000000000E+00  0.27788989209E+04  0.27788989209E+04  0.00000000000E+00 0. -1.
         21   -1    0    0  504  502  0.00000000000E+00 -0.00000000000E+00 -0.16917080718E+03  0.16917080718E+03  0.00000000000E+00 0. -1.
         21    1    1    2  503  502  0.34089382565E+02 -0.66844985011E+02  0.11630883072E+04  0.11655062197E+04  0.00000000000E+00 0.  1.
         21    1    1    2  504  505 -0.19322679579E+02  0.93679728987E+02 -0.14885258116E+03  0.17693600110E+03  0.00000000000E+00 0. -1.
         21    1    1    2  505  501 -0.23581446544E+02 -0.71353822833E+02  0.29759348587E+03  0.30693539301E+03  0.00000000000E+00 0.  1.
          2    1    1    2  501    0  0.88147435584E+01  0.44519078858E+02  0.12978989018E+04  0.12986921142E+04  0.00000000000E+00 0. -1.
<scales pt_clust_3="51.92587" pt_clust_4="14000.00000" pt_clust_5="94.31102" pt_clust_6="45.38335"></scales>
<clustering>
<clus scale="   45.383">  1  6  2 -1</clus>
<clus scale="   51.926">  1  3  2 -1</clus>
<clus scale="   94.311">  1  5  2 -1</clus>
<clus scale="   94.311">  2  3  1 -1</clus>
</clustering>
</event>
<event>
 6    0  0.4945982E+002  0.1073105E+03  0.7546771E-02  0.1265633E+00
          2   -1    0    0  504    0 -0.00000000000E+00  0.00000000000E+00  0.88090112864E+03  0.88090112864E+03  0.00000000000E+00 0.  1.
         21   -1    0    0  505  502  0.00000000000E+00 -0.00000000000E+00 -0.88436331813E+02  0.88436331813E+02  0.00000000000E+00 0. -1.
         21    1    1    2  503  502  0.29568368396E+02  0.57197281419E+02  0.16155391098E+03  0.17391228698E+03  0.00000000000E+00 0.  1.
         21    1    1    2  504  503  0.49772033235E+02  0.27181255823E+02  0.19325838945E+03  0.20140725174E+03  0.00000000000E+00 0.  1.
         21    1    1    2  505  501 -0.93843470460E+02 -0.32832946835E+02 -0.44482333478E+02  0.10891867304E+03  0.00000000000E+00 0. -1.
          2    1    1    2  501    0  0.14503068830E+02 -0.51545590406E+02  0.48213482988E+03  0.48509924869E+03  0.00000000000E+00 0.  1.
<scales pt_clust_3="37.04773" pt_clust_4="37.04773" pt_clust_5="99.78578" pt_clust_6="53.54705"></scales>
<clustering>
<clus scale="   37.048">  3  4 -1 -1</clus>
<clus scale="   53.547">  1  6  2 -1</clus>
<clus scale="   99.786">  2  5  1 -1</clus>
<clus scale="   99.786">  2  3  1 -1</clus>
</clustering>
</event>
<event>
 6    0  0.4945982E+002  0.2291726E+03  0.7546771E-02  0.1127223E+00
          1   -1    0    0  505    0 -0.00000000000E+00  0.00000000000E+00  0.35216071064E+04  0.35216071064E+04  0.00000000000E+00 0.  1.
         21   -1    0    0  503  502  0.00000000000E+00 -0.00000000000E+00 -0.58770583442E+02  0.58770583442E+02  0.00000000000E+00 0.  1.
         21    1    1    2  503  501 -0.33310374496E+02  0.31582697501E+02  0.38725770955E+02  0.60056083510E+02  0.00000000000E+00 0.  1.
         21    1    1    2  504  502 -0.24239299469E+02 -0.60609381523E+02  0.15675395987E+02  0.67132397594E+02  0.00000000000E+00 0.  1.
         21    1    1    2  505  504 -0.14824280872E+03 -0.10110880211E+03  0.44570553781E+03  0.48047096336E+03  0.00000000000E+00 0.  1.
          1    1    1    2  501    0  0.20579248269E+03  0.13013548613E+03  0.29627298183E+04  0.29727182454E+04  0.00000000000E+00 0.  1.
<scales pt_clust_3="45.90259" pt_clust_4="60.66186" pt_clust_5="229.17264" pt_clust_6="14000.00000"></scales>
<clustering>
<clus scale="   45.903">  2  3  1 -1</clus>
<clus scale="   60.662">  2  4  1 -1</clus>
<clus scale="  229.173">  2  5  1 -1</clus>
<clus scale="   45.903">  2  3  1 -1</clus>
</clustering>
</event>
<event>
 6    0  0.4945982E+002  0.8384266E+02  0.7546771E-02  0.1318487E+00
          2   -1    0    0  505    0 -0.00000000000E+00  0.00000000000E+00  0.18570295065E+04  0.18570295065E+04  0.00000000000E+00 0.  1.
         21   -1    0    0  503  502  0.00000000000E+00 -0.00000000000E+00 -0.54058684609E+02  0.54058684609E+02  0.00000000000E+00 0.  1.
         21    1    1    2  503  504 -0.24707790247E+02  0.45367548691E+02  0.65453823944E+02  0.83384005912E+02  0.00000000000E+00 0.  1.
         21    1    1    2  504  501 -0.93056909815E+02  0.49590796909E+02  0.36816878910E+03  0.38297139954E+03  0.00000000000E+00 0.  1.
         21    1    1    2  505  502  0.98868196470E+02 -0.40681363264E+02  0.40008890494E+02  0.11415167502E+03  0.00000000000E+00 0.  1.
          2    1    1    2  501    0  0.18896503592E+02 -0.54276982336E+02  0.13293393184E+04  0.13305811106E+04  0.00000000000E+00 0.  1.
<scales pt_clust_3="51.65936" pt_clust_4="14000.00000" pt_clust_5="83.84266" pt_clust_6="56.77065"></scales>
<clustering>
<clus scale="   51.659">  2  3  1 -1</clus>
<clus scale="   56.771">  1  6  2 -1</clus>
<clus scale="   83.843">  2  5  1 -1</clus>
<clus scale="   51.659">  2  3  1 -1</clus>
</clustering>
</event>
<event>
 6    0  0.4945982E+002  0.6499715E+02  0.7546771E-02  0.1377982E+00
         21   -1    0    0  505  502  0.00000000000E+00  0.00000000000E+00  0.27655874538E+03  0.27655874538E+03  0.00000000000E+00 0. -1.
          1   -1    0    0  504    0 -0.00000000000E+00 -0.00000000000E+00 -0.38663346583E+03  0.38663346583E+03  0.00000000000E+00 0.  1.
         21    1    1    2  503  501  0.10145391410E+03 -0.11751093148E+02  0.11854175159E+03  0.15647086549E+03  0.00000000000E+00 0. -1.
         21    1    1    2  504  502 -0.41904578769E+02 -0.41719002931E+02  0.11185948622E+03  0.12652673072E+03  0.00000000000E+00 0. -1.
         21    1    1    2  505  503  0.17982038393E+01  0.34473745215E+02 -0.83021080820E+00  0.34530593626E+02  0.00000000000E+00 0.  1.
          1    1    1    2  501    0 -0.61347539168E+02  0.18996350864E+02 -0.33964574746E+03  0.34566402138E+03  0.00000000000E+00 0.  1.
<scales pt_clust_3="64.99715" pt_clust_4="48.56108" pt_clust_5="34.52061" pt_clust_6="14000.00000"></scales>
<clustering>
<clus scale="   34.521">  1  5  2 -1</clus>
<clus scale="   48.561">  1  4  2 -1</clus>
<clus scale="   64.997">  1  3  2 -1</clus>
<clus scale="   34.521">  1  3  2 -1</clus>
</clustering>
</event>
<event>
 6    0  0.4945982E+002  0.1077031E+03  0.7546771E-02  0.1264883E+00
         21   -1    0    0  504  502  0.00000000000E+00  0.00000000000E+00  0.93205874802E+03  0.93205874802E+03  0.00000000000E+00 0.  1.
         -1   -1    0    0    0  501 -0.00000000000E+00 -0.00000000000E+00 -0.18994677512E+03  0.18994677512E+03  0.00000000000E+00 0.  1.
         21    1    1    2  503  502  0.57635965798E+02 -0.72237783646E+02  0.15293395828E+03  0.17868687007E+03  0.00000000000E+00 0. -1.
         21    1    1    2  504  501 -0.32051484879E+02  0.11051401007E+03  0.71999445086E+03  0.72913143765E+03  0.00000000000E+00 0.  1.
         21    1    1    2  505  503 -0.43680290193E+02 -0.15166243443E+01  0.26842589305E+02  0.51291251704E+02  0.00000000000E+00 0.  1.
         -1    1    1    2    0  505  0.18095809274E+02 -0.36759602085E+02 -0.15765902554E+03  0.16289596371E+03  0.00000000000E+00 0.  1.
<scales pt_clust_3="14000.00000" pt_clust_4="107.70314" pt_clust_5="39.87285" pt_clust_6="40.97227"></scales>
<clustering>
<clus scale="   40.972">  2  6  1 -1</clus>
<clus scale="   39.873">  2  5  1 -1</clus>
<clus scale="  107.703">  1  4  2 -1</clus>
<clus scale="  107.703">  1  3  2 -1</clus>
</clustering>
</event>
<event>
 6    0  0.4945982E+002  0.1145995E+03  0.7546771E-02  0.1252282E+00
         21   -1    0    0  505  502  0.00000000000E+00  0.00000000000E+00  0.11222135803E+02  0.11222135803E+02  0.00000000000E+00 0. -1.
          1   -1    0    0  503    0 -0.00000000000E+00 -0.00000000000E+00 -0.30777155392E+04  0.30777155392E+04  0.00000000000E+00 0. -1.
         21    1    1    2  503  504 -0.47939719726E+02  0.38506062648E+02 -0.47467879277E+03  0.47864484734E+03  0.00000000000E+00 0. -1.
         21    1    1    2  504  502 -0.81786050425E+02  0.23904858534E+02 -0.39359845316E+03  0.40271595776E+03  0.00000000000E+00 0. -1.
         21    1    1    2  505  501  0.79581569751E+02 -0.30769381471E+02 -0.43089066007E+03  0.43925703411E+03  0.00000000000E+00 0. -1.
          1    1    1    2  501    0  0.50144200400E+02 -0.31641539711E+02 -0.17673254974E+04  0.17683198358E+04  0.00000000000E+00 0. -1.
<scales pt_clust_3="39.55020" pt_clust_4="39.55020" pt_clust_5="104.71606" pt_clust_6="59.29273"></scales>
<clustering>
<clus scale="   39.550">  3  4 -1 -1</clus>
<clus scale="   59.293">  2  6  1 -1</clus>
<clus scale="  104.716">  1  5  2 -1</clus>
<clus scale="  104.716">  1  3  2 -1</clus>
</clustering>
</event>
<event>
 6    0  0.4945982E+002  0.1053990E+03  0.7546771E-02  0.1269335E+00
         21   -1    0    0  505  502  0.00000000000E+00  0.00000000000E+00  0.11142477754E+03  0.11142477754E+03  0.00000000000E+00 0.  1.
          2   -1    0    0  504    0 -0.00000000000E+00 -0.00000000000E+00 -0.15734017403E+04  0.15734017403E+04  0.00000000000E+00 0.  1.
         21    1    1    2  503  502 -0.31673906720E+02 -0.87582922495E+01  0.88679410102E+02  0.94572627255E+02  0.00000000000E+00 0.  1.
         21    1    1    2  504  503 -0.44473868177E+02 -0.93233945648E+01 -0.38212203260E+02  0.59371905096E+02  0.00000000000E+00 0.  1.
         21    1    1    2  505  501  0.71853640931E+02 -0.91213431605E+02 -0.54233724123E+03  0.55462827105E+03  0.00000000000E+00 0.  1.
          2    1    1    2  501    0  0.42941339658E+01  0.10929511842E+03 -0.97010692841E+03  0.97625371448E+03  0.00000000000E+00 0.  1.
<scales pt_clust_3="32.86250" pt_clust_4="62.97611" pt_clust_5="14000.00000" pt_clust_6="105.39903"></scales>
<clustering>
<clus scale="   32.863">  1  3  2 -1</clus>
<clus scale="   62.976">  1  4  2 -1</clus>
<clus scale="  105.399">  2  6  1 -1</clus>
<clus scale="   32.863">  1  3  2 -1</clus>
</clustering>
</event>
<event>
 6    0  0.4945982E+002  0.2989169E+03  0.7546771E-02  0.1085783E+00
         21   -1    0    0  503  502  0.00000000000E+00  0.00000000000E+00  0.16886061381E+04  0.16886061381E+04  0.00000000000E+00 0. -1.
          1   -1    0    0  502    0 -0.00000000000E+00 -0.00000000000E+00 -0.20303059281E+04  0.20303059281E+04  0.00000000000E+00 0.  1.
         21    1    1    2  503  505  0.12896004611E+03 -0.75394612110E+02  0.14802869275E+04  0.14878052388E+04  0.00000000000E+00 0. -1.
         21    1    1    2  504  501 -0.11025672079E+03 -0.32819832892E+02 -0.47246183340E+03  0.48626522591E+03  0.00000000000E+00 0.  1.
         21    1    1    2  505  504  0.91974658529E+02  0.23470691228E+03  0.11045291615E+03  0.27522085526E+03  0.00000000000E+00 0. -1.
          1    1    1    2  501    0 -0.11067798385E+03 -0.12649246728E+03 -0.14599778003E+04  0.14696207462E+04  0.00000000000E+00 0.  1.
<scales pt_clust_3="149.38220" pt_clust_4="107.78629" pt_clust_5="269.02951" pt_clust_6="107.78629"></scales>
<clustering>
<clus scale="  107.786">  4  6 -1 -1</clus>
<clus scale="  149.382">  1  3  2 -1</clus>
<clus scale="  269.030">  1  5  2 -1</clus>
<clus scale="  149.382">  1  3  2 -1</clus>
</clustering>
</event>
<event>
 6    0  0.4945982E+002  0.7736205E+02  0.7546771E-02  0.1336709E+00
         21   -1    0    0  505  502  0.00000000000E+00  0.00000000000E+00  0.21259574191E+04  0.21259574191E+04  0.00000000000E+00 0.  1.
          1   -1    0    0  503    0 -0.00000000000E+00 -0.00000000000E+00 -0.21556186145E+03  0.21556186145E+03  0.00000000000E+00 0. -1.
         21    1    1    2  503  502  0.45536113848E+02  0.24189316015E+02  0.21951106513E+03  0.22548562789E+03  0.00000000000E+00 0. -1.
         21    1    1    2  504  501 -0.28950012838E+02 -0.42986304246E+02  0.40608926925E+03  0.40938297497E+03  0.00000000000E+00 0.  1.
         21    1    1    2  505  504 -0.45434570779E+02 -0.53493367850E+02  0.14876870300E+04  0.14893416465E+04  0.00000000000E+00 0.  1.
          1    1    1    2  501    0  0.28848469769E+02  0.72290356081E+02 -0.20289180676E+03  0.21730903120E+03  0.00000000000E+00 0. -1.
<scales pt_clust_3="51.56220" pt_clust_4="14000.00000" pt_clust_5="35.94601" pt_clust_6="77.36205"></scales>
<clustering>
<clus scale="   51.562">  1  3  2 -1</clus>
<clus scale="   35.946">  1  5  2 -1</clus>
<clus scale="   77.362">  2  6  1 -1</clus>
<clus scale="   51.562">  1  3  2 -1</clus>
</clustering>
</event>
<event>
 6    0  0.4945982E+002  0.1725750E+03  0.7546771E-02  0.1175189E+00
         21   -1    0    0  504  502  0.00000000000E+00  0.00000000000E+00  0.37074459109E+03  0.37074459109E+03  0.00000000000E+00 0.  1.
          2   -1    0    0  505    0 -0.00000000000E+00 -0.00000000000E+00 -0.25877656356E+04  0.25877656356E+04  0.00000000000E+00 0. -1.
         21    1    1    2  503  501 -0.47244539032E+02 -0.74599177241E+02  0.41518733453E+02  0.97575042613E+02  0.00000000000E+00 0. -1.
         21    1    1    2  504  503 -0.40752653803E+02  0.62462575152E+02  0.46980732344E+02  0.88145001550E+02  0.00000000000E+00 0. -1.
         21    1    1    2  505  502 -0.46357158409E+02 -0.97705836797E+02  0.21797843167E+03  0.24333107766E+03  0.00000000000E+00 0.  1.
          2    1    1    2  501    0  0.13435435124E+03  0.10984243889E+03 -0.25234989420E+04  0.25294591049E+04  0.00000000000E+00 0. -1.
<scales pt_clust_3="82.67601" pt_clust_4="74.58118" pt_clust_5="14000.00000" pt_clust_6="172.57497"></scales>
<clustering>
<clus scale="   74.581">  1  4  2 -1</clus>
<clus scale="   82.676">  1  3  2 -1</clus>
<clus scale="  172.575">  2  6  1 -1</clus>
<clus scale="   74.581">  1  3  2 -1</clus>
</clustering>
</event>
<event>
 6    0  0.4945982E+002  0.3819227E+03  0.7546771E-02  0.1050225E+00
          1   -1    0    0  504    0 -0.00000000000E+00  0.00000000000E+00  0.60202457930E+03  0.60202457930E+03  0.00000000000E+00 0. -1.
         21   -1    0    0  503  502  0.00000000000E+00 -0.00000000000E+00 -0.10610957843E+04  0.10610957843E+04  0.00000000000E+00 0. -1.
         21    1    1    2  503  501 -0.37924481426E+02  0.34061774955E+02 -0.38352922472E+03  0.38690197339E+03  0.00000000000E+00 0. -1.
         21    1    1    2  504  505  0.60030502242E+01 -0.12773728111E+03 -0.23963529426E+03  0.27162091940E+03  0.00000000000E+00 0. -1.
         21    1    1    2  505  502 -0.15631772332E+03 -0.20668317414E+03 -0.31546502048E+03  0.40825401926E+03  0.00000000000E+00 0. -1.
          1    1    1    2  501    0  0.18823915453E+03  0.30035868030E+03  0.47955833443E+03  0.59634345158E+03  0.00000000000E+00 0. -1.
<scales pt_clust_3="50.97520" pt_clust_4="93.63013" pt_clust_5="93.63013" pt_clust_6="355.25055"></scales>
<clustering>
<clus scale="   50.975">  2  3  1 -1</clus>
<clus scale="   93.630">  4  5 -1 -1</clus>
<clus scale="  355.251">  1  6  2 -1</clus>
<clus scale="   50.975">  2  3  1 -1</clus>
</clustering>
</event>
<event>
 6    0  0.4945982E+002  0.1366231E+03  0.7546771E-02  0.1217946E+00
          2   -1    0    0  503    0 -0.00000000000E+00  0.00000000000E+00  0.14396729841E+04  0.14396729841E+04  0.00000000000E+00 0.  1.
         21   -1    0    0  505  502  0.00000000000E+00 -0.00000000000E+00 -0.19650039826E+03  0.19650039826E+03  0.00000000000E+00 0.  1.
         21    1    1    2  503  502 -0.74124949181E+02 -0.83706759909E+02 -0.20000858495E+02  0.11358417181E+03  0.00000000000E+00 0.  1.
         21    1    1    2  504  501 -0.48758754600E+02  0.10823911457E+01  0.10536739510E+03  0.11610717321E+03  0.00000000000E+00 0.  1.
         21    1    1    2  505  504  0.15402488707E+03  0.81288540464E+02 -0.63055385220E+02  0.18522276926E+03  0.00000000000E+00 0.  1.
          2    1    1    2  501    0 -0.31141183286E+02  0.13358282995E+01  0.12208614345E+04  0.12212592681E+04  0.00000000000E+00 0.  1.
<scales pt_clust_3="136.62306" pt_clust_4="64.55716" pt_clust_5="14000.00000" pt_clust_6="31.16982"></scales>
<clustering>
<clus scale="   31.170">  1  6  2 -1</clus>
<clus scale="   64.557">  1  4  2 -1</clus>
<clus scale="  136.623">  2  3  1 -1</clus>
<clus scale="  136.623">  2  3  1 -1</clus>
</clustering>
</event>
<event>
 6    0  0.4945982E+002  0.8894622E+02  0.7546771E-02  0.1305424E+00
         21   -1    0    0  504  502  0.00000000000E+00  0.00000000000E+00  0.38116528988E+03  0.38116528988E+03  0.00000000000E+00 0.  1.
         -3   -1    0    0    0  501 -0.00000000000E+00 -0.00000000000E+00 -0.11588589902E+03  0.11588589902E+03  0.00000000000E+00 0.  1.
         21    1    1    2  503  502 -0.12709294868E+02  0.30179580395E+02  0.20147401807E+03  0.20411789046E+03  0.00000000000E+00 0.  1.
         21    1    1    2  504  501  0.83094708172E+02 -0.24114705336E+02 -0.58482245827E+02  0.10443381931E+03  0.00000000000E+00 0.  1.
         21    1    1    2  505  503  0.30689049682E+02 -0.23457365686E+02  0.19397587062E+02  0.43224208022E+02  0.00000000000E+00 0.  1.
         -3    1    1    2    0  505 -0.10107446299E+03  0.17392490627E+02  0.10289003155E+03  0.14527527109E+03  0.00000000000E+00 0.  1.
<scales pt_clust_3="32.74650" pt_clust_4="14000.00000" pt_clust_5="33.75847" pt_clust_6="88.94622"></scales>
<clustering>
<clus scale="   32.746">  1  3  2 -1</clus>
<clus scale="   33.758">  1  5  2 -1</clus>
<clus scale="   88.946">  1  6  2 -1</clus>
<clus scale="   32.746">  1  3  2 -1</clus>
</clustering>
</event>
<event>
 6    0  0.4945982E+002  0.3469426E+03  0.7546771E-02  0.1063877E+00
          1   -1    0    0  504    0 -0.00000000000E+00  0.00000000000E+00  0.72877330577E+03  0.72877330577E+03  0.00000000000E+00 0.  1.
         21   -1    0    0  505  502  0.00000000000E+00 -0.00000000000E+00 -0.64144653187E+03  0.64144653187E+03  0.00000000000E+00 0. -1.
         21    1    1    2  503  502 -0.34464435511E+02  0.29112642268E+02 -0.16537256953E+03  0.17141595611E+03  0.00000000000E+00 0. -1.
         21    1    1    2  504  503 -0.11489308096E+03  0.27395899338E+03 -0.37580115467E+03  0.47904118607E+03  0.00000000000E+00 0. -1.
         21    1    1    2  505  501  0.24318627488E+02 -0.27519211275E+02  0.24334386641E+02  0.44055249464E+02  0.00000000000E+00 0.  1.
          1    1    1    2  501    0  0.12503888898E+03 -0.27555242437E+03  0.60416611146E+03  0.67570744599E+03  0.00000000000E+00 0.  1.
<scales pt_clust_3="45.11478" pt_clust_4="333.89184" pt_clust_5="32.83870" pt_clust_6="32.83870"></scales>
<clustering>
<clus scale="   32.839">  5  6 -1 -1</clus>
<clus scale="   45.115">  2  3  1 -1</clus>
<clus scale="  333.892">  2  4  1 -1</clus>
<clus scale="   45.115">  2  3  1 -1</clus>
</clustering>
</event>
<event>
 6    0  0.4945982E+002  0.9257881E+02  0.7546771E-02  0.1296724E+00
         -1   -1    0    0    0  501 -0.00000000000E+00  0.00000000000E+00  0.76803220229E+02  0.76803220229E+02  0.00000000000E+00 0.  1.
         21   -1    0    0  504  502  0.00000000000E+00 -0.00000000000E+00 -0.13070199016E+04  0.13070199016E+04  0.00000000000E+00 0. -1.
         21    1    1    2  503  502 -0.65714604081E+02 -0.28480603959E+02 -0.10225347736E+03  0.12484120964E+03  0.00000000000E+00 0. -1.
         21    1    1    2  504  505  0.53399657778E+02  0.85950704217E+02 -0.83380646715E+03  0.83992396779E+03  0.00000000000E+00 0. -1.
         21    1    1    2  505  501  0.62499388941E+02 -0.52229805868E+02 -0.34076761401E+03  0.35036651237E+03  0.00000000000E+00 0.  1.
         -1    1    1    2    0  503 -0.50184442638E+02 -0.52402943900E+01  0.46610877134E+02  0.68691432037E+02  0.00000000000E+00 0.  1.
<scales pt_clust_3="14000.00000" pt_clust_4="92.57881" pt_clust_5="73.20650" pt_clust_6="50.45730"></scales>
<clustering>
<clus scale="   50.457">  1  6  2 -1</clus>
<clus scale="   73.206">  1  5  2 -1</clus>
<clus scale="   92.579">  2  4  1 -1</clus>
<clus scale="   92.579">  2  3  1 -1</clus>
</clustering>
</event>
<event>
 6    0  0.4945982E+002  0.7984695E+02  0.7546771E-02  0.1329486E+00
         -4   -1    0    0    0  501 -0.00000000000E+00  0.00000000000E+00  0.40545369853E+02  0.40545369853E+02  0.00000000000E+00 0. -1.
         21   -1    0    0  505  502  0.00000000000E+00 -0.00000000000E+00 -0.13780551010E+04  0.13780551010E+04  0.00000000000E+00 0. -1.
         21    1    1    2  503  501  0.39395882818E+02  0.43763570973E+02 -0.15282686461E+03  0.16377831442E+03  0.00000000000E+00 0. -1.
         21    1    1    2  504  502 -0.67828128065E+02  0.14538619418E+02 -0.38659471465E+03  0.39276901585E+03  0.00000000000E+00 0. -1.
         21    1    1    2  505  503  0.63708503085E+02 -0.74834330379E+02 -0.81404329618E+03  0.81995453436E+03  0.00000000000E+00 0. -1.
         -4    1    1    2    0  504 -0.35276257838E+02  0.16532139987E+02  0.15955144269E+02  0.42098606251E+02  0.00000000000E+00 0. -1.
<scales pt_clust_3="56.36349" pt_clust_4="14000.00000" pt_clust_5="79.84695" pt_clust_6="38.95800"></scales>
<clustering>
<clus scale="   38.958">  1  6  2 -1</clus>
<clus scale="   56.363">  1  3  2 -1</clus>
<clus scale="   79.847">  2  5  1 -1</clus>
<clus scale="   79.847">  2  3  1 -1</clus>
</clustering>
</event>
<event>
 6    0  0.4945982E+002  0.1299948E+03  0.7546771E-02  0.1227463E+00
          4   -1    0    0  503    0 -0.00000000000E+00  0.00000000000E+00  0.34169438612E+03  0.34169438612E+03  0.00000000000E+00 0.  1.
         21   -1    0    0  501  502  0.00000000000E+00 -0.00000000000E+00 -0.11734119774E+03  0.11734119774E+03  0.00000000000E+00 0.  1.
         21    1    1    2  503  504  0.45064149468E+02  0.19167078910E+02  0.54325505831E+02  0.73139695549E+02  0.00000000000E+00 0.  1.
         21    1    1    2  504  505  0.21399589173E+02  0.91274304617E+02  0.75962973559E+02  0.12066198429E+03  0.00000000000E+00 0.  1.
         21    1    1    2  505  502  0.24508806637E+02 -0.49680027887E+02 -0.56496839794E+02  0.79124456904E+02  0.00000000000E+00 0.  1.
          4    1    1    2  501    0 -0.90972545277E+02 -0.60761355640E+02  0.15056154879E+03  0.18610944712E+03  0.00000000000E+00 0.  1.
<scales pt_clust_3="45.53452" pt_clust_4="45.53452" pt_clust_5="55.39663" pt_clust_6="113.70744"></scales>
<clustering>
<clus scale="   45.535">  3  4 -1 -1</clus>
<clus scale="   55.397">  2  5  1 -1</clus>
<clus scale="  113.707">  1  6  2 -1</clus>
<clus scale="   55.397">  2  3  1 -1</clus>
</clustering>
</event>
<event>
 6    0  0.4945982E+002  0.8783739E+02  0.7546771E-02  0.1308175E+00
          2   -1    0    0  503    0 -0.00000000000E+00  0.00000000000E+00  0.22443805278E+04  0.22443805278E+04  0.00000000000E+00 0. -1.
         21   -1    0    0  505  502  0.00000000000E+00 -0.00000000000E+00 -0.10273139836E+03  0.10273139836E+03  0.00000000000E+00 0.  1.
         21    1    1    2  503  504 -0.54895458324E+02 -0.59024358763E+02  0.17535903889E+03  0.19299787251E+03  0.00000000000E+00 0. -1.
         21    1    1    2  504  502  0.36747122436E+02  0.54651381775E+02  0.82817918745E+02  0.10581083216E+03  0.00000000000E+00 0.  1.
         21    1    1    2  505  501  0.46796368285E+02 -0.78638249461E+02 -0.55710471762E+02  0.10713323960E+03  0.00000000000E+00 0.  1.
          2    1    1    2  501    0 -0.28648032397E+02  0.83011226448E+02  0.19391826435E+04  0.19411699819E+04  0.00000000000E+00 0. -1.
<scales pt_clust_3="74.32537" pt_clust_4="65.85685" pt_clust_5="14000.00000" pt_clust_6="87.83739"></scales>
<clustering>
<clus scale="   65.857">  2  4  1 -1</clus>
<clus scale="   74.325">  2  3  1 -1</clus>
<clus scale="   87.837">  1  6  2 -1</clus>
<clus scale="   65.857">  2  3  1 -1</clus>
</clustering>
</event>
<event>
 6    0  0.4945982E+002  0.1968713E+03  0.7546771E-02  0.1152406E+00
          2   -1    0    0  505    0 -0.00000000000E+00  0.00000000000E+00  0.81040329442E+03  0.81040329442E+03  0.00000000000E+00 0.  1.
         21   -1    0    0  503  502  0.00000000000E+00 -0.00000000000E+00 -0.26238468142E+03  0.26238468142E+03  0.00000000000E+00 0.  1.
         21    1    1    2  503  501  0.18892879025E+02  0.51809767200E+02  0.29881185736E+02  0.62722229840E+02  0.00000000000E+00 0. -1.
         21    1    1    2  504  502 -0.75888136647E+02 -0.79331600900E+02 -0.54843256388E+02  0.12272039340E+03  0.00000000000E+00 0.  1.
         21    1    1    2  505  504 -0.89280332371E+02 -0.94825843074E+02 -0.11480177125E+03  0.17361556654E+03  0.00000000000E+00 0.  1.
          2    1    1    2  501    0  0.14627558999E+03  0.12234767677E+03  0.68778245490E+03  0.71372978606E+03  0.00000000000E+00 0.  1.
<scales pt_clust_3="55.14701" pt_clust_4="34.64724" pt_clust_5="34.64724" pt_clust_6="193.22058"></scales>
<clustering>
<clus scale="   34.647">  4  5 -1 -1</clus>
<clus scale="   55.147">  2  3  1 -1</clus>
<clus scale="  193.221">  1  6  2 -1</clus>
<clus scale="   55.147">  2  3  1 -1</clus>
</clustering>
</event>
<event>
 6    0  0.4945982E+002  0.1192499E+03  0.7546771E-02  0.1244340E+00
          2   -1    0    0  503    0 -0.00000000000E+00  0.00000000000E+00  0.15289364776E+04  0.15289364776E+04  0.00000000000E+00 0.  1.
         21   -1    0    0  504  502  0.00000000000E+00 -0.00000000000E+00 -0.64602259755E+03  0.64602259755E+03  0.00000000000E+00 0.  1.
         21    1    1    2  503  502  0.85504167654E+02 -0.75455523336E+02  0.31194989716E+01  0.11407992795E+03  0.00000000000E+00 0. -1.
         21    1    1    2  504  505 -0.27166794057E+02 -0.14152582364E+02 -0.26700556922E+03  0.26875696137E+03  0.00000000000E+00 0.  1.
         21    1    1    2  505  501 -0.13097302661E+03 -0.53066869130E+01 -0.30679368336E+03  0.33362322877E+03  0.00000000000E+00 0.  1.
          2    1    1    2  501    0  0.72635653018E+02  0.94914792613E+02  0.14535936336E+04  0.14584989570E+04  0.00000000000E+00 0.  1.
<scales pt_clust_3="112.50084" pt_clust_4="30.63218" pt_clust_5="119.24988" pt_clust_6="14000.00000"></scales>
<clustering>
<clus scale="   30.632">  2  4  1 -1</clus>
<clus scale="  112.501">  2  3  1 -1</clus>
<clus scale="  119.250">  2  5  1 -1</clus>
<clus scale="   30.632">  2  3  1 -1</clus>
</clustering>
</event>
<event>
 6    0  0.4945982E+002  0.1040755E+03  0.7546771E-02  0.1271952E+00
         21   -1    0    0  505  502  0.00000000000E+00  0.00000000000E+00  0.97403300320E+03  0.97403300320E+03  0.00000000000E+00 0.  1.
          1   -1    0    0  504    0 -0.00000000000E+00 -0.00000000000E+00 -0.27536865352E+04  0.27536865352E+04  0.00000000000E+00 0.  1.
         21    1    1    2  503  502 -0.58655784759E+02  0.10110765477E+03 -0.11754094906E+03  0.16576831315E+03  0.00000000000E+00 0. -1.
         21    1    1    2  504  503  0.92706751158E+01 -0.71594035495E+02 -0.28376843730E+03  0.29280740657E+03  0.00000000000E+00 0. -1.
         21    1    1    2  505  501  0.40198875816E+02  0.29192743337E+02  0.94436692585E+03  0.94567280627E+03  0.00000000000E+00 0.  1.
          1    1    1    2  501    0  0.91862338268E+01 -0.58706362616E+02 -0.23227110715E+04  0.23234710124E+04  0.00000000000E+00 0.  1.
<scales pt_clust_3="104.07548" pt_clust_4="14000.00000" pt_clust_5="49.68064" pt_clust_6="59.12724"></scales>
<clustering>
<clus scale="   49.681">  1  5  2 -1</clus>
<clus scale="   59.127">  2  6  1 -1</clus>
<clus scale="  104.075">  1  3  2 -1</clus>
<clus scale="   49.681">  1  3  2 -1</clus>
</clustering>
</event>
<event>
 6    0  0.4945982E+002  0.1155278E+03  0.7546771E-02  0.1250663E+00
         21   -1    0    0  501  502  0.00000000000E+00  0.00000000000E+00  0.33424599327E+03  0.33424599327E+03  0.00000000000E+00 0. -1.
          2   -1    0    0  505    0 -0.00000000000E+00 -0.00000000000E+00 -0.26312373528E+04  0.26312373528E+04  0.00000000000E+00 0. -1.
         21    1    1    2  503  504 -0.43896313762E+02 -0.62672247869E+02 -0.15185154699E+02  0.78008242757E+02  0.00000000000E+00 0.  1.
         21    1    1    2  504  502 -0.39481465801E+02 -0.21812823414E+02  0.29086140323E+03  0.29433814108E+03  0.00000000000E+00 0. -1.
         21    1    1    2  505  503  0.16442225601E+03  0.11535888904E+03 -0.11188971456E+04  0.11367819377E+04  0.00000000000E+00 0. -1.
          2    1    1    2  501    0 -0.81044476447E+02 -0.30873817758E+02 -0.14537704625E+04  0.14563550245E+04  0.00000000000E+00 0. -1.
<scales pt_clust_3="115.52784" pt_clust_4="45.10638" pt_clust_5="14000.00000" pt_clust_6="88.11203"></scales>
<clustering>
<clus scale="   45.106">  1  4  2 -1</clus>
<clus scale="   88.112">  2  6  1 -1</clus>
<clus scale="  115.528">  1  3  2 -1</clus>
<clus scale="   45.106">  1  3  2 -1</clus>
</clustering>
</event>
<event>
 6    0  0.4945982E+002  0.6535745E+02  0.7546771E-02  0.1376632E+00
          2   -1    0    0  504    0 -0.00000000000E+00  0.00000000000E+00  0.13974311705E+04  0.13974311705E+04  0.00000000000E+00 0.  1.
         21   -1    0    0  503  502  0.00000000000E+00 -0.00000000000E+00 -0.48865900452E+02  0.48865900452E+02  0.00000000000E+00 0. -1.
         21    1    1    2  503  501 -0.95871025053E+02  0.95414319680E+01  0.76390386735E+03  0.76995546035E+03  0.00000000000E+00 0.  1.
         21    1    1    2  504  505  0.54622649186E+02 -0.85899736093E+01  0.15892038113E+03  0.16826499633E+03  0.00000000000E+00 0.  1.
         21    1    1    2  505  502  0.55443168942E+02  0.33804216376E+02 -0.14254748342E+02  0.66482086891E+02  0.00000000000E+00 0. -1.
          2    1    1    2  501    0 -0.14194793074E+02 -0.34755674735E+02  0.43999576990E+03  0.44159452738E+03  0.00000000000E+00 0.  1.
<scales pt_clust_3="65.35745" pt_clust_4="54.18084" pt_clust_5="14000.00000" pt_clust_6="37.54263"></scales>
<clustering>
<clus scale="   37.543">  1  6  2 -1</clus>
<clus scale="   54.181">  1  4  2 -1</clus>
<clus scale="   65.357">  1  3  2 -1</clus>
<clus scale="   65.357">  2  3  1 -1</clus>
</clustering>
</event>
<event>
 6    0  0.4945982E+002  0.2374572E+03  0.7546771E-02  0.1121498E+00
          2   -1    0    0  505    0 -0.00000000000E+00  0.00000000000E+00  0.28365657028E+04  0.28365657028E+04  0.00000000000E+00 0. -1.
         21   -1    0    0  503  502  0.00000000000E+00 -0.00000000000E+00 -0.28071731614E+02  0.28071731614E+02  0.00000000000E+00 0.  1.
         21    1    1    2  503  504 -0.23993044249E+02  0.24028268062E+02  0.76202183723E+02  0.83425395669E+02  0.00000000000E+00 0.  1.
         21    1    1    2  504  501 -0.10264284651E+03  0.39885880983E+02  0.63429926933E+03  0.64378723233E+03  0.00000000000E+00 0. -1.
         21    1    1    2  505  502  0.21235072362E+03 -0.12318844943E+03  0.84043289351E+03  0.87555449424E+03  0.00000000000E+00 0.  1.
          2    1    1    2  501    0 -0.85714832861E+02  0.59274300382E+02  0.12575596247E+04  0.12618703122E+04  0.00000000000E+00 0. -1.
<scales pt_clust_3="33.95620" pt_clust_4="80.86387" pt_clust_5="222.02851" pt_clust_6="80.86387"></scales>
<clustering>
<clus scale="   33.956">  2  3  1 -1</clus>
<clus scale="   80.864">  4  6 -1 -1</clus>
<clus scale="  222.029">  2  5  1 -1</clus>
<clus scale="   33.956">  2  3  1 -1</clus>
</clustering>
</event>
<event>
 6    0  0.4945982E+002  0.7113384E+02  0.7546771E-02  0.1356279E+00
          2   -1    0    0  503    0 -0.00000000000E+00  0.00000000000E+00  0.48846084896E+03  0.48846084896E+03  0.00000000000E+00 0.  1.
         21   -1    0    0  505  502  0.00000000000E+00 -0.00000000000E+00 -0.75379080860E+02  0.75379080860E+02  0.00000000000E+00 0. -1.
         21    1    1    2  503  502 -0.41118661142E+00 -0.65700630749E+02  0.17822772965E+02  0.68076377631E+02  0.00000000000E+00 0.  1.
         21    1    1    2  504  501  0.98876336272E+01  0.77921027392E+02  0.26636465248E+02  0.82939454359E+02  0.00000000000E+00 0. -1.
         21    1    1    2  505  504  0.53914996510E+02  0.40281450278E+01  0.19272333059E+02  0.57397522792E+02  0.00000000000E+00 0. -1.
          2    1    1    2  501    0 -0.63391443526E+02 -0.16248541670E+02  0.34935019683E+03  0.35542657504E+03  0.00000000000E+00 0.  1.
<scales pt_clust_3="14000.00000" pt_clust_4="71.13384" pt_clust_5="54.06526" pt_clust_6="62.57133"></scales>
<clustering>
<clus scale="   54.065">  2  5  1 -1</clus>
<clus scale="   62.571">  1  6  2 -1</clus>
<clus scale="   71.134">  1  4  2 -1</clus>
<clus scale="   54.065">  2  3  1 -1</clus>
</clustering>
</event>
<event>
 6    0  0.4945982E+002  0.9196758E+02  0.7546771E-02  0.1298156E+00
         -1   -1    0    0    0  501 -0.00000000000E+00  0.00000000000E+00  0.37042324985E+02  0.37042324985E+02  0.00000000000E+00 0. -1.
         21   -1    0    0  503  502  0.00000000000E+00 -0.00000000000E+00 -0.93022819464E+03  0.93022819464E+03  0.00000000000E+00 0. -1.
         21    1    1    2  503  504  0.10450909215E+03  0.56045038946E+01 -0.37416998866E+03  0.38853151895E+03  0.00000000000E+00 0. -1.
         21    1    1    2  504  501  0.37894548013E+00 -0.53540630208E+02 -0.18729991374E+03  0.19480246500E+03  0.00000000000E+00 0. -1.
         21    1    1    2  505  502 -0.82416177584E+02  0.16387849975E+02 -0.33470121962E+03  0.34508824142E+03  0.00000000000E+00 0. -1.
         -1    1    1    2    0  505 -0.22471860044E+02  0.31548276339E+02  0.29852523717E+01  0.38848294242E+02  0.00000000000E+00 0. -1.
<scales pt_clust_3="91.96758" pt_clust_4="46.45530" pt_clust_5="14000.00000" pt_clust_6="38.73343"></scales>
<clustering>
<clus scale="   38.733">  1  6  2 -1</clus>
<clus scale="   46.455">  1  4  2 -1</clus>
<clus scale="   91.968">  1  3  2 -1</clus>
<clus scale="   91.968">  2  3  1 -1</clus>
</clustering>
</event>
<event>
 6    0  0.4945982E+002  0.1599288E+03  0.7546771E-02  0.1188777E+00
         21   -1    0    0  503  502  0.00000000000E+00  0.00000000000E+00  0.36894720543E+02  0.36894720543E+02  0.00000000000E+00 0. -1.
          2   -1    0    0  505    0 -0.00000000000E+00 -0.00000000000E+00 -0.50333062456E+04  0.50333062456E+04  0.00000000000E+00 0. -1.
         21    1    1    2  503  501 -0.10330629501E+02 -0.29880115532E+02 -0.97242016304E+02  0.10225239824E+03  0.00000000000E+00 0.  1.
         21    1    1    2  504  502 -0.13616750692E+02  0.58390725324E+02 -0.12552848556E+03  0.13911252061E+03  0.00000000000E+00 0. -1.
         21    1    1    2  505  504  0.15463914001E+03  0.63365608003E+02 -0.24039935851E+03  0.29278031948E+03  0.00000000000E+00 0. -1.
          2    1    1    2  501    0 -0.13069175982E+03 -0.91876217795E+02 -0.45332416647E+04  0.45360557279E+04  0.00000000000E+00 0. -1.
<scales pt_clust_3="31.61555" pt_clust_4="54.77475" pt_clust_5="159.92877" pt_clust_6="14000.00000"></scales>
<clustering>
<clus scale="   31.616">  1  3  2 -1</clus>
<clus scale="   54.775">  1  4  2 -1</clus>
<clus scale="  159.929">  1  5  2 -1</clus>
<clus scale="   31.616">  1  3  2 -1</clus>
</clustering>
</event>
<event>
 6    0  0.4945982E+002  0.8514557E+02  0.7546771E-02  0.1315052E+00
         21   -1    0    0  504  502  0.00000000000E+00  0.00000000000E+00  0.66155163314E+03  0.66155163314E+03  0.00000000000E+00 0. -1.
          3   -1    0    0  503    0 -0.00000000000E+00 -0.00000000000E+00 -0.16454893275E+03  0.16454893275E+03  0.00000000000E+00 0. -1.
         21    1    1    2  503  505  0.48489783366E+02 -0.52903914971E+02  0.12592484171E+03  0.14493843200E+03  0.00000000000E+00 0. -1.
         21    1    1    2  504  501  0.50823969755E+02  0.75434004716E+02  0.36222802006E+03  0.37347356464E+03  0.00000000000E+00 0. -1.
         21    1    1    2  505  502 -0.48889434894E+02 -0.57768387207E+02  0.14205946003E+03  0.16096041001E+03  0.00000000000E+00 0.  1.
          3    1    1    2  501    0 -0.50424318227E+02  0.35238297462E+02 -0.13320962142E+03  0.14672815924E+03  0.00000000000E+00 0. -1.
<scales pt_clust_3="48.81365" pt_clust_4="14000.00000" pt_clust_5="85.14557" pt_clust_6="61.51707"></scales>
<clustering>
<clus scale="   61.517">  2  6  1 -1</clus>
<clus scale="   48.814">  2  3  1 -1</clus>
<clus scale="   85.146">  2  5  1 -1</clus>
<clus scale="   85.146">  1  3  2 -1</clus>
</clustering>
</event>
<event>
 6    0  0.4945982E+002  0.1551317E+03  0.7546771E-02  0.1194305E+00
         21   -1    0    0  504  502  0.00000000000E+00  0.00000000000E+00  0.20096608482E+03  0.20096608482E+03  0.00000000000E+00 0.  1.
          2   -1    0    0  505    0 -0.00000000000E+00 -0.00000000000E+00 -0.10632251770E+04  0.10632251770E+04  0.00000000000E+00 0.  1.
         21    1    1    2  503  502 -0.10807956411E+02  0.55990292137E+02 -0.14339097767E+02  0.58799102546E+02  0.00000000000E+00 0.  1.
         21    1    1    2  504  501 -0.38515333251E+02 -0.15384021153E+03  0.12597057361E+03  0.20253105193E+03  0.00000000000E+00 0.  1.
         21    1    1    2  505  503  0.15927575815E+02  0.63199581821E+02 -0.62825036805E+02  0.90525466379E+02  0.00000000000E+00 0.  1.
          2    1    1    2  501    0  0.33395713847E+02  0.34650337573E+02 -0.91106553127E+03  0.91233564101E+03  0.00000000000E+00 0.  1.
<scales pt_clust_3="42.97724" pt_clust_4="148.17141" pt_clust_5="42.97724" pt_clust_6="48.12400"></scales>
<clustering>
<clus scale="   42.977">  3  5 -1 -1</clus>
<clus scale="   48.124">  2  6  1 -1</clus>
<clus scale="  148.171">  1  4  2 -1</clus>
<clus scale="  148.171">  1  3  2 -1</clus>
</clustering>
</event>
<event>
 6    0  0.4945982E+002  0.9213588E+02  0.7546771E-02  0.1297760E+00
          2   -1    0    0  504    0 -0.00000000000E+00  0.00000000000E+00  0.66177151424E+03  0.66177151424E+03  0.00000000000E+00 0.  1.
         21   -1    0    0  505  502  0.00000000000E+00 -0.00000000000E+00 -0.21589377674E+03  0.21589377674E+03  0.00000000000E+00 0.  1.
         21    1    1    2  503  501 -0.21274280631E+02  0.56001125512E+02  0.68576406101E+02  0.91057369546E+02  0.00000000000E+00 0.  1.
         21    1    1    2  504  502  0.30282786642E+02 -0.16795972789E+03  0.17768222529E+02  0.17159028845E+03  0.00000000000E+00 0.  1.
         21    1    1    2  505  503  0.30396954486E+02  0.77824916699E+02 -0.11249023058E+03  0.14012403248E+03  0.00000000000E+00 0.  1.
          2    1    1    2  501    0 -0.39405460497E+02  0.34133685677E+02  0.47202333945E+03  0.47489360051E+03  0.00000000000E+00 0.  1.
<scales pt_clust_3="80.05030" pt_clust_4="14000.00000" pt_clust_5="92.13588" pt_clust_6="52.13347"></scales>
<clustering>
<clus scale="   52.133">  1  6  2 -1</clus>
<clus scale="   80.050">  1  3  2 -1</clus>
<clus scale="   92.136">  2  5  1 -1</clus>
<clus scale="   92.136">  2  3  1 -1</clus>
</clustering>
</event>
<event>
 6    0  0.4945982E+002  0.8780059E+02  0.7546771E-02  0.1308267E+00
         21   -1    0    0  503  502  0.00000000000E+00  0.00000000000E+00  0.15174221312E+03  0.15174221312E+03  0.00000000000E+00 0.  1.
          2   -1    0    0  504    0 -0.00000000000E+00 -0.00000000000E+00 -0.30764504536E+04  0.30764504536E+04  0.00000000000E+00 0.  1.
         21    1    1    2  503  501  0.23695168224E+02  0.25197221191E+02  0.14061332363E+03  0.14480492994E+03  0.00000000000E+00 0.  1.
         21    1    1    2  504  505 -0.94141013087E+02  0.49244942215E+02 -0.16519333254E+04  0.16553462798E+04  0.00000000000E+00 0.  1.
         21    1    1    2  505  502  0.34467549062E+02 -0.27086543252E+00 -0.42697837849E+02  0.54874316975E+02  0.00000000000E+00 0.  1.
          2    1    1    2  501    0  0.35978295801E+02 -0.74171297973E+02 -0.13706904009E+04  0.13731671400E+04  0.00000000000E+00 0.  1.
<scales pt_clust_3="62.64120" pt_clust_4="87.80059" pt_clust_5="34.46861" pt_clust_6="14000.00000"></scales>
<clustering>
<clus scale="   34.469">  1  5  2 -1</clus>
<clus scale="   62.641">  1  3  2 -1</clus>
<clus scale="   87.801">  1  4  2 -1</clus>
<clus scale="   34.469">  1  3  2 -1</clus>
</clustering>
</event>
<event>
 6    0  0.4945982E+002  0.1543792E+03  0.7546771E-02  0.1195193E+00
          2   -1    0    0  502    0 -0.00000000000E+00  0.00000000000E+00  0.43356176263E+03  0.43356176263E+03  0.00000000000E+00 0.  1.
         21   -1    0    0  504  502  0.00000000000E+00 -0.00000000000E+00 -0.33898951680E+03  0.33898951680E+03  0.00000000000E+00 0. -1.
         21    1    1    2  503  505  0.39679777026E+02  0.48168159281E+02 -0.15185834343E+03  0.16418164557E+03  0.00000000000E+00 0. -1.
         21    1    1    2  504  503  0.77799785359E+02  0.33629993033E+02 -0.15589275248E+03  0.17744388778E+03  0.00000000000E+00 0. -1.
         21    1    1    2  505  501 -0.39872967902E+02 -0.24969392600E+02  0.65552337028E+02  0.80687254421E+02  0.00000000000E+00 0.  1.
          2    1    1    2  501    0 -0.77606594482E+02 -0.56828759714E+02  0.33677100470E+03  0.35023849167E+03  0.00000000000E+00 0.  1.
<scales pt_clust_3="33.28743" pt_clust_4="148.31476" pt_clust_5="40.42103" pt_clust_6="40.42103"></scales>
<clustering>
<clus scale="   33.287">  3  4 -1 -1</clus>
<clus scale="   40.421">  5  6 -1 -1</clus>
<clus scale="  148.315">  2  3  1 -1</clus>
<clus scale="  148.315">  2  3  1 -1</clus>
</clustering>
</event>
<event>
 6    0  0.4945982E+002  0.1744961E+03  0.7546771E-02  0.1173239E+00
          2   -1    0    0  504    0 -0.00000000000E+00  0.00000000000E+00  0.20727692371E+04  0.20727692371E+04  0.00000000000E+00 0. -1.
         21   -1    0    0  503  502  0.00000000000E+00 -0.00000000000E+00 -0.59708450285E+03  0.59708450285E+03  0.00000000000E+00 0. -1.
         21    1    1    2  503  505 -0.19134159368E+03 -0.28806870534E+02 -0.36741803834E+03  0.41525589238E+03  0.00000000000E+00 0. -1.
         21    1    1    2  504  502  0.85666491783E+02  0.45141701654E+01  0.39571528434E+02  0.94472384374E+02  0.00000000000E+00 0. -1.
         21    1    1    2  505  501 -0.41468485614E+02  0.30725444870E+02 -0.17176219232E+03  0.17934865200E+03  0.00000000000E+00 0. -1.
          2    1    1    2  501    0  0.14714358751E+03 -0.64327445014E+01  0.19752934365E+04  0.19807768112E+04  0.00000000000E+00 0. -1.
<scales pt_clust_3="47.99153" pt_clust_4="85.78535" pt_clust_5="47.99153" pt_clust_6="147.69511"></scales>
<clustering>
<clus scale="   47.992">  3  5 -1 -1</clus>
<clus scale="   85.785">  2  4  1 -1</clus>
<clus scale="  147.695">  1  6  2 -1</clus>
<clus scale="   85.785">  2  3  1 -1</clus>
</clustering>
</event>
<event>
 6    0  0.4945982E+002  0.9897086E+02  0.7546771E-02  0.1282475E+00
         21   -1    0    0  505  502  0.00000000000E+00  0.00000000000E+00  0.75030237407E+02  0.75030237407E+02  0.00000000000E+00 0. -1.
         -2   -1    0    0    0  501 -0.00000000000E+00 -0.00000000000E+00 -0.46067211842E+03  0.46067211842E+03  0.00000000000E+00 0.  1.
         21    1    1    2  503  502 -0.43075800684E+02  0.46227939708E+01 -0.77045724084E+00  0.43329994611E+02  0.00000000000E+00 0. -1.
         21    1    1    2  504  503  0.16147523225E+02  0.89470691509E+02 -0.12225753055E+03  0.15235698514E+03  0.00000000000E+00 0. -1.
         21    1    1    2  505  501 -0.20901133921E+02 -0.98974083194E+02 -0.34482133234E+02  0.10687255988E+03  0.00000000000E+00 0. -1.
         -2    1    1    2    0  504  0.47829411380E+02  0.48805977143E+01 -0.22813175999E+03  0.23314281619E+03  0.00000000000E+00 0.  1.
<scales pt_clust_3="43.32314" pt_clust_4="14000.00000" pt_clust_5="98.97086" pt_clust_6="46.10399"></scales>
<clustering>
<clus scale="   43.323">  1  3  2 -1</clus>
<clus scale="   46.104">  2  6  1 -1</clus>
<clus scale="   98.971">  1  5  2 -1</clus>
<clus scale="   43.323">  1  3  2 -1</clus>
</clustering>
</event>
<event>
 6    0  0.4945982E+002  0.1010294E+03  0.7546771E-02  0.1278146E+00
         21   -1    0    0  504  502  0.00000000000E+00  0.00000000000E+00  0.34521035048E+03  0.34521035048E+03  0.00000000000E+00 0. -1.
          2   -1    0    0  505    0 -0.00000000000E+00 -0.00000000000E+00 -0.17343757167E+04  0.17343757167E+04  0.00000000000E+00 0. -1.
         21    1    1    2  503  502 -0.52231309892E+02 -0.11146919040E+02  0.54315522216E+02  0.76174401807E+02  0.00000000000E+00 0.  1.
         21    1    1    2  504  501  0.70878474479E+02 -0.11275213051E+02  0.20612363409E+03  0.21826094727E+03  0.00000000000E+00 0. -1.
         21    1    1    2  505  503 -0.76824380303E+02  0.47196113908E+02  0.36928373676E+02  0.97432865909E+02  0.00000000000E+00 0.  1.
          2    1    1    2  501    0  0.58177215717E+02 -0.24773981817E+02 -0.16865328962E+04  0.16877178522E+04  0.00000000000E+00 0. -1.
<scales pt_clust_3="47.81123" pt_clust_4="79.67317" pt_clust_5="47.81123" pt_clust_6="63.23242"></scales>
<clustering>
<clus scale="   47.811">  3  5 -1 -1</clus>
<clus scale="   63.232">  2  6  1 -1</clus>
<clus scale="   79.673">  1  4  2 -1</clus>
<clus scale="   79.673">  1  3  2 -1</clus>
</clustering>
</event>
<event>
 6    0  0.4945982E+002  0.6046424E+02  0.7546771E-02  0.1395894E+00
          1   -1    0    0  502    0 -0.00000000000E+00  0.00000000000E+00  0.11072296620E+04  0.11072296620E+04  0.00000000000E+00 0. -1.
         21   -1    0    0  504  502  0.00000000000E+00 -0.00000000000E+00 -0.66016860074E+02  0.66016860074E+02  0.00000000000E+00 0. -1.
         21    1    1    2  503  505  0.57262086246E+02 -0.13452920347E+02  0.21722785200E+02  0.62704122543E+02  0.00000000000E+00 0. -1.
         21    1    1    2  504  503 -0.32377347646E+02 -0.21842396102E+02  0.27076514479E+02  0.47523894457E+02  0.00000000000E+00 0.  1.
         21    1    1    2  505  501 -0.42114792718E+02  0.92129780299E+02  0.40247031132E+02  0.10900172337E+03  0.00000000000E+00 0. -1.
          1    1    1    2  501    0  0.17230054118E+02 -0.56834463849E+02  0.95216647112E+03  0.95401678170E+03  0.00000000000E+00 0. -1.
<scales pt_clust_3="50.19668" pt_clust_4="39.05615" pt_clust_5="60.46424" pt_clust_6="14000.00000"></scales>
<clustering>
<clus scale="   39.056">  2  4  1 -1</clus>
<clus scale="   50.197">  2  3  1 -1</clus>
<clus scale="   60.464">  2  5  1 -1</clus>
<clus scale="   39.056">  2  3  1 -1</clus>
</clustering>
</event>
<event>
 6    0  0.4945982E+002  0.9470250E+02  0.7546771E-02  0.1291848E+00
          2   -1    0    0  505    0 -0.00000000000E+00  0.00000000000E+00  0.27834594531E+04  0.27834594531E+04  0.00000000000E+00 0.  1.
         21   -1    0    0  503  502  0.00000000000E+00 -0.00000000000E+00 -0.19308538962E+03  0.19308538962E+03  0.00000000000E+00 0.  1.
         21    1    1    2  503  504  0.34639361333E+02  0.59621381021E+02 -0.53963779265E+02  0.87559601992E+02  0.00000000000E+00 0.  1.
         21    1    1    2  504  501 -0.32428479720E+01  0.62560337637E+02 -0.84661522850E+02  0.10531802011E+03  0.00000000000E+00 0.  1.
         21    1    1    2  505  502 -0.52828741722E+02 -0.42047946927E+02  0.15986321559E+02  0.69386369481E+02  0.00000000000E+00 0.  1.
          2    1    1    2  501    0  0.21432228361E+02 -0.80133771731E+02  0.27130130440E+04  0.27142808511E+04  0.00000000000E+00 0.  1.
<scales pt_clust_3="43.37305" pt_clust_4="43.37305" pt_clust_5="67.51967" pt_clust_6="83.05345"></scales>
<clustering>
<clus scale="   43.373">  3  4 -1 -1</clus>
<clus scale="   67.520">  2  5  1 -1</clus>
<clus scale="   83.053">  1  6  2 -1</clus>
<clus scale="   67.520">  2  3  1 -1</clus>
</clustering>
</event>
<event>
 6    0  0.4945982E+002  0.1302555E+03  0.7546771E-02  0.1227077E+00
         21   -1    0    0  505  502  0.00000000000E+00  0.00000000000E+00  0.20168572719E+03  0.20168572719E+03  0.00000000000E+00 0. -1.
          1   -1    0    0  503    0 -0.00000000000E+00 -0.00000000000E+00 -0.28509732414E+04  0.28509732414E+04  0.00000000000E+00 0.  1.
         21    1    1    2  503  504 -0.88042260692E+02  0.16135538865E+03  0.47124848557E+02  0.18975708805E+03  0.00000000000E+00 0. -1.
         21    1    1    2  504  502  0.27274053265E+02 -0.14242807954E+02  0.65968392371E+02  0.72791210677E+02  0.00000000000E+00 0. -1.
         21    1    1    2  505  501  0.28190609389E+02 -0.21638126798E+02 -0.13253313994E+02  0.37928476385E+02  0.00000000000E+00 0.  1.
          1    1    1    2  501    0  0.32577598038E+02 -0.12547445390E+03 -0.27491274411E+04  0.27521821934E+04  0.00000000000E+00 0.  1.
<scales pt_clust_3="130.25549" pt_clust_4="30.76900" pt_clust_5="38.36696" pt_clust_6="14000.00000"></scales>
<clustering>
<clus scale="   30.769">  1  4  2 -1</clus>
<clus scale="   38.367">  1  5  2 -1</clus>
<clus scale="  130.255">  1  3  2 -1</clus>
<clus scale="   30.769">  1  3  2 -1</clus>
</clustering>
</event>
<event>
 6    0  0.4945982E+002  0.1039932E+03  0.7546771E-02  0.1272116E+00
          2   -1    0    0  503    0 -0.00000000000E+00  0.00000000000E+00  0.12425587268E+04  0.12425587268E+04  0.00000000000E+00 0.  1.
         21   -1    0    0  504  502  0.00000000000E+00 -0.00000000000E+00 -0.30356943703E+03  0.30356943703E+03  0.00000000000E+00 0. -1.
         21    1    1    2  503  505 -0.69290924059E+01  0.36863432903E+02  0.91053003409E+02  0.98476263317E+02  0.00000000000E+00 0.  1.
         21    1    1    2  504  501 -0.13167512779E+02 -0.18761083047E+03 -0.22322066243E+03  0.29188811425E+03  0.00000000000E+00 0. -1.
         21    1    1    2  505  502  0.14017116285E+02  0.83150424203E+02  0.18897450998E+01  0.84344790774E+02  0.00000000000E+00 0.  1.
          2    1    1    2  501    0  0.60794888999E+01  0.67596973366E+02  0.10692672037E+04  0.10714189955E+04  0.00000000000E+00 0.  1.
<scales pt_clust_3="37.50900" pt_clust_4="103.99319" pt_clust_5="85.64725" pt_clust_6="14000.00000"></scales>
<clustering>
<clus scale="   37.509">  1  3  2 -1</clus>
<clus scale="   85.647">  2  5  1 -1</clus>
<clus scale="  103.993">  2  4  1 -1</clus>
<clus scale="   85.647">  2  3  1 -1</clus>
</clustering>
</event>
<event>
 6    0  0.4945982E+002  0.1375674E+03  0.7546771E-02  0.1216640E+00
         21   -1    0    0  504  502  0.00000000000E+00  0.00000000000E+00  0.23465596062E+03  0.23465596062E+03  0.00000000000E+00 0. -1.
          2   -1    0    0  503    0 -0.00000000000E+00 -0.00000000000E+00 -0.20637548779E+03  0.20637548779E+03  0.00000000000E+00 0.  1.
         21    1    1    2  503  502  0.13024276873E+03  0.61713710328E+00  0.13979426221E+03  0.19106542181E+03  0.00000000000E+00 0. -1.
         21    1    1    2  504  505 -0.51148658393E+02  0.41576547601E+02  0.15676962973E+02  0.67753684283E+02  0.00000000000E+00 0. -1.
         21    1    1    2  505  501 -0.54873689010E+02 -0.15875556644E+02 -0.78911554173E+01  0.57666501352E+02  0.00000000000E+00 0. -1.
          2    1    1    2  501    0 -0.24220421323E+02 -0.26318128060E+02 -0.11929959693E+03  0.12454584097E+03  0.00000000000E+00 0.  1.
<scales pt_clust_3="123.11158" pt_clust_4="60.55232" pt_clust_5="60.55232" pt_clust_6="35.76692"></scales>
<clustering>
<clus scale="   35.767">  2  6  1 -1</clus>
<clus scale="   60.552">  4  5 -1 -1</clus>
<clus scale="  123.112">  1  3  2 -1</clus>
<clus scale="  123.112">  1  3  2 -1</clus>
</clustering>
</event>
<event>
 6    0  0.4945982E+002  0.1229198E+03  0.7546771E-02  0.1238357E+00
          2   -1    0    0  503    0 -0.00000000000E+00  0.00000000000E+00  0.14741176713E+04  0.14741176713E+04  0.00000000000E+00 0. -1.
         21   -1    0    0  505  502  0.00000000000E+00 -0.00000000000E+00 -0.14283573149E+03  0.14283573149E+03  0.00000000000E+00 0. -1.
         21    1    1    2  503  502 -0.29284082913E+02  0.34961101367E+02 -0.13862974731E+02  0.47665691952E+02  0.00000000000E+00 0. -1.
         21    1    1    2  504  501  0.10512957738E+03  0.53057237342E+02  0.34914730044E+03  0.36847135015E+03  0.00000000000E+00 0.  1.
         21    1    1    2  505  504 -0.97087288243E+02 -0.49208908079E+02 -0.72900138388E+02  0.13100339060E+03  0.00000000000E+00 0. -1.
          2    1    1    2  501    0  0.21241793779E+02 -0.38809430630E+02  0.10688977525E+04  0.10698129701E+04  0.00000000000E+00 0. -1.
<scales pt_clust_3="43.79485" pt_clust_4="14000.00000" pt_clust_5="122.91982" pt_clust_6="44.24235"></scales>
<clustering>
<clus scale="   44.242">  1  6  2 -1</clus>
<clus scale="   43.795">  2  3  1 -1</clus>
<clus scale="  122.920">  2  5  1 -1</clus>
<clus scale="   43.795">  2  3  1 -1</clus>
</clustering>
</event>
<event>
 6    0  0.4945982E+002  0.3385980E+03  0.7546771E-02  0.1067395E+00
          2   -1    0    0  504    0 -0.00000000000E+00  0.00000000000E+00  0.84316117796E+03  0.84316117796E+03  0.00000000000E+00 0.  1.
         21   -1    0    0  503  502  0.00000000000E+00 -0.00000000000E+00 -0.13392168498E+04  0.13392168498E+04  0.00000000000E+00 0.  1.
         21    1    1    2  503  501  0.59610689945E+02  0.37996463915E+01 -0.27875973914E+03  0.28508746699E+03  0.00000000000E+00 0.  1.
         21    1    1    2  504  505  0.14541189082E+03 -0.25770472439E+03 -0.59109794014E+03  0.66102429441E+03  0.00000000000E+00 0.  1.
         21    1    1    2  505  502 -0.13728802409E+02 -0.28528332214E+02 -0.39443363238E+03  0.39570220635E+03  0.00000000000E+00 0.  1.
          2    1    1    2  501    0 -0.19129377836E+03  0.28243341022E+03  0.76823563978E+03  0.84056406006E+03  0.00000000000E+00 0.  1.
<scales pt_clust_3="55.71147" pt_clust_4="14000.00000" pt_clust_5="31.65984" pt_clust_6="338.59800"></scales>
<clustering>
<clus scale="   31.660">  2  5  1 -1</clus>
<clus scale="   55.711">  2  3  1 -1</clus>
<clus scale="  338.598">  1  6  2 -1</clus>
<clus scale="   31.660">  2  3  1 -1</clus>
</clustering>
</event>
<event>
 6    0  0.4945982E+002  0.1852558E+03  0.7546771E-02  0.1162811E+00
         21   -1    0    0  504  502  0.00000000000E+00  0.00000000000E+00  0.91372685285E+03  0.91372685285E+03  0.00000000000E+00 0.  1.
          2   -1    0    0  502    0 -0.00000000000E+00 -0.00000000000E+00 -0.95297057812E+03  0.95297057812E+03  0.00000000000E+00 0.  1.
         21    1    1    2  503  505  0.58498688612E+02 -0.19542086862E+02  0.11910284842E+03  0.13412486060E+03  0.00000000000E+00 0.  1.
         21    1    1    2  504  503  0.28267663266E+02 -0.14608068871E+02  0.28330298860E+03  0.28508426791E+03  0.00000000000E+00 0.  1.
         21    1    1    2  505  501  0.56034879075E+00 -0.13071058765E+03  0.48496916157E+03  0.50227548157E+03  0.00000000000E+00 0.  1.
          2    1    1    2  501    0 -0.87326700669E+02  0.16486074338E+03 -0.92661872386E+03  0.94521282088E+03  0.00000000000E+00 0.  1.
<scales pt_clust_3="68.00690" pt_clust_4="31.81912" pt_clust_5="185.25575" pt_clust_6="14000.00000"></scales>
<clustering>
<clus scale="   31.819">  1  4  2 -1</clus>
<clus scale="   68.007">  1  3  2 -1</clus>
<clus scale="  185.256">  1  5  2 -1</clus>
<clus scale="   31.819">  1  3  2 -1</clus>
</clustering>
</event>
<event>
 6    0  0.4945982E+002  0.1169634E+03  0.7546771E-02  0.1248192E+00
         21   -1    0    0  504  502  0.00000000000E+00  0.00000000000E+00  0.29171136611E+03  0.29171136611E+03  0.00000000000E+00 0. -1.
         -3   -1    0    0    0  501 -0.00000000000E+00 -0.00000000000E+00 -0.78452501960E+03  0.78452501960E+03  0.00000000000E+00 0. -1.
         21    1    1    2  503  502 -0.92228107760E+02 -0.65707079645E+02 -0.36967839320E+02  0.11912206060E+03  0.00000000000E+00 0. -1.
         21    1    1    2  504  505 -0.42379828701E+01  0.11994552354E+03  0.21788278877E+03  0.24875248493E+03  0.00000000000E+00 0. -1.
         21    1    1    2  505  501  0.13109200763E+03 -0.93604818600E+02 -0.43302500566E+03  0.46201475307E+03  0.00000000000E+00 0. -1.
         -3    1    1    2    0  503 -0.34625916997E+02  0.39366374709E+02 -0.24070359728E+03  0.24634708712E+03  0.00000000000E+00 0. -1.
<scales pt_clust_3="114.26168" pt_clust_4="116.96336" pt_clust_5="14000.00000" pt_clust_6="52.42772"></scales>
<clustering>
<clus scale="   52.428">  2  6  1 -1</clus>
<clus scale="  114.262">  1  3  2 -1</clus>
<clus scale="  116.963">  1  4  2 -1</clus>
<clus scale="  114.262">  1  3  2 -1</clus>
</clustering>
</event>
<event>
 6    0  0.4945982E+002  0.3199320E+03  0.7546771E-02  0.1075681E+00
         21   -1    0    0  505  502  0.00000000000E+00  0.00000000000E+00  0.20676560965E+03  0.20676560965E+03  0.00000000000E+00 0.  1.
          2   -1    0    0  502    0 -0.00000000000E+00 -0.00000000000E+00 -0.22575650114E+04  0.22575650114E+04  0.00000000000E+00 0.  1.
         21    1    1    2  503  501  0.43413087923E+02  0.79652328534E+02 -0.13834249204E+02  0.91763697043E+02  0.00000000000E+00 0.  1.
         21    1    1    2  504  503  0.10554182072E+03  0.10763937919E+03  0.57552564912E+02  0.16136173524E+03  0.00000000000E+00 0.  1.
         21    1    1    2  505  504  0.69598850275E+02  0.76977503392E+01  0.22864182292E+02  0.73661564956E+02  0.00000000000E+00 0.  1.
          2    1    1    2  501    0 -0.21855375892E+03 -0.19498945806E+03 -0.21173818997E+04  0.21375436238E+04  0.00000000000E+00 0.  1.
<scales pt_clust_3="67.39127" pt_clust_4="67.39127" pt_clust_5="47.18030" pt_clust_6="292.89355"></scales>
<clustering>
<clus scale="   47.180">  4  5 -1 -1</clus>
<clus scale="   67.391">  3  4 -1 -1</clus>
<clus scale="  292.894">  2  6  1 -1</clus>
<clus scale="  319.932">  1  3  2 -1</clus>
</clustering>
</event>
<event>
 6    0  0.4945982E+002  0.2655476E+03  0.7546771E-02  0.1103855E+00
         -1   -1    0    0    0  501 -0.00000000000E+00  0.00000000000E+00  0.33513546004E+03  0.33513546004E+03  0.00000000000E+00 0. -1.
         21   -1    0    0  505  502  0.00000000000E+00 -0.00000000000E+00 -0.53294733679E+03  0.53294733679E+03  0.00000000000E+00 0.  1.
         21    1    1    2  503  501  0.30163465416E+02 -0.55958027385E+02 -0.33795014439E+02  0.71994711442E+02  0.00000000000E+00 0.  1.
         21    1    1    2  504  502 -0.30157440962E+02  0.61266144317E+01 -0.12927568083E+03  0.13288795395E+03  0.00000000000E+00 0.  1.
         21    1    1    2  505  503  0.11282037915E+03 -0.18026773262E+03 -0.25021621540E+03  0.32837942661E+03  0.00000000000E+00 0.  1.
         -1    1    1    2    0  504 -0.11282640360E+03  0.23009914557E+03  0.21547503392E+03  0.33482070483E+03  0.00000000000E+00 0. -1.
<scales pt_clust_3="32.32758" pt_clust_4="30.77347" pt_clust_5="32.32758" pt_clust_6="259.08578"></scales>
<clustering>
<clus scale="   30.773">  2  4  1 -1</clus>
<clus scale="   32.328">  3  5 -1 -1</clus>
<clus scale="  259.086">  1  6  2 -1</clus>
<clus scale="   30.773">  2  3  1 -1</clus>
</clustering>
</event>
<event>
 6    0  0.4945982E+002  0.1129869E+03  0.7546771E-02  0.1255136E+00
         21   -1    0    0  505  502  0.00000000000E+00  0.00000000000E+00  0.21575770344E+02  0.21575770344E+02  0.00000000000E+00 0.  1.
          1   -1    0    0  503    0 -0.00000000000E+00 -0.00000000000E+00 -0.25697533375E+04  0.25697533375E+04  0.00000000000E+00 0. -1.
         21    1    1    2  503  502  0.45545115526E+02 -0.10387107305E+03 -0.68976366826E+03  0.69902609066E+03  0.00000000000E+00 0.  1.
         21    1    1    2  504  501 -0.72171546831E+02  0.69202476020E+02 -0.25990553694E+03  0.27847549801E+03  0.00000000000E+00 0.  1.
         21    1    1    2  505  504  0.75194666156E+01  0.60172170269E+02 -0.11527530442E+03  0.13025217182E+03  0.00000000000E+00 0.  1.
          1    1    1    2  501    0  0.19106964690E+02 -0.25503573242E+02 -0.14832330575E+04  0.14835753473E+04  0.00000000000E+00 0. -1.
<scales pt_clust_3="112.98690" pt_clust_4="14000.00000" pt_clust_5="58.10193" pt_clust_6="31.86704"></scales>
<clustering>
<clus scale="   31.867">  2  6  1 -1</clus>
<clus scale="   58.102">  1  5  2 -1</clus>
<clus scale="  112.987">  2  3  1 -1</clus>
<clus scale="   58.102">  1  3  2 -1</clus>
</clustering>
</event>
<event>
 6    0  0.4945982E+002  0.7758044E+02  0.7546771E-02  0.1336061E+00
         21   -1    0    0  503  502  0.00000000000E+00  0.00000000000E+00  0.13622443120E+03  0.13622443120E+03  0.00000000000E+00 0. -1.
          1   -1    0    0  505    0 -0.00000000000E+00 -0.00000000000E+00 -0.10831863814E+04  0.10831863814E+04  0.00000000000E+00 0.  1.
         21    1    1    2  503  501 -0.77171879840E+02  0.71040377245E+02  0.15238106698E+01  0.10490260357E+03  0.00000000000E+00 0. -1.
         21    1    1    2  504  502  0.35254101466E+02 -0.66232944102E+02 -0.26795970354E+02  0.79672320048E+02  0.00000000000E+00 0. -1.
         21    1    1    2  505  504  0.52454612021E+02  0.72018361847E+02  0.18880258414E+02  0.91074666747E+02  0.00000000000E+00 0. -1.
          1    1    1    2  501    0 -0.10536833647E+02 -0.76825794990E+02 -0.94057004890E+03  0.94376122220E+03  0.00000000000E+00 0.  1.
<scales pt_clust_3="71.59777" pt_clust_4="75.03102" pt_clust_5="77.58044" pt_clust_6="14000.00000"></scales>
<clustering>
<clus scale="   75.031">  1  4  2 -1</clus>
<clus scale="   71.598">  1  3  2 -1</clus>
<clus scale="   77.580">  1  5  2 -1</clus>
<clus scale="   75.031">  1  3  2 -1</clus>
</clustering>
</event>
<event>
 6    0  0.4945982E+002  0.6195162E+02  0.7546771E-02  0.1389819E+00
         21   -1    0    0  505  502  0.00000000000E+00  0.00000000000E+00  0.19488049646E+04  0.19488049646E+04  0.00000000000E+00 0. -1.
          1   -1    0    0  503    0 -0.00000000000E+00 -0.00000000000E+00 -0.95865937320E+02  0.95865937320E+02  0.00000000000E+00 0.  1.
         21    1    1    2  503  504 -0.21946637697E+02  0.73186709144E+02  0.30559159962E+03  0.31499869057E+03  0.00000000000E+00 0.  1.
         21    1    1    2  504  502 -0.60566095629E+02 -0.39808235844E+01  0.19104408698E+03  0.20045433911E+03  0.00000000000E+00 0.  1.
         21    1    1    2  505  501  0.78748711585E+02 -0.78167453122E+01  0.14305885960E+04  0.14327756950E+04  0.00000000000E+00 0. -1.
          1    1    1    2  501    0  0.37640217401E+01 -0.61389140247E+02 -0.74285255322E+02  0.96442177278E+02  0.00000000000E+00 0.  1.
<scales pt_clust_3="61.95162" pt_clust_4="60.69678" pt_clust_5="31.30733" pt_clust_6="14000.00000"></scales>
<clustering>
<clus scale="   60.697">  1  4  2 -1</clus>
<clus scale="   31.307">  1  5  2 -1</clus>
<clus scale="   61.952">  1  3  2 -1</clus>
<clus scale="   60.697">  1  3  2 -1</clus>
</clustering>
</event>
<event>
 6    0  0.4945982E+002  0.1124740E+03  0.7546771E-02  0.1256056E+00
         21   -1    0    0  505  502  0.00000000000E+00  0.00000000000E+00  0.48803654585E+03  0.48803654585E+03  0.00000000000E+00 0. -1.
          2   -1    0    0  503    0 -0.00000000000E+00 -0.00000000000E+00 -0.28040595426E+03  0.28040595426E+03  0.00000000000E+00 0.  1.
         21    1    1    2  503  504  0.14679906561E+02  0.63526307427E+02  0.17938511985E+03  0.19086674047E+03  0.00000000000E+00 0.  1.
         21    1    1    2  504  502  0.73573281921E+01 -0.31556769331E+02  0.63960928713E+02  0.71700490727E+02  0.00000000000E+00 0.  1.
         21    1    1    2  505  501 -0.56792995804E+02  0.76301706179E+02  0.21251950930E+03  0.23283456911E+03  0.00000000000E+00 0. -1.
          2    1    1    2  501    0  0.34755761051E+02 -0.10827124428E+03 -0.24823496628E+03  0.27304069980E+03  0.00000000000E+00 0.  1.
<scales pt_clust_3="52.76057" pt_clust_4="32.40309" pt_clust_5="112.47398" pt_clust_6="14000.00000"></scales>
<clustering>
<clus scale="   32.403">  1  4  2 -1</clus>
<clus scale="   52.761">  1  3  2 -1</clus>
<clus scale="  112.474">  1  5  2 -1</clus>
<clus scale="   32.403">  1  3  2 -1</clus>
</clustering>
</event>
<event>
 6    0  0.4945982E+002  0.1345980E+03  0.7546771E-02  0.1220788E+00
         21   -1    0    0  504  502  0.00000000000E+00  0.00000000000E+00  0.26274475855E+04  0.26274475855E+04  0.00000000000E+00 0. -1.
          2   -1    0    0  503    0 -0.00000000000E+00 -0.00000000000E+00 -0.10737179195E+04  0.10737179195E+04  0.00000000000E+00 0.  1.
         21    1    1    2  503  502 -0.96860728711E+02  0.80048156102E+02  0.25753356557E+04  0.25783993964E+04  0.00000000000E+00 0. -1.
         21    1    1    2  504  505  0.25560991262E+02 -0.80893914053E+02 -0.83909952999E+01  0.85250210599E+02  0.00000000000E+00 0. -1.
         21    1    1    2  505  501  0.33779142159E+02 -0.16899248933E+02 -0.18719891102E+02  0.42155063544E+02  0.00000000000E+00 0. -1.
          2    1    1    2  501    0  0.37520595291E+02  0.17745006884E+02 -0.99449510328E+03  0.99536083447E+03  0.00000000000E+00 0.  1.
<scales pt_clust_3="125.31670" pt_clust_4="32.77224" pt_clust_5="32.77224" pt_clust_6="41.50518"></scales>
<clustering>
<clus scale="   32.772">  4  5 -1 -1</clus>
<clus scale="   41.505">  2  6  1 -1</clus>
<clus scale="  125.317">  1  3  2 -1</clus>
<clus scale="  125.317">  1  3  2 -1</clus>
</clustering>
</event>
<event>
 6    0  0.4945982E+002  0.1561704E+03  0.7546771E-02  0.1193089E+00
          3   -1    0    0  503    0 -0.00000000000E+00  0.00000000000E+00  0.12529048838E+03  0.12529048838E+03  0.00000000000E+00 0.  1.
         21   -1    0    0  501  502  0.00000000000E+00 -0.00000000000E+00 -0.11172698590E+04  0.11172698590E+04  0.00000000000E+00 0. -1.
         21    1    1    2  503  504  0.36377374424E+02  0.13512943522E+02 -0.18174177782E+02  0.42851064755E+02  0.00000000000E+00 0. -1.
         21    1    1    2  504  505  0.10800984786E+02  0.56385949242E+02 -0.35010636774E+02  0.67244191062E+02  0.00000000000E+00 0.  1.
         21    1    1    2  505  502 -0.14398721962E+03 -0.72070513175E+02 -0.10032840037E+04  0.10161226650E+04  0.00000000000E+00 0. -1.
          3    1    1    2  501    0  0.96808860409E+02  0.21716204121E+01  0.64489447550E+02  0.11634242663E+03  0.00000000000E+00 0.  1.
<scales pt_clust_3="38.39271" pt_clust_4="96.39679" pt_clust_5="156.17037" pt_clust_6="14000.00000"></scales>
<clustering>
<clus scale="   38.393">  3  4 -1 -1</clus>
<clus scale="   96.397">  1  3  2 -1</clus>
<clus scale="  156.170">  2  5  1 -1</clus>
<clus scale="  156.170">  2  3  1 -1</clus>
</clustering>
</event>
<event>
 6    0  0.4945982E+002  0.7717630E+02  0.7546771E-02  0.1337261E+00
         21   -1    0    0  505  502  0.00000000000E+00  0.00000000000E+00  0.20112678250E+04  0.20112678250E+04  0.00000000000E+00 0. -1.
          2   -1    0    0  503    0 -0.00000000000E+00 -0.00000000000E+00 -0.27513400051E+02  0.27513400051E+02  0.00000000000E+00 0. -1.
         21    1    1    2  503  502  0.57138621055E+02 -0.69296761168E+02  0.83539378454E+03  0.84020809230E+03  0.00000000000E+00 0. -1.
         21    1    1    2  504  501  0.71664311682E+01  0.55138931027E+02  0.30617264182E+03  0.31118056824E+03  0.00000000000E+00 0. -1.
         21    1    1    2  505  504 -0.50020928104E+02  0.48703034770E+02  0.84684836801E+03  0.84972127033E+03  0.00000000000E+00 0. -1.
          2    1    1    2  501    0 -0.14284124119E+02 -0.34545204629E+02 -0.46603693908E+01  0.37671294211E+02  0.00000000000E+00 0. -1.
<scales pt_clust_3="14000.00000" pt_clust_4="41.53993" pt_clust_5="77.17630" pt_clust_6="37.38191"></scales>
<clustering>
<clus scale="   37.382">  2  6  1 -1</clus>
<clus scale="   41.540">  2  4  1 -1</clus>
<clus scale="   77.176">  1  5  2 -1</clus>
<clus scale="   77.176">  1  3  2 -1</clus>
</clustering>
</event>
<event>
 6    0  0.4945982E+002  0.7426207E+02  0.7546771E-02  0.1346172E+00
         21   -1    0    0  505  502  0.00000000000E+00  0.00000000000E+00  0.35134990771E+03  0.35134990771E+03  0.00000000000E+00 0.  1.
         -1   -1    0    0    0  501 -0.00000000000E+00 -0.00000000000E+00 -0.15449164445E+04  0.15449164445E+04  0.00000000000E+00 0. -1.
         21    1    1    2  503  502  0.41763658421E+02  0.80136011941E+02  0.19345181452E+02  0.92413308673E+02  0.00000000000E+00 0. -1.
         21    1    1    2  504  503 -0.71601520722E+02  0.52359072948E+02  0.80873365052E+00  0.88706844943E+02  0.00000000000E+00 0. -1.
         21    1    1    2  505  501 -0.30247590147E+01 -0.66008829057E+02  0.24540075243E+03  0.25414138580E+03  0.00000000000E+00 0.  1.
         -1    1    1    2    0  504  0.32862621315E+02 -0.66486255832E+02 -0.14591212044E+04  0.14610048128E+04  0.00000000000E+00 0. -1.
<scales pt_clust_3="59.40149" pt_clust_4="14000.00000" pt_clust_5="66.07810" pt_clust_6="74.26207"></scales>
<clustering>
<clus scale="   66.078">  1  5  2 -1</clus>
<clus scale="   59.401">  1  3  2 -1</clus>
<clus scale="   74.262">  2  6  1 -1</clus>
<clus scale="   66.078">  1  3  2 -1</clus>
</clustering>
</event>
<event>
 6    0  0.4945982E+002  0.1333616E+03  0.7546771E-02  0.1222551E+00
         -2   -1    0    0    0  501 -0.00000000000E+00  0.00000000000E+00  0.12790270542E+03  0.12790270542E+03  0.00000000000E+00 0. -1.
         21   -1    0    0  501  502  0.00000000000E+00 -0.00000000000E+00 -0.15073557456E+04  0.15073557456E+04  0.00000000000E+00 0. -1.
         21    1    1    2  503  505  0.82379966727E+02  0.70114072995E+02 -0.91023820572E+02  0.14137813856E+03  0.00000000000E+00 0. -1.
         21    1    1    2  504  502  0.23078126689E+02 -0.56669499778E+02 -0.27289287696E+03  0.27966865114E+03  0.00000000000E+00 0. -1.
         21    1    1    2  505  504 -0.14752299183E+03 -0.13965505716E+02 -0.11052421978E+04  0.11151315547E+04  0.00000000000E+00 0. -1.
         -2    1    1    2    0  503  0.42064898414E+02  0.52093249970E+00  0.89705855242E+02  0.99080106550E+02  0.00000000000E+00 0. -1.
<scales pt_clust_3="14000.00000" pt_clust_4="62.86849" pt_clust_5="133.36157" pt_clust_6="42.06812"></scales>
<clustering>
<clus scale="   42.068">  1  6  2 -1</clus>
<clus scale="   62.868">  2  4  1 -1</clus>
<clus scale="  133.362">  2  5  1 -1</clus>
<clus scale="   62.868">  2  3  1 -1</clus>
</clustering>
</event>
<event>
 6    0  0.4945982E+002  0.1314503E+03  0.7546771E-02  0.1225319E+00
         21   -1    0    0  504  502  0.00000000000E+00  0.00000000000E+00  0.42527652495E+03  0.42527652495E+03  0.00000000000E+00 0.  1.
         -2   -1    0    0    0  501 -0.00000000000E+00 -0.00000000000E+00 -0.27234870289E+04  0.27234870289E+04  0.00000000000E+00 0. -1.
         21    1    1    2  503  502  0.48213888491E+01 -0.73728928975E+02 -0.11798461102E+03  0.13921052114E+03  0.00000000000E+00 0.  1.
         21    1    1    2  504  501 -0.63738552706E+02  0.10135442627E+03  0.40022693763E+03  0.41775222851E+03  0.00000000000E+00 0.  1.
         21    1    1    2  505  503 -0.26936556129E+02 -0.56718409605E+02 -0.20004838058E+03  0.20967095797E+03  0.00000000000E+00 0.  1.
         -2    1    1    2    0  505  0.85853719986E+02  0.29092912315E+02 -0.23804044499E+04  0.23821298462E+04  0.00000000000E+00 0. -1.
<scales pt_clust_3="51.05869" pt_clust_4="119.21191" pt_clust_5="51.05869" pt_clust_6="90.64910"></scales>
<clustering>
<clus scale="   51.059">  3  5 -1 -1</clus>
<clus scale="   90.649">  2  6  1 -1</clus>
<clus scale="  119.212">  1  4  2 -1</clus>
<clus scale="  119.212">  1  3  2 -1</clus>
</clustering>
</event>
<event>
 6    0  0.4945982E+002  0.3424326E+03  0.7546771E-02  0.1065765E+00
         21   -1    0    0  505  502  0.00000000000E+00  0.00000000000E+00  0.10600171208E+04  0.10600171208E+04  0.00000000000E+00 0.  1.
          3   -1    0    0  503    0 -0.00000000000E+00 -0.00000000000E+00 -0.18010480621E+03  0.18010480621E+03  0.00000000000E+00 0.  1.
         21    1    1    2  503  504  0.51633396943E+02 -0.41333360017E+02  0.81640927173E+01  0.66641629182E+02  0.00000000000E+00 0. -1.
         21    1    1    2  504  502  0.23971354184E+03 -0.19141764658E+03  0.25463408976E+03  0.39867507727E+03  0.00000000000E+00 0.  1.
         21    1    1    2  505  501 -0.67586895883E+02  0.39462656987E+02  0.40098885185E+03  0.40855519713E+03  0.00000000000E+00 0.  1.
          3    1    1    2  501    0 -0.22376004290E+03  0.19328834961E+03  0.21612528023E+03  0.36625002341E+03  0.00000000000E+00 0.  1.
<scales pt_clust_3="42.55857" pt_clust_4="42.55857" pt_clust_5="78.26423" pt_clust_6="329.93847"></scales>
<clustering>
<clus scale="   42.559">  3  4 -1 -1</clus>
<clus scale="   78.264">  1  5  2 -1</clus>
<clus scale="  329.938">  2  6  1 -1</clus>
<clus scale="   78.264">  1  3  2 -1</clus>
</clustering>
</event>
<event>
 6    0  0.4945982E+002  0.1182998E+03  0.7546771E-02  0.1245928E+00
         -1   -1    0    0    0  501 -0.00000000000E+00  0.00000000000E+00  0.11059290570E+03  0.11059290570E+03  0.00000000000E+00 0. -1.
         21   -1    0    0  503  502  0.00000000000E+00 -0.00000000000E+00 -0.15969430256E+04  0.15969430256E+04  0.00000000000E+00 0.  1.
         21    1    1    2  503  504  0.14448281756E+02 -0.37052831420E+02 -0.34962849667E+03  0.35188314942E+03  0.00000000000E+00 0.  1.
         21    1    1    2  504  501  0.50736048529E+02  0.12820339425E+03 -0.53282838755E+03  0.55037836757E+03  0.00000000000E+00 0.  1.
         21    1    1    2  505  502 -0.84661459128E+02 -0.64598908567E+02 -0.69773906923E+03  0.70581895014E+03  0.00000000000E+00 0.  1.
         -1    1    1    2    0  505  0.19477128843E+02 -0.26551654259E+02  0.93845833509E+02  0.99455464198E+02  0.00000000000E+00 0. -1.
<scales pt_clust_3="42.34806" pt_clust_4="14000.00000" pt_clust_5="118.29980" pt_clust_6="32.92945"></scales>
<clustering>
<clus scale="   32.929">  1  6  2 -1</clus>
<clus scale="   42.348">  2  3  1 -1</clus>
<clus scale="  118.300">  2  5  1 -1</clus>
<clus scale="   42.348">  2  3  1 -1</clus>
</clustering>
</event>
<event>
 6    0  0.4945982E+002  0.9145723E+02  0.7546771E-02  0.1299361E+00
          2   -1    0    0  504    0 -0.00000000000E+00  0.00000000000E+00  0.20802531075E+04  0.20802531075E+04  0.00000000000E+00 0. -1.
         21   -1    0    0  503  502  0.00000000000E+00 -0.00000000000E+00 -0.13769120236E+03  0.13769120236E+03  0.00000000000E+00 0. -1.
         21    1    1    2  503  501  0.30836515350E+02  0.28137971108E+02  0.23606720916E+02  0.47957412038E+02  0.00000000000E+00 0.  1.
         21    1    1    2  504  505 -0.12388242770E+03  0.11241077841E+03  0.49200149814E+02  0.17436654994E+03  0.00000000000E+00 0.  1.
         21    1    1    2  505  502  0.23699221688E+02 -0.82921725468E+02 -0.31808107356E+02  0.91920734096E+02  0.00000000000E+00 0. -1.
          2    1    1    2  501    0  0.69346690660E+02 -0.57627024055E+02  0.19015631417E+04  0.19036996138E+04  0.00000000000E+00 0. -1.
<scales pt_clust_3="41.74489" pt_clust_4="14000.00000" pt_clust_5="79.25512" pt_clust_6="91.45723"></scales>
<clustering>
<clus scale="   41.745">  2  3  1 -1</clus>
<clus scale="   79.255">  2  5  1 -1</clus>
<clus scale="   91.457">  1  6  2 -1</clus>
<clus scale="   41.745">  2  3  1 -1</clus>
</clustering>
</event>
<event>
 6    0  0.4945982E+002  0.1292063E+03  0.7546771E-02  0.1228638E+00
         21   -1    0    0  504  502  0.00000000000E+00  0.00000000000E+00  0.11047266281E+03  0.11047266281E+03  0.00000000000E+00 0. -1.
          1   -1    0    0  505    0 -0.00000000000E+00 -0.00000000000E+00 -0.73896275643E+03  0.73896275643E+03  0.00000000000E+00 0. -1.
         21    1    1    2  503  501  0.15222538817E+02 -0.58359189522E+02  0.90489009020E+01  0.60986910869E+02  0.00000000000E+00 0. -1.
         21    1    1    2  504  503  0.38136106386E+02 -0.35774396212E+02 -0.44709494452E+01  0.52480085971E+02  0.00000000000E+00 0. -1.
         21    1    1    2  505  502  0.52062167383E+02  0.22492689023E+02  0.27631710004E+02  0.63086462334E+02  0.00000000000E+00 0. -1.
          1    1    1    2  501    0 -0.10542081259E+03  0.71640896711E+02 -0.66069975508E+03  0.67288196006E+03  0.00000000000E+00 0. -1.
<scales pt_clust_3="31.51427" pt_clust_4="31.51427" pt_clust_5="56.71323" pt_clust_6="124.69463"></scales>
<clustering>
<clus scale="   31.514">  3  4 -1 -1</clus>
<clus scale="   56.713">  1  5  2 -1</clus>
<clus scale="  124.695">  2  6  1 -1</clus>
<clus scale="   56.713">  1  3  2 -1</clus>
</clustering>
</event>
<event>
 6    0  0.4945982E+002  0.4027240E+03  0.7546771E-02  0.1042840E+00
         21   -1    0    0  501  502  0.00000000000E+00  0.00000000000E+00  0.10555363033E+04  0.10555363033E+04  0.00000000000E+00 0. -1.
          2   -1    0    0  503    0 -0.00000000000E+00 -0.00000000000E+00 -0.19364762531E+04  0.19364762531E+04  0.00000000000E+00 0.  1.
         21    1    1    2  503  504  0.22970195468E+03 -0.10674615675E+03  0.41595144601E+02  0.25668635729E+03  0.00000000000E+00 0. -1.
         21    1    1    2  504  505  0.95264199429E+02 -0.10099636639E+02  0.32499346637E+03  0.33881857024E+03  0.00000000000E+00 0. -1.
         21    1    1    2  505  502  0.92801974956E+02  0.19751361190E+02  0.54509374389E+03  0.55328971837E+03  0.00000000000E+00 0. -1.
          2    1    1    2  501    0 -0.41776812906E+03  0.97094432202E+02 -0.17926223046E+04  0.18432179105E+04  0.00000000000E+00 0.  1.
<scales pt_clust_3="14000.00000" pt_clust_4="196.99098" pt_clust_5="57.54461" pt_clust_6="402.72405"></scales>
<clustering>
<clus scale="   57.545">  4  5 -1 -1</clus>
<clus scale="  196.991">  1  4  2 -1</clus>
<clus scale="  402.724">  2  6  1 -1</clus>
<clus scale="  196.991">  1  3  2 -1</clus>
</clustering>
</event>
<event>
 6    0  0.4945982E+002  0.9419298E+02  0.7546771E-02  0.1293004E+00
         21   -1    0    0  503  502  0.00000000000E+00  0.00000000000E+00  0.32979339166E+03  0.32979339166E+03  0.00000000000E+00 0.  1.
          1   -1    0    0  505    0 -0.00000000000E+00 -0.00000000000E+00 -0.17763560400E+03  0.17763560400E+03  0.00000000000E+00 0.  1.
         21    1    1    2  503  504 -0.85435994595E+02 -0.54087145737E+02  0.16223762872E+03  0.19116949725E+03  0.00000000000E+00 0.  1.
         21    1    1    2  504  501  0.15554137366E+02  0.57541126473E+02  0.47899139683E+02  0.76467247939E+02  0.00000000000E+00 0.  1.
         21    1    1    2  505  502  0.78802676888E+02  0.32326026124E+02  0.67707602375E+02  0.10880787319E+03  0.00000000000E+00 0.  1.
          1    1    1    2  501    0 -0.89208196580E+01 -0.35780006859E+02 -0.12568658312E+03  0.13098437728E+03  0.00000000000E+00 0.  1.
<scales pt_clust_3="94.19298" pt_clust_4="48.92469" pt_clust_5="14000.00000" pt_clust_6="36.87533"></scales>
<clustering>
<clus scale="   36.875">  2  6  1 -1</clus>
<clus scale="   48.925">  2  4  1 -1</clus>
<clus scale="   94.193">  1  3  2 -1</clus>
<clus scale="   94.193">  1  3  2 -1</clus>
</clustering>
</event>
<event>
 6    0  0.4945982E+002  0.1209009E+03  0.7546771E-02  0.1241618E+00
         21   -1    0    0  505  502  0.00000000000E+00  0.00000000000E+00  0.90044307610E+02  0.90044307610E+02  0.00000000000E+00 0. -1.
          3   -1    0    0  503    0 -0.00000000000E+00 -0.00000000000E+00 -0.67296161940E+03  0.67296161940E+03  0.00000000000E+00 0.  1.
         21    1    1    2  503  502 -0.12552308336E+03 -0.22659085494E+02 -0.41186301086E+02  0.13403652490E+03  0.00000000000E+00 0. -1.
         21    1    1    2  504  501  0.68159671625E+02 -0.17092112571E+02 -0.16069126843E+02  0.72083964830E+02  0.00000000000E+00 0. -1.
         21    1    1    2  505  504  0.22335873469E+02 -0.39954990338E+02 -0.32601645428E+02  0.56197506894E+02  0.00000000000E+00 0. -1.
          3    1    1    2  501    0  0.35027538263E+02  0.79706188403E+02 -0.49306023843E+03  0.50068793038E+03  0.00000000000E+00 0.  1.
<scales pt_clust_3="109.42367" pt_clust_4="41.49671" pt_clust_5="41.49671" pt_clust_6="87.06322"></scales>
<clustering>
<clus scale="   41.497">  4  5 -1 -1</clus>
<clus scale="   87.063">  2  6  1 -1</clus>
<clus scale="  109.424">  2  3  1 -1</clus>
<clus scale="  120.901">  1  3  2 -1</clus>
</clustering>
</event>
<event>
 6    0  0.4945982E+002  0.1042090E+03  0.7546771E-02  0.1271686E+00
          2   -1    0    0  504    0 -0.00000000000E+00  0.00000000000E+00  0.41834827982E+03  0.41834827982E+03  0.00000000000E+00 0.  1.
         21   -1    0    0  503  502  0.00000000000E+00 -0.00000000000E+00 -0.16991329701E+03  0.16991329701E+03  0.00000000000E+00 0.  1.
         21    1    1    2  503  505 -0.32564766104E+02 -0.47720342225E+02 -0.52705474796E+02  0.78202059608E+02  0.00000000000E+00 0.  1.
         21    1    1    2  504  502  0.13760575841E+02 -0.57100384861E+02  0.19551299989E+02  0.61903640685E+02  0.00000000000E+00 0.  1.
         21    1    1    2  505  501 -0.59947790414E+02  0.22625296879E+02 -0.60194135520E+02  0.87914592562E+02  0.00000000000E+00 0.  1.
          2    1    1    2  501    0  0.78751980677E+02  0.82195430208E+02  0.34178329314E+03  0.36024128397E+03  0.00000000000E+00 0.  1.
<scales pt_clust_3="57.77279" pt_clust_4="67.15698" pt_clust_5="104.20902" pt_clust_6="14000.00000"></scales>
<clustering>
<clus scale="   57.773">  2  3  1 -1</clus>
<clus scale="   67.157">  2  4  1 -1</clus>
<clus scale="  104.209">  2  5  1 -1</clus>
<clus scale="   57.773">  2  3  1 -1</clus>
</clustering>
</event>
<event>
 6    0  0.4945982E+002  0.1627877E+03  0.7546771E-02  0.1185585E+00
         21   -1    0    0  504  502  0.00000000000E+00  0.00000000000E+00  0.30498997346E+02  0.30498997346E+02  0.00000000000E+00 0. -1.
          2   -1    0    0  503    0 -0.00000000000E+00 -0.00000000000E+00 -0.21413792672E+04  0.21413792672E+04  0.00000000000E+00 0. -1.
         21    1    1    2  503  505  0.41858775074E+02 -0.43036828578E+02 -0.21337720194E+03  0.22166225654E+03  0.00000000000E+00 0. -1.
         21    1    1    2  504  501 -0.32928907808E+02  0.35730138648E+01 -0.33977020618E+02  0.47450156244E+02  0.00000000000E+00 0. -1.
         21    1    1    2  505  502  0.51349611805E+02 -0.91799791626E+02 -0.15023740175E+03  0.18339918555E+03  0.00000000000E+00 0. -1.
          2    1    1    2  501    0 -0.60279479071E+02  0.13126360634E+03 -0.17132886456E+04  0.17193666663E+04  0.00000000000E+00 0. -1.
<scales pt_clust_3="54.46918" pt_clust_4="33.12219" pt_clust_5="54.46918" pt_clust_6="146.66073"></scales>
<clustering>
<clus scale="   33.122">  1  4  2 -1</clus>
<clus scale="   54.469">  3  5 -1 -1</clus>
<clus scale="  146.661">  2  6  1 -1</clus>
<clus scale="   33.122">  1  3  2 -1</clus>
</clustering>
</event>
<event>
 6    0  0.4945982E+002  0.7151404E+02  0.7546771E-02  0.1355019E+00
         21   -1    0    0  503  502  0.00000000000E+00  0.00000000000E+00  0.69067475648E+03  0.69067475648E+03  0.00000000000E+00 0.  1.
         -4   -1    0    0    0  501 -0.00000000000E+00 -0.00000000000E+00 -0.17060628094E+04  0.17060628094E+04  0.00000000000E+00 0.  1.
         21    1    1    2  503  505  0.28739561053E+02  0.72400519000E+02 -0.15239085705E+03  0.17114546688E+03  0.00000000000E+00 0. -1.
         21    1    1    2  504  502 -0.17539540497E+02 -0.33951356000E+02  0.67552409861E+03  0.67660412196E+03  0.00000000000E+00 0.  1.
         21    1    1    2  505  501  0.62267555053E+02 -0.22682086497E+02 -0.26179685629E+03  0.27005428977E+03  0.00000000000E+00 0. -1.
         -4    1    1    2    0  504 -0.73467575609E+02 -0.15767076503E+02 -0.12767244382E+04  0.12789336873E+04  0.00000000000E+00 0.  1.
<scales pt_clust_3="53.54454" pt_clust_4="38.21427" pt_clust_5="14000.00000" pt_clust_6="71.51404"></scales>
<clustering>
<clus scale="   38.214">  1  4  2 -1</clus>
<clus scale="   53.545">  1  3  2 -1</clus>
<clus scale="   71.514">  2  6  1 -1</clus>
<clus scale="   38.214">  1  3  2 -1</clus>
</clustering>
</event>
<event>
 6    0  0.4945982E+002  0.9692982E+02  0.7546771E-02  0.1286888E+00
         21   -1    0    0  503  502  0.00000000000E+00  0.00000000000E+00  0.43332415751E+03  0.43332415751E+03  0.00000000000E+00 0. -1.
          2   -1    0    0  505    0 -0.00000000000E+00 -0.00000000000E+00 -0.49785501495E+03  0.49785501495E+03  0.00000000000E+00 0. -1.
         21    1    1    2  503  501  0.10670607630E+03  0.60104453571E+01  0.22353183734E+02  0.10918780607E+03  0.00000000000E+00 0.  1.
         21    1    1    2  504  502 -0.13526089356E+02  0.48227796419E+02  0.32044711859E+03  0.32433814339E+03  0.00000000000E+00 0. -1.
         21    1    1    2  505  504 -0.84916888916E+02 -0.24998298953E+02  0.66964497031E+00  0.88522547400E+02  0.00000000000E+00 0. -1.
          2    1    1    2  501    0 -0.82630980240E+01 -0.29239942823E+02 -0.40800080474E+03  0.40913067559E+03  0.00000000000E+00 0. -1.
<scales pt_clust_3="96.92982" pt_clust_4="49.52506" pt_clust_5="14000.00000" pt_clust_6="30.38508"></scales>
<clustering>
<clus scale="   30.385">  2  6  1 -1</clus>
<clus scale="   49.525">  1  4  2 -1</clus>
<clus scale="   96.930">  1  3  2 -1</clus>
<clus scale="   49.525">  1  3  2 -1</clus>
</clustering>
</event>
<event>
 6    0  0.4945982E+002  0.1348253E+03  0.7546771E-02  0.1220467E+00
         21   -1    0    0  504  502  0.00000000000E+00  0.00000000000E+00  0.65315313922E+03  0.65315313922E+03  0.00000000000E+00 0.  1.
          1   -1    0    0  503    0 -0.00000000000E+00 -0.00000000000E+00 -0.65807574258E+03  0.65807574258E+03  0.00000000000E+00 0. -1.
         21    1    1    2  503  502 -0.51550417107E+02  0.13516794279E+01  0.26653933920E+03  0.27148202865E+03  0.00000000000E+00 0.  1.
         21    1    1    2  504  505  0.82880455057E+02  0.62411512575E+00  0.22413637961E+03  0.23897003162E+03  0.00000000000E+00 0.  1.
         21    1    1    2  505  501  0.85481226601E+02  0.31449081713E+02  0.13263753424E+03  0.16089996996E+03  0.00000000000E+00 0.  1.
          1    1    1    2  501    0 -0.11681126455E+03 -0.33424876266E+02 -0.62823585641E+03  0.63987685156E+03  0.00000000000E+00 0. -1.
<scales pt_clust_3="51.56813" pt_clust_4="47.87096" pt_clust_5="47.87096" pt_clust_6="122.24490"></scales>
<clustering>
<clus scale="   51.568">  1  3  2 -1</clus>
<clus scale="   47.871">  4  5 -1 -1</clus>
<clus scale="  122.245">  2  6  1 -1</clus>
<clus scale="   51.568">  1  3  2 -1</clus>
</clustering>
</event>
<event>
 6    0  0.4945982E+002  0.9452416E+02  0.7546771E-02  0.1292251E+00
         21   -1    0    0  501  502  0.00000000000E+00  0.00000000000E+00  0.87627167092E+03  0.87627167092E+03  0.00000000000E+00 0. -1.
          2   -1    0    0  505    0 -0.00000000000E+00 -0.00000000000E+00 -0.27517083662E+03  0.27517083662E+03  0.00000000000E+00 0. -1.
         21    1    1    2  503  504 -0.10459483019E+03  0.44824622530E+02  0.60529935507E+03  0.61590310483E+03  0.00000000000E+00 0. -1.
         21    1    1    2  504  502 -0.76009342575E+01 -0.55182677439E+02  0.21628779196E+03  0.22334572090E+03  0.00000000000E+00 0.  1.
         21    1    1    2  505  503  0.56408340885E+02  0.10125548803E+02  0.23477621945E+02  0.61932434089E+02  0.00000000000E+00 0. -1.
          2    1    1    2  501    0  0.55787423564E+02  0.23250610592E+00 -0.24396393468E+03  0.25026124772E+03  0.00000000000E+00 0. -1.
<scales pt_clust_3="14000.00000" pt_clust_4="55.70370" pt_clust_5="94.52416" pt_clust_6="55.75098"></scales>
<clustering>
<clus scale="   55.704">  1  4  2 -1</clus>
<clus scale="   55.751">  2  6  1 -1</clus>
<clus scale="   94.524">  2  5  1 -1</clus>
<clus scale="   55.704">  1  3  2 -1</clus>
</clustering>
</event>
<event>
 6    0  0.4945982E+002  0.9108535E+02  0.7546771E-02  0.1300244E+00
          2   -1    0    0  502    0 -0.00000000000E+00  0.00000000000E+00  0.43441209150E+04  0.43441209150E+04  0.00000000000E+00 0.  1.
         21   -1    0    0  503  502  0.00000000000E+00 -0.00000000000E+00 -0.48972349726E+03  0.48972349726E+03  0.00000000000E+00 0. -1.
         21    1    1    2  503  504  0.22073820038E+02 -0.41375567488E+02 -0.46692450046E+03  0.46927356653E+03  0.00000000000E+00 0. -1.
         21    1    1    2  504  505 -0.10563610425E+03 -0.13618731123E+02  0.11851002780E+03  0.15933952130E+03  0.00000000000E+00 0.  1.
         21    1    1    2  505  501  0.37138684600E+02  0.37213700980E+02  0.66662517196E+03  0.66869519313E+03  0.00000000000E+00 0.  1.
          2    1    1    2  501    0  0.46423599617E+02  0.17780597631E+02  0.35361867184E+04  0.35365361313E+04  0.00000000000E+00 0.  1.
<scales pt_clust_3="46.89553" pt_clust_4="91.08535" pt_clust_5="14000.00000" pt_clust_6="49.76057"></scales>
<clustering>
<clus scale="   46.896">  2  3  1 -1</clus>
<clus scale="   49.761">  1  6  2 -1</clus>
<clus scale="   91.085">  2  4  1 -1</clus>
<clus scale="   46.896">  2  3  1 -1</clus>
</clustering>
</event>
<event>
 6    0  0.4945982E+002  0.8135639E+02  0.7546771E-02  0.1325246E+00
         21   -1    0    0  504  502  0.00000000000E+00  0.00000000000E+00  0.53733711907E+02  0.53733711907E+02  0.00000000000E+00 0.  1.
          2   -1    0    0  505    0 -0.00000000000E+00 -0.00000000000E+00 -0.25140434599E+04  0.25140434599E+04  0.00000000000E+00 0.  1.
         21    1    1    2  503  501 -0.13015322620E+02  0.47557070214E+02 -0.13815185345E+03  0.14668676887E+03  0.00000000000E+00 0.  1.
         21    1    1    2  504  503  0.20742434770E+02 -0.37091040492E+02  0.67337979317E+01  0.43027176524E+02  0.00000000000E+00 0.  1.
         21    1    1    2  505  502 -0.88758577501E+02 -0.14130467724E+02 -0.60773452081E+02  0.10849501222E+03  0.00000000000E+00 0.  1.
          2    1    1    2  501    0  0.81031465351E+02  0.36644380023E+01 -0.22681182404E+04  0.22695682142E+04  0.00000000000E+00 0.  1.
<scales pt_clust_3="43.23124" pt_clust_4="42.49699" pt_clust_5="81.35639" pt_clust_6="14000.00000"></scales>
<clustering>
<clus scale="   42.497">  1  4  2 -1</clus>
<clus scale="   43.231">  1  3  2 -1</clus>
<clus scale="   81.356">  1  5  2 -1</clus>
<clus scale="   42.497">  1  3  2 -1</clus>
</clustering>
</event>
<event>
 6    0  0.4945982E+002  0.1286929E+03  0.7546771E-02  0.1229408E+00
         -3   -1    0    0    0  501 -0.00000000000E+00  0.00000000000E+00  0.86834455535E+03  0.86834455535E+03  0.00000000000E+00 0. -1.
         21   -1    0    0  503  502  0.00000000000E+00 -0.00000000000E+00 -0.10235234258E+03  0.10235234258E+03  0.00000000000E+00 0. -1.
         21    1    1    2  503  501 -0.88121314414E+02  0.43754336013E+01 -0.61560987005E+01  0.88444378140E+02  0.00000000000E+00 0. -1.
         21    1    1    2  504  502  0.18451586745E+02 -0.29308366175E+02 -0.21481418638E+02  0.40754051675E+02  0.00000000000E+00 0. -1.
         21    1    1    2  505  504 -0.60506810680E+02  0.57835850522E+02  0.81517117868E+02  0.11683792300E+03  0.00000000000E+00 0. -1.
         -3    1    1    2    0  505  0.13017653835E+03 -0.32902917949E+02  0.71211261224E+03  0.72466054512E+03  0.00000000000E+00 0. -1.
<scales pt_clust_3="14000.00000" pt_clust_4="34.63295" pt_clust_5="75.40374" pt_clust_6="128.69292"></scales>
<clustering>
<clus scale="   34.633">  2  4  1 -1</clus>
<clus scale="   75.404">  2  5  1 -1</clus>
<clus scale="  128.693">  1  6  2 -1</clus>
<clus scale="   34.633">  2  3  1 -1</clus>
</clustering>
</event>
<event>
 6    0  0.4945982E+002  0.8223502E+02  0.7546771E-02  0.1322826E+00
          1   -1    0    0  503    0 -0.00000000000E+00  0.00000000000E+00  0.21220242762E+04  0.21220242762E+04  0.00000000000E+00 0.  1.
         21   -1    0    0  505  502  0.00000000000E+00 -0.00000000000E+00 -0.10549272182E+03  0.10549272182E+03  0.00000000000E+00 0.  1.
         21    1    1    2  503  502  0.63971029079E+02  0.73041439245E+02 -0.20396557124E+02  0.99213728641E+02  0.00000000000E+00 0.  1.
         21    1    1    2  504  501 -0.47614215927E+02 -0.25349223254E+02  0.74330118513E+02  0.91840422452E+02  0.00000000000E+00 0.  1.
         21    1    1    2  505  504  0.47970307578E+01 -0.79473635007E+02  0.63812423076E+01  0.79873590245E+02  0.00000000000E+00 0.  1.
          1    1    1    2  501    0 -0.21153843910E+02  0.31781419016E+02  0.19562167507E+04  0.19565892567E+04  0.00000000000E+00 0.  1.
<scales pt_clust_3="14000.00000" pt_clust_4="58.98103" pt_clust_5="82.23502" pt_clust_6="38.17779"></scales>
<clustering>
<clus scale="   38.178">  1  6  2 -1</clus>
<clus scale="   58.981">  1  4  2 -1</clus>
<clus scale="   82.235">  1  5  2 -1</clus>
<clus scale="   82.235">  2  3  1 -1</clus>
</clustering>
</event>
<event>
 6    0  0.4945982E+002  0.1002030E+03  0.7546771E-02  0.1279870E+00
         21   -1    0    0  503  502  0.00000000000E+00  0.00000000000E+00  0.58572701143E+03  0.58572701143E+03  0.00000000000E+00 0. -1.
          1   -1    0    0  504    0 -0.00000000000E+00 -0.00000000000E+00 -0.36502098885E+03  0.36502098885E+03  0.00000000000E+00 0. -1.
         21    1    1    2  503  505 -0.19075019675E+02  0.67025614008E+02  0.34699939897E+03  0.35392777821E+03  0.00000000000E+00 0. -1.
         21    1    1    2  504  502  0.90771466571E+01 -0.48281822791E+02  0.93107946879E+02  0.10527401757E+03  0.00000000000E+00 0. -1.
         21    1    1    2  505  501 -0.43853202370E+02  0.67138879603E+02  0.11607901178E+03  0.14108532697E+03  0.00000000000E+00 0. -1.
          1    1    1    2  501    0  0.53851075388E+02 -0.85882670820E+02 -0.33548033505E+03  0.35046087752E+03  0.00000000000E+00 0. -1.
<scales pt_clust_3="34.59823" pt_clust_4="49.12768" pt_clust_5="100.20301" pt_clust_6="14000.00000"></scales>
<clustering>
<clus scale="   49.128">  1  4  2 -1</clus>
<clus scale="   34.598">  1  3  2 -1</clus>
<clus scale="  100.203">  1  5  2 -1</clus>
<clus scale="   49.128">  1  3  2 -1</clus>
</clustering>
</event>
<event>
 6    0  0.4945982E+002  0.9901674E+02  0.7546771E-02  0.1282377E+00
         21   -1    0    0  504  502  0.00000000000E+00  0.00000000000E+00  0.24907187573E+03  0.24907187573E+03  0.00000000000E+00 0. -1.
          2   -1    0    0  505    0 -0.00000000000E+00 -0.00000000000E+00 -0.57974055352E+03  0.57974055352E+03  0.00000000000E+00 0. -1.
         21    1    1    2  503  502  0.14206096767E+02  0.29810079936E+02  0.16094295444E+02  0.36735274560E+02  0.00000000000E+00 0.  1.
         21    1    1    2  504  501 -0.10930368462E+03 -0.84947035854E+02  0.17001934419E+03  0.21924842479E+03  0.00000000000E+00 0. -1.
         21    1    1    2  505  503  0.72972957945E+02 -0.12399952859E+01 -0.24724280799E+02  0.77057642324E+02  0.00000000000E+00 0.  1.
          2    1    1    2  501    0  0.22124629907E+02  0.56376951203E+02 -0.49205803662E+03  0.49577108758E+03  0.00000000000E+00 0. -1.
<scales pt_clust_3="33.02202" pt_clust_4="99.01674" pt_clust_5="14000.00000" pt_clust_6="60.83751"></scales>
<clustering>
<clus scale="   33.022">  1  3  2 -1</clus>
<clus scale="   60.838">  2  6  1 -1</clus>
<clus scale="   99.017">  1  4  2 -1</clus>
<clus scale="   33.022">  1  3  2 -1</clus>
</clustering>
</event>
<event>
 6    0  0.4945982E+002  0.1016163E+03  0.7546771E-02  0.1276933E+00
          1   -1    0    0  504    0 -0.00000000000E+00  0.00000000000E+00  0.75038310522E+03  0.75038310522E+03  0.00000000000E+00 0.  1.
         21   -1    0    0  505  502  0.00000000000E+00 -0.00000000000E+00 -0.61125837214E+02  0.61125837214E+02  0.00000000000E+00 0.  1.
         21    1    1    2  503  502 -0.32340077626E+02 -0.48783814874E+02  0.38597394550E+02  0.70110627444E+02  0.00000000000E+00 0.  1.
         21    1    1    2  504  503 -0.84716397447E+02  0.20882839068E+02  0.64234102728E+02  0.10834657778E+03  0.00000000000E+00 0.  1.
         21    1    1    2  505  501  0.12290563557E+02  0.33516415477E+02 -0.16048133686E+01  0.35734905694E+02  0.00000000000E+00 0.  1.
          1    1    1    2  501    0  0.10476591152E+03 -0.56154396721E+01  0.58803058410E+03  0.59731683152E+03  0.00000000000E+00 0.  1.
<scales pt_clust_3="45.74505" pt_clust_4="101.61635" pt_clust_5="35.69885" pt_clust_6="14000.00000"></scales>
<clustering>
<clus scale="   35.699">  2  5  1 -1</clus>
<clus scale="   45.745">  2  3  1 -1</clus>
<clus scale="  101.616">  2  4  1 -1</clus>
<clus scale="   35.699">  2  3  1 -1</clus>
</clustering>
</event>
<event>
 6    0  0.4945982E+002  0.1243887E+03  0.7546771E-02  0.1236028E+00
          1   -1    0    0  502    0 -0.00000000000E+00  0.00000000000E+00  0.15448054713E+04  0.15448054713E+04  0.00000000000E+00 0. -1.
         21   -1    0    0  503  502  0.00000000000E+00 -0.00000000000E+00 -0.38283297358E+02  0.38283297358E+02  0.00000000000E+00 0.  1.
         21    1    1    2  503  505  0.97381888248E+02 -0.27031476220E+02  0.61547616726E+02  0.11833022433E+03  0.00000000000E+00 0.  1.
         21    1    1    2  504  501 -0.12551701658E+03  0.13180754626E+02  0.61041985288E+03  0.62333029008E+03  0.00000000000E+00 0.  1.
         21    1    1    2  505  504 -0.28804746300E+02  0.35687349918E+02  0.31917000939E+03  0.32244812799E+03  0.00000000000E+00 0.  1.
          1    1    1    2  501    0  0.56939874627E+02 -0.21836628324E+02  0.51538469492E+03  0.51898012623E+03  0.00000000000E+00 0. -1.
<scales pt_clust_3="106.37829" pt_clust_4="38.86260" pt_clust_5="38.86260" pt_clust_6="60.98350"></scales>
<clustering>
<clus scale="   38.863">  4  5 -1 -1</clus>
<clus scale="   60.984">  1  6  2 -1</clus>
<clus scale="  106.378">  2  3  1 -1</clus>
<clus scale="  106.378">  2  3  1 -1</clus>
</clustering>
</event>
<event>
 6    0  0.4945982E+002  0.8927854E+02  0.7546771E-02  0.1304608E+00
          2   -1    0    0  503    0 -0.00000000000E+00  0.00000000000E+00  0.73750956154E+02  0.73750956154E+02  0.00000000000E+00 0. -1.
         21   -1    0    0  504  502  0.00000000000E+00 -0.00000000000E+00 -0.13709867304E+04  0.13709867304E+04  0.00000000000E+00 0.  1.
         21    1    1    2  503  502  0.69988092566E+02  0.48221698044E-01 -0.75736252975E+02  0.10312281727E+03  0.00000000000E+00 0.  1.
         21    1    1    2  504  505 -0.91688363128E+02 -0.17988922801E+01 -0.12191621580E+04  0.12226063796E+04  0.00000000000E+00 0.  1.
         21    1    1    2  505  501  0.20694789927E+02 -0.45543472026E+02 -0.35409887211E+02  0.61289006246E+02  0.00000000000E+00 0. -1.
          2    1    1    2  501    0  0.10054806348E+01  0.47294142608E+02  0.33072524007E+02  0.57719483371E+02  0.00000000000E+00 0. -1.
<scales pt_clust_3="14000.00000" pt_clust_4="89.27854" pt_clust_5="31.96269" pt_clust_6="47.30483"></scales>
<clustering>
<clus scale="   47.305">  1  6  2 -1</clus>
<clus scale="   31.963">  1  5  2 -1</clus>
<clus scale="   89.279">  2  4  1 -1</clus>
<clus scale="   89.279">  2  3  1 -1</clus>
</clustering>
</event>
<event>
 6    0  0.4945982E+002  0.9845657E+02  0.7546771E-02  0.1283575E+00
          1   -1    0    0  505    0 -0.00000000000E+00  0.00000000000E+00  0.78170487716E+03  0.78170487716E+03  0.00000000000E+00 0.  1.
         21   -1    0    0  503  502  0.00000000000E+00 -0.00000000000E+00 -0.22515632468E+03  0.22515632468E+03  0.00000000000E+00 0.  1.
         21    1    1    2  503  501  0.56191784662E+02 -0.52270235751E+02  0.22936498961E+02  0.80098546763E+02  0.00000000000E+00 0.  1.
         21    1    1    2  504  502 -0.54682617535E+02  0.72328001823E+02 -0.62487490885E+02  0.11011909474E+03  0.00000000000E+00 0.  1.
         21    1    1    2  505  504 -0.63231303958E+02  0.41302234237E+02 -0.94279515565E+02  0.12080024589E+03  0.00000000000E+00 0.  1.
          1    1    1    2  501    0  0.61722136831E+02 -0.61360000309E+02  0.69037905997E+03  0.69584331444E+03  0.00000000000E+00 0.  1.
<scales pt_clust_3="76.74434" pt_clust_4="40.11882" pt_clust_5="40.11882" pt_clust_6="88.09865"></scales>
<clustering>
<clus scale="   40.119">  4  5 -1 -1</clus>
<clus scale="   76.744">  2  3  1 -1</clus>
<clus scale="   88.099">  1  6  2 -1</clus>
<clus scale="   76.744">  2  3  1 -1</clus>
</clustering>
</event>
<event>
 6    0  0.4945982E+002  0.1079147E+03  0.7546771E-02  0.1264481E+00
          1   -1    0    0  503    0 -0.00000000000E+00  0.00000000000E+00  0.10109922164E+04  0.10109922164E+04  0.00000000000E+00 0. -1.
         21   -1    0    0  504  502  0.00000000000E+00 -0.00000000000E+00 -0.90131572275E+02  0.90131572275E+02  0.00000000000E+00 0.  1.
         21    1    1    2  503  502  0.11778164315E+02  0.77671923485E+02 -0.21667449908E+02  0.81493136141E+02  0.00000000000E+00 0.  1.
         21    1    1    2  504  505  0.36720772465E+01  0.32990381227E+02  0.45532242810E+02  0.56347444841E+02  0.00000000000E+00 0. -1.
         21    1    1    2  505  501  0.62344459155E+02 -0.31706850742E+02  0.11507311066E+02  0.70884230823E+02  0.00000000000E+00 0.  1.
          1    1    1    2  501    0 -0.77794700717E+02 -0.78955453970E+02  0.88548854015E+03  0.89239897687E+03  0.00000000000E+00 0. -1.
<scales pt_clust_3="14000.00000" pt_clust_4="33.19412" pt_clust_5="66.74440" pt_clust_6="107.91468"></scales>
<clustering>
<clus scale="   33.194">  2  4  1 -1</clus>
<clus scale="   66.744">  2  5  1 -1</clus>
<clus scale="  107.915">  1  6  2 -1</clus>
<clus scale="   33.194">  2  3  1 -1</clus>
</clustering>
</event>
<event>
 6    0  0.4945982E+002  0.2329647E+03  0.7546771E-02  0.1124570E+00
         21   -1    0    0  501  502  0.00000000000E+00  0.00000000000E+00  0.83101783535E+02  0.83101783535E+02  0.00000000000E+00 0.  1.
          2   -1    0    0  503    0 -0.00000000000E+00 -0.00000000000E+00 -0.14628194624E+04  0.14628194624E+04  0.00000000000E+00 0. -1.
         21    1    1    2  503  505  0.27145275278E+02 -0.63327060789E+02 -0.34861388333E+03  0.35535731630E+03  0.00000000000E+00 0.  1.
         21    1    1    2  504  502  0.10090124664E+02 -0.45778593922E+02  0.63890297531E+01  0.47310780784E+02  0.00000000000E+00 0.  1.
         21    1    1    2  505  504  0.18918892071E+03 -0.58980083058E+02 -0.43865032884E+03  0.48133689752E+03  0.00000000000E+00 0.  1.
          2    1    1    2  501    0 -0.22642432065E+03  0.16808573777E+03 -0.59884249641E+03  0.66191625130E+03  0.00000000000E+00 0. -1.
<scales pt_clust_3="71.66202" pt_clust_4="46.87740" pt_clust_5="232.96468" pt_clust_6="14000.00000"></scales>
<clustering>
<clus scale="   46.877">  1  4  2 -1</clus>
<clus scale="   71.662">  2  3  1 -1</clus>
<clus scale="  232.965">  1  5  2 -1</clus>
<clus scale="   46.877">  1  3  2 -1</clus>
</clustering>
</event>
<event>
 6    0  0.4945982E+002  0.1747235E+03  0.7546771E-02  0.1173010E+00
          2   -1    0    0  502    0 -0.00000000000E+00  0.00000000000E+00  0.36545520065E+04  0.36545520065E+04  0.00000000000E+00 0. -1.
         21   -1    0    0  505  502  0.00000000000E+00 -0.00000000000E+00 -0.14681166509E+03  0.14681166509E+03  0.00000000000E+00 0.  1.
         21    1    1    2  503  501 -0.19254245027E+03 -0.64980087601E+02  0.86390943302E+03  0.88748775508E+03  0.00000000000E+00 0. -1.
         21    1    1    2  504  503  0.10709857031E+03  0.23746351567E+02 -0.29061494695E+02  0.11348375853E+03  0.00000000000E+00 0.  1.
         21    1    1    2  505  504  0.42758419689E+02  0.38197918962E+02 -0.50656065719E+02  0.76507518987E+02  0.00000000000E+00 0.  1.
          2    1    1    2  501    0  0.42685460268E+02  0.30358170720E+01  0.27235484688E+04  0.27238846390E+04  0.00000000000E+00 0. -1.
<scales pt_clust_3="164.56219" pt_clust_4="42.44896" pt_clust_5="42.44896" pt_clust_6="42.79328"></scales>
<clustering>
<clus scale="   42.449">  4  5 -1 -1</clus>
<clus scale="   42.793">  1  6  2 -1</clus>
<clus scale="  164.562">  1  3  2 -1</clus>
<clus scale="  174.724">  2  3  1 -1</clus>
</clustering>
</event>
<event>
 6    0  0.4945982E+002  0.1012544E+03  0.7546771E-02  0.1277680E+00
          1   -1    0    0  505    0 -0.00000000000E+00  0.00000000000E+00  0.69897297604E+02  0.69897297604E+02  0.00000000000E+00 0.  1.
         21   -1    0    0  503  502  0.00000000000E+00 -0.00000000000E+00 -0.37490360739E+03  0.37490360739E+03  0.00000000000E+00 0. -1.
         21    1    1    2  503  504 -0.46460060715E+02 -0.21403947684E+02 -0.44900038743E+02  0.68063791381E+02  0.00000000000E+00 0.  1.
         21    1    1    2  504  501 -0.66111271029E+01 -0.32690046284E+02 -0.50391988939E+02  0.60429286582E+02  0.00000000000E+00 0.  1.
         21    1    1    2  505  502  0.16900423222E+02  0.11390260667E+03 -0.21737820650E+03  0.24599331856E+03  0.00000000000E+00 0. -1.
          1    1    1    2  501    0  0.36170764596E+02 -0.59808612706E+02  0.76639243960E+01  0.70314508477E+02  0.00000000000E+00 0.  1.
<scales pt_clust_3="33.16690" pt_clust_4="33.16690" pt_clust_5="92.54871" pt_clust_6="69.89560"></scales>
<clustering>
<clus scale="   33.167">  3  4 -1 -1</clus>
<clus scale="   69.896">  1  6  2 -1</clus>
<clus scale="   92.549">  2  5  1 -1</clus>
<clus scale="   92.549">  2  3  1 -1</clus>
</clustering>
</event>
<event>
 6    0  0.4945982E+002  0.1337188E+03  0.7546771E-02  0.1222040E+00
          4   -1    0    0  504    0 -0.00000000000E+00  0.00000000000E+00  0.16896994944E+03  0.16896994944E+03  0.00000000000E+00 0.  1.
         21   -1    0    0  505  502  0.00000000000E+00 -0.00000000000E+00 -0.32163330743E+03  0.32163330743E+03  0.00000000000E+00 0. -1.
         21    1    1    2  503  502  0.49280392845E+02  0.35735556380E+02 -0.45675053520E+02  0.76103860761E+02  0.00000000000E+00 0. -1.
         21    1    1    2  504  503  0.85221482545E+02  0.22014055834E+02 -0.11034111062E+03  0.14114701709E+03  0.00000000000E+00 0. -1.
         21    1    1    2  505  501 -0.11557090480E+03 -0.95471722165E+01 -0.10297365646E+03  0.15508499753E+03  0.00000000000E+00 0. -1.
          4    1    1    2  501    0 -0.18930970587E+02 -0.48202439997E+02  0.10632646261E+03  0.11826738147E+03  0.00000000000E+00 0.  1.
<scales pt_clust_3="31.46050" pt_clust_4="31.46050" pt_clust_5="128.25591" pt_clust_6="51.78665"></scales>
<clustering>
<clus scale="   31.461">  3  4 -1 -1</clus>
<clus scale="   51.787">  1  6  2 -1</clus>
<clus scale="  128.256">  2  5  1 -1</clus>
<clus scale="  128.256">  2  3  1 -1</clus>
</clustering>
</event>
<event>
 6    0  0.4945982E+002  0.2371639E+03  0.7546771E-02  0.1121697E+00
          2   -1    0    0  504    0 -0.00000000000E+00  0.00000000000E+00  0.75188278672E+03  0.75188278672E+03  0.00000000000E+00 0. -1.
         21   -1    0    0  505  502  0.00000000000E+00 -0.00000000000E+00 -0.23499975797E+03  0.23499975797E+03  0.00000000000E+00 0.  1.
         21    1    1    2  503  502 -0.48699576888E+02  0.36995904787E+02 -0.34911935839E+02  0.70421509669E+02  0.00000000000E+00 0.  1.
         21    1    1    2  504  503  0.71877547775E+02  0.18517129920E+03  0.59840992851E+02  0.20745056363E+03  0.00000000000E+00 0.  1.
         21    1    1    2  505  501  0.10539752950E+02  0.28237234874E+02 -0.79051029078E+02  0.84601968203E+02  0.00000000000E+00 0.  1.
          2    1    1    2  501    0 -0.33717723837E+02 -0.25040443887E+03  0.57100500082E+03  0.62440850320E+03  0.00000000000E+00 0. -1.
<scales pt_clust_3="64.90887" pt_clust_4="237.16394" pt_clust_5="30.14014" pt_clust_6="14000.00000"></scales>
<clustering>
<clus scale="   30.140">  2  5  1 -1</clus>
<clus scale="   64.909">  2  3  1 -1</clus>
<clus scale="  237.164">  2  4  1 -1</clus>
<clus scale="   30.140">  2  3  1 -1</clus>
</clustering>
</event>
<event>
 6    0  0.4945982E+002  0.1005693E+03  0.7546771E-02  0.1279103E+00
         21   -1    0    0  504  502  0.00000000000E+00  0.00000000000E+00  0.41068363189E+03  0.41068363189E+03  0.00000000000E+00 0. -1.
          1   -1    0    0  503    0 -0.00000000000E+00 -0.00000000000E+00 -0.60928904274E+03  0.60928904274E+03  0.00000000000E+00 0.  1.
         21    1    1    2  503  502 -0.13007336218E+03 -0.81907166135E+02  0.28329274258E+03  0.32230830180E+03  0.00000000000E+00 0. -1.
         21    1    1    2  504  505  0.16601223505E+02  0.38972084558E+02  0.59040987477E+02  0.72665412673E+02  0.00000000000E+00 0. -1.
         21    1    1    2  505  501  0.57615048294E+02  0.18435231439E+02  0.17708658619E+02  0.63031326642E+02  0.00000000000E+00 0. -1.
          1    1    1    2  501    0  0.55857090386E+02  0.24499850138E+02 -0.55864779952E+03  0.56196763351E+03  0.00000000000E+00 0.  1.
<scales pt_clust_3="14000.00000" pt_clust_4="42.36064" pt_clust_5="100.56926" pt_clust_6="61.14261"></scales>
<clustering>
<clus scale="   42.361">  1  4  2 -1</clus>
<clus scale="   61.143">  2  6  1 -1</clus>
<clus scale="  100.569">  2  5  1 -1</clus>
<clus scale="   42.361">  1  3  2 -1</clus>
</clustering>
</event>
<event>
 6    0  0.4945982E+002  0.1319984E+03  0.7546771E-02  0.1224520E+00
         -2   -1    0    0    0  501 -0.00000000000E+00  0.00000000000E+00  0.28301322310E+03  0.28301322310E+03  0.00000000000E+00 0.  1.
         21   -1    0    0  503  502  0.00000000000E+00 -0.00000000000E+00 -0.14629186750E+04  0.14629186750E+04  0.00000000000E+00 0. -1.
         21    1    1    2  503  501  0.12533111843E+01  0.30470705512E+02 -0.13266135636E+04  0.13269640470E+04  0.00000000000E+00 0. -1.
         21    1    1    2  504  502  0.73108964788E+02  0.23537480753E+02 -0.86118397527E+02  0.11539199333E+03  0.00000000000E+00 0.  1.
         21    1    1    2  505  504  0.25416693158E+02  0.22268764420E+02 -0.54466978300E+01  0.34228243851E+02  0.00000000000E+00 0.  1.
         -2    1    1    2    0  505 -0.99778969130E+02 -0.76276950685E+02  0.23827320713E+03  0.26934761392E+03  0.00000000000E+00 0.  1.
<scales pt_clust_3="30.49647" pt_clust_4="30.52537" pt_clust_5="30.52537" pt_clust_6="123.39788"></scales>
<clustering>
<clus scale="   30.496">  2  3  1 -1</clus>
<clus scale="   30.525">  4  5 -1 -1</clus>
<clus scale="  123.398">  1  6  2 -1</clus>
<clus scale="   30.496">  2  3  1 -1</clus>
</clustering>
</event>
<event>
 6    0  0.4945982E+002  0.1830244E+03  0.7546771E-02  0.1164908E+00
         21   -1    0    0  505  502  0.00000000000E+00  0.00000000000E+00  0.72603774044E+03  0.72603774044E+03  0.00000000000E+00 0.  1.
          1   -1    0    0  504    0 -0.00000000000E+00 -0.00000000000E+00 -0.42467170267E+03  0.42467170267E+03  0.00000000000E+00 0. -1.
         21    1    1    2  503  501  0.36804811047E+02 -0.38522166014E+02  0.20706111989E+03  0.21380565652E+03  0.00000000000E+00 0.  1.
         21    1    1    2  504  502 -0.14797186578E+03 -0.81940640870E+02  0.26538938998E+03  0.31470854771E+03  0.00000000000E+00 0.  1.
         21    1    1    2  505  503 -0.33647469538E+02  0.66243606724E+01  0.20265067712E+03  0.20553182551E+03  0.00000000000E+00 0.  1.
          1    1    1    2  501    0  0.14481452428E+03  0.11383844621E+03 -0.37373514922E+03  0.41666341337E+03  0.00000000000E+00 0. -1.
<scales pt_clust_3="42.72449" pt_clust_4="14000.00000" pt_clust_5="34.29336" pt_clust_6="183.02438"></scales>
<clustering>
<clus scale="   34.293">  1  5  2 -1</clus>
<clus scale="   42.724">  1  3  2 -1</clus>
<clus scale="  183.024">  2  6  1 -1</clus>
<clus scale="   34.293">  1  3  2 -1</clus>
</clustering>
</event>
<event>
 6    0  0.4945982E+002  0.1480530E+03  0.7546771E-02  0.1202886E+00
         21   -1    0    0  505  502  0.00000000000E+00  0.00000000000E+00  0.43005766493E+03  0.43005766493E+03  0.00000000000E+00 0.  1.
         -2   -1    0    0    0  501 -0.00000000000E+00 -0.00000000000E+00 -0.10560165856E+04  0.10560165856E+04  0.00000000000E+00 0. -1.
         21    1    1    2  503  501 -0.72191946631E+02  0.72142497937E+01 -0.37444584818E+03  0.38140977410E+03  0.00000000000E+00 0.  1.
         21    1    1    2  504  502 -0.44894628179E+02 -0.14989707720E+02 -0.34431616291E+02  0.58529951113E+02  0.00000000000E+00 0. -1.
         21    1    1    2  505  503  0.15002226043E+03 -0.15267829976E+02  0.40013680215E+03  0.42760875306E+03  0.00000000000E+00 0.  1.
         -2    1    1    2    0  504 -0.32935685619E+02  0.23043287902E+02 -0.61721825835E+03  0.61852577226E+03  0.00000000000E+00 0. -1.
<scales pt_clust_3="14000.00000" pt_clust_4="49.98840" pt_clust_5="148.05302" pt_clust_6="40.19642"></scales>
<clustering>
<clus scale="   40.196">  2  6  1 -1</clus>
<clus scale="   49.988">  2  4  1 -1</clus>
<clus scale="  148.053">  1  5  2 -1</clus>
<clus scale="  148.053">  1  3  2 -1</clus>
</clustering>
</event>
<event>
 6    0  0.4945982E+002  0.1185891E+03  0.7546771E-02  0.1245443E+00
         21   -1    0    0  504  502  0.00000000000E+00  0.00000000000E+00  0.15404869505E+03  0.15404869505E+03  0.00000000000E+00 0.  1.
          2   -1    0    0  505    0 -0.00000000000E+00 -0.00000000000E+00 -0.13664089997E+04  0.13664089997E+04  0.00000000000E+00 0.  1.
         21    1    1    2  503  502 -0.23031284917E+02 -0.30206146035E+02 -0.18051802001E+02  0.42056139845E+02  0.00000000000E+00 0.  1.
         21    1    1    2  504  501  0.25091685959E+02  0.16838889971E+03  0.62799199863E+02  0.18146116321E+03  0.00000000000E+00 0.  1.
         21    1    1    2  505  503  0.34572398027E+02 -0.26566300119E+02 -0.10549083729E+02  0.44858691186E+02  0.00000000000E+00 0. -1.
          2    1    1    2  501    0 -0.36632799069E+02 -0.11161645356E+03 -0.12465586188E+04  0.12520817005E+04  0.00000000000E+00 0.  1.
<scales pt_clust_3="37.98488" pt_clust_4="14000.00000" pt_clust_5="43.85847" pt_clust_6="118.58907"></scales>
<clustering>
<clus scale="   37.985">  1  3  2 -1</clus>
<clus scale="   43.858">  1  5  2 -1</clus>
<clus scale="  118.589">  2  6  1 -1</clus>
<clus scale="   37.985">  1  3  2 -1</clus>
</clustering>
</event>
<event>
 6    0  0.4945982E+002  0.3205380E+03  0.7546771E-02  0.1075402E+00
         21   -1    0    0  505  502  0.00000000000E+00  0.00000000000E+00  0.15509425263E+03  0.15509425263E+03  0.00000000000E+00 0. -1.
          2   -1    0    0  504    0 -0.00000000000E+00 -0.00000000000E+00 -0.98171608281E+03  0.98171608281E+03  0.00000000000E+00 0. -1.
         21    1    1    2  503  501 -0.12231582858E+03 -0.76272532866E+02 -0.90406015965E+02  0.17015260478E+03  0.00000000000E+00 0. -1.
         21    1    1    2  504  502 -0.46334511067E+00  0.52584966582E+02 -0.22312576539E+02  0.57124814844E+02  0.00000000000E+00 0.  1.
         21    1    1    2  505  503 -0.17077910196E+03  0.35472843653E+02 -0.46789149413E+02  0.18059083257E+03  0.00000000000E+00 0. -1.
          2    1    1    2  501    0  0.29355827565E+03 -0.11785277370E+02 -0.66711408827E+03  0.72894208325E+03  0.00000000000E+00 0. -1.
<scales pt_clust_3="111.94302" pt_clust_4="52.58701" pt_clust_5="111.94302" pt_clust_6="293.45425"></scales>
<clustering>
<clus scale="   52.587">  1  4  2 -1</clus>
<clus scale="  111.943">  3  5 -1 -1</clus>
<clus scale="  293.454">  2  6  1 -1</clus>
<clus scale="   52.587">  1  3  2 -1</clus>
</clustering>
</event>
<event>
 6    0  0.4945982E+002  0.8936175E+02  0.7546771E-02  0.1304405E+00
         21   -1    0    0  504  502  0.00000000000E+00  0.00000000000E+00  0.87727231479E+03  0.87727231479E+03  0.00000000000E+00 0.  1.
         -1   -1    0    0    0  501 -0.00000000000E+00 -0.00000000000E+00 -0.12917028959E+03  0.12917028959E+03  0.00000000000E+00 0.  1.
         21    1    1    2  503  502 -0.32729172167E+02  0.84668677816E+02  0.65276042181E+03  0.65904184389E+03  0.00000000000E+00 0.  1.
         21    1    1    2  504  501  0.56796281044E+02 -0.65936540441E+02  0.11582508664E+03  0.14487544858E+03  0.00000000000E+00 0.  1.
         21    1    1    2  505  503 -0.71990669180E+02 -0.27250243345E+02  0.67236593683E+02  0.10220563459E+03  0.00000000000E+00 0.  1.
         -1    1    1    2    0  505  0.47923560303E+02  0.85181059701E+01 -0.87720076934E+02  0.10031967733E+03  0.00000000000E+00 0.  1.
<scales pt_clust_3="89.36175" pt_clust_4="14000.00000" pt_clust_5="53.36920" pt_clust_6="48.67469"></scales>
<clustering>
<clus scale="   48.675">  2  6  1 -1</clus>
<clus scale="   53.369">  2  5  1 -1</clus>
<clus scale="   89.362">  1  3  2 -1</clus>
<clus scale="   89.362">  1  3  2 -1</clus>
</clustering>
</event>
<event>
 6    0  0.4945982E+002  0.1626735E+03  0.7546771E-02  0.1185711E+00
          2   -1    0    0  505    0 -0.00000000000E+00  0.00000000000E+00  0.72122511568E+03  0.72122511568E+03  0.00000000000E+00 0. -1.
         21   -1    0    0  503  502  0.00000000000E+00 -0.00000000000E+00 -0.43687077823E+03  0.43687077823E+03  0.00000000000E+00 0.  1.
         21    1    1    2  503  501  0.20215992129E+02 -0.45804017805E+02  0.37067998680E+01  0.50203931620E+02  0.00000000000E+00 0. -1.
         21    1    1    2  504  502  0.36924339004E+02  0.27968036604E+02 -0.23185435621E+03  0.23643616554E+03  0.00000000000E+00 0.  1.
         21    1    1    2  505  504 -0.11809184824E+03  0.16628938210E+03 -0.10782752078E+03  0.23070461083E+03  0.00000000000E+00 0.  1.
          2    1    1    2  501    0  0.60951517108E+02 -0.14845340090E+03  0.62032941457E+03  0.64075118592E+03  0.00000000000E+00 0. -1.
<scales pt_clust_3="49.11517" pt_clust_4="46.32081" pt_clust_5="162.67350" pt_clust_6="14000.00000"></scales>
<clustering>
<clus scale="   46.321">  2  4  1 -1</clus>
<clus scale="   49.115">  2  3  1 -1</clus>
<clus scale="  162.673">  2  5  1 -1</clus>
<clus scale="   46.321">  2  3  1 -1</clus>
</clustering>
</event>
<event>
 6    0  0.4945982E+002  0.1132587E+03  0.7546771E-02  0.1254652E+00
         21   -1    0    0  505  502  0.00000000000E+00  0.00000000000E+00  0.32965749655E+03  0.32965749655E+03  0.00000000000E+00 0. -1.
          1   -1    0    0  503    0 -0.00000000000E+00 -0.00000000000E+00 -0.53982188362E+03  0.53982188362E+03  0.00000000000E+00 0.  1.
         21    1    1    2  503  504 -0.59290414939E+02  0.25316934539E+02  0.17813421992E+02  0.66885114047E+02  0.00000000000E+00 0. -1.
         21    1    1    2  504  502 -0.23297404310E+02 -0.23673870574E+02  0.44548028821E+02  0.55567509098E+02  0.00000000000E+00 0.  1.
         21    1    1    2  505  501 -0.27670291725E+02 -0.35791312751E+02  0.22847018457E+03  0.23290617929E+03  0.00000000000E+00 0. -1.
          1    1    1    2  501    0  0.11025811097E+03  0.34148248785E+02 -0.50099602245E+03  0.51412057773E+03  0.00000000000E+00 0.  1.
<scales pt_clust_3="66.47171" pt_clust_4="33.21477" pt_clust_5="113.25873" pt_clust_6="14000.00000"></scales>
<clustering>
<clus scale="   33.215">  1  4  2 -1</clus>
<clus scale="   66.472">  1  3  2 -1</clus>
<clus scale="  113.259">  1  5  2 -1</clus>
<clus scale="   33.215">  1  3  2 -1</clus>
</clustering>
</event>
<event>
 6    0  0.4945982E+002  0.1071305E+03  0.7546771E-02  0.1265978E+00
         -4   -1    0    0    0  501 -0.00000000000E+00  0.00000000000E+00  0.87867901862E+02  0.87867901862E+02  0.00000000000E+00 0.  1.
         21   -1    0    0  504  502  0.00000000000E+00 -0.00000000000E+00 -0.24314723565E+04  0.24314723565E+04  0.00000000000E+00 0.  1.
         21    1    1    2  503  501 -0.37221879220E+02 -0.33525271733E+02 -0.97051128529E+01  0.51025497087E+02  0.00000000000E+00 0. -1.
         21    1    1    2  504  505  0.27253061622E+02  0.37944127581E+02 -0.20671265694E+04  0.20676544053E+04  0.00000000000E+00 0.  1.
         21    1    1    2  505  503 -0.97580768496E+02 -0.85240273664E+02 -0.22526571339E+03  0.25987026044E+03  0.00000000000E+00 0.  1.
         -4    1    1    2    0  502  0.10754958610E+03  0.80821417816E+02 -0.41507059084E+02  0.14079009553E+03  0.00000000000E+00 0.  1.
<scales pt_clust_3="46.29465" pt_clust_4="46.71709" pt_clust_5="14000.00000" pt_clust_6="107.13048"></scales>
<clustering>
<clus scale="   46.717">  2  4  1 -1</clus>
<clus scale="   46.295">  1  3  2 -1</clus>
<clus scale="  107.130">  1  6  2 -1</clus>
<clus scale="   46.717">  2  3  1 -1</clus>
</clustering>
</event>
<event>
 6    0  0.4945982E+002  0.1487936E+03  0.7546771E-02  0.1201963E+00
         21   -1    0    0  504  502  0.00000000000E+00  0.00000000000E+00  0.43694958474E+03  0.43694958474E+03  0.00000000000E+00 0. -1.
          2   -1    0    0  505    0 -0.00000000000E+00 -0.00000000000E+00 -0.11111144976E+03  0.11111144976E+03  0.00000000000E+00 0. -1.
         21    1    1    2  503  501  0.22190918141E+01 -0.43045890820E+02  0.20853609980E+02  0.47882628730E+02  0.00000000000E+00 0.  1.
         21    1    1    2  504  503  0.10604097767E+03 -0.59232090833E+02  0.19435887599E+02  0.12300765528E+03  0.00000000000E+00 0. -1.
         21    1    1    2  505  502 -0.91469523799E+02  0.13641612054E+03  0.29529510859E+03  0.33789825819E+03  0.00000000000E+00 0. -1.
          2    1    1    2  501    0 -0.16790545690E+02 -0.34138138890E+02 -0.97464711837E+01  0.39272492306E+02  0.00000000000E+00 0. -1.
<scales pt_clust_3="33.91183" pt_clust_4="148.79359" pt_clust_5="14000.00000" pt_clust_6="86.44447"></scales>
<clustering>
<clus scale="   33.912">  3  6 -1 -1</clus>
<clus scale="   86.444">  2  3  1 -1</clus>
<clus scale="  148.794">  2  4  1 -1</clus>
<clus scale="  148.794">  1  3  2 -1</clus>
</clustering>
</event>
<event>
 6    0  0.4945982E+002  0.5990127E+02  0.7546771E-02  0.1398247E+00
          2   -1    0    0  505    0 -0.00000000000E+00  0.00000000000E+00  0.20292276163E+03  0.20292276163E+03  0.00000000000E+00 0. -1.
         21   -1    0    0  503  502  0.00000000000E+00 -0.00000000000E+00 -0.89692156388E+03  0.89692156388E+03  0.00000000000E+00 0.  1.
         21    1    1    2  503  504 -0.15085869907E+02 -0.53167963210E+02 -0.57425730649E+03  0.57691062552E+03  0.00000000000E+00 0.  1.
         21    1    1    2  504  501 -0.25573739835E+02 -0.31796820832E+02 -0.10152397226E+03  0.10941741602E+03  0.00000000000E+00 0. -1.
         21    1    1    2  505  502  0.53656228539E+02  0.11445890109E+03 -0.19578439565E+03  0.23304797892E+03  0.00000000000E+00 0. -1.
          2    1    1    2  501    0 -0.12996618797E+02 -0.29494117053E+02  0.17756687215E+03  0.18046830505E+03  0.00000000000E+00 0. -1.
<scales pt_clust_3="59.90127" pt_clust_4="45.96504" pt_clust_5="14000.00000" pt_clust_6="32.23065"></scales>
<clustering>
<clus scale="   32.231">  1  6  2 -1</clus>
<clus scale="   45.965">  1  4  2 -1</clus>
<clus scale="   59.901">  2  3  1 -1</clus>
<clus scale="   59.901">  2  3  1 -1</clus>
</clustering>
</event>
<event>
 6    0  0.4945982E+002  0.8497810E+02  0.7546771E-02  0.1315490E+00
          2   -1    0    0  505    0 -0.00000000000E+00  0.00000000000E+00  0.16924841153E+04  0.16924841153E+04  0.00000000000E+00 0.  1.
         21   -1    0    0  504  502  0.00000000000E+00 -0.00000000000E+00 -0.18473680582E+03  0.18473680582E+03  0.00000000000E+00 0. -1.
         21    1    1    2  503  501  0.53889910139E+02 -0.31969546509E-02  0.55459746696E+02  0.77329851471E+02  0.00000000000E+00 0. -1.
         21    1    1    2  504  503 -0.31850502686E+02  0.13462851710E+02 -0.83595512695E+02  0.90464980187E+02  0.00000000000E+00 0. -1.
         21    1    1    2  505  502 -0.50894667679E+02  0.66540381084E+02 -0.65157041292E+02  0.10612883464E+03  0.00000000000E+00 0.  1.
          2    1    1    2  501    0  0.28855260226E+02 -0.80000035840E+02  0.16010401168E+04  0.16032972548E+04  0.00000000000E+00 0.  1.
<scales pt_clust_3="50.34774" pt_clust_4="34.57894" pt_clust_5="84.97810" pt_clust_6="14000.00000"></scales>
<clustering>
<clus scale="   34.579">  2  4  1 -1</clus>
<clus scale="   50.348">  2  3  1 -1</clus>
<clus scale="   84.978">  2  5  1 -1</clus>
<clus scale="   34.579">  2  3  1 -1</clus>
</clustering>
</event>
<event>
 6    0  0.4945982E+002  0.9787208E+02  0.7546771E-02  0.1284835E+00
          1   -1    0    0  504    0 -0.00000000000E+00  0.00000000000E+00  0.10389659696E+04  0.10389659696E+04  0.00000000000E+00 0. -1.
         21   -1    0    0  503  502  0.00000000000E+00 -0.00000000000E+00 -0.82545464665E+02  0.82545464665E+02  0.00000000000E+00 0. -1.
         21    1    1    2  503  505 -0.79438506720E+02  0.96582451717E+02  0.10812731166E+03  0.16531836515E+03  0.00000000000E+00 0. -1.
         21    1    1    2  504  502  0.44868089743E+02 -0.14284825624E+02 -0.30232452965E+02  0.55957152649E+02  0.00000000000E+00 0. -1.
         21    1    1    2  505  501 -0.17682127506E+02 -0.10589548691E+03  0.29551938058E+03  0.31441726428E+03  0.00000000000E+00 0. -1.
          1    1    1    2  501    0  0.52252544483E+02  0.23597860820E+02  0.58300626564E+03  0.58581865216E+03  0.00000000000E+00 0. -1.
<scales pt_clust_3="14000.00000" pt_clust_4="47.08717" pt_clust_5="97.87208" pt_clust_6="58.59273"></scales>
<clustering>
<clus scale="   47.087">  2  4  1 -1</clus>
<clus scale="   58.593">  1  6  2 -1</clus>
<clus scale="   97.872">  1  5  2 -1</clus>
<clus scale="   47.087">  2  3  1 -1</clus>
</clustering>
</event>
<event>
 6    0  0.4945982E+002  0.1118597E+03  0.7546771E-02  0.1257164E+00
         21   -1    0    0  505  502  0.00000000000E+00  0.00000000000E+00  0.96357686942E+02  0.96357686942E+02  0.00000000000E+00 0.  1.
          2   -1    0    0  504    0 -0.00000000000E+00 -0.00000000000E+00 -0.91596890062E+03  0.91596890062E+03  0.00000000000E+00 0.  1.
         21    1    1    2  503  502  0.27571883400E+01  0.47058229021E+02 -0.42831525407E+02  0.63691589514E+02  0.00000000000E+00 0. -1.
         21    1    1    2  504  503 -0.87505920535E+02  0.55658135804E+02 -0.11524128944E+03  0.15503441231E+03  0.00000000000E+00 0. -1.
         21    1    1    2  505  501  0.12316329119E+03 -0.20402235093E+02  0.10184743414E+01  0.12484584408E+03  0.00000000000E+00 0.  1.
          2    1    1    2  501    0 -0.38414558998E+02 -0.82314129732E+02 -0.66255687317E+03  0.66875474166E+03  0.00000000000E+00 0.  1.
<scales pt_clust_3="47.13893" pt_clust_4="14000.00000" pt_clust_5="111.85970" pt_clust_6="89.25889"></scales>
<clustering>
<clus scale="   47.139">  1  3  2 -1</clus>
<clus scale="   89.259">  2  6  1 -1</clus>
<clus scale="  111.860">  1  5  2 -1</clus>
<clus scale="   47.139">  1  3  2 -1</clus>
</clustering>
</event>
<event>
 6    0  0.4945982E+002  0.1161753E+03  0.7546771E-02  0.1249543E+00
          1   -1    0    0  504    0 -0.00000000000E+00  0.00000000000E+00  0.99842342897E+03  0.99842342897E+03  0.00000000000E+00 0.  1.
         21   -1    0    0  505  502  0.00000000000E+00 -0.00000000000E+00 -0.28371266033E+03  0.28371266033E+03  0.00000000000E+00 0. -1.
         21    1    1    2  503  501 -0.10986830267E+03 -0.12363446351E+03 -0.14169693246E+03  0.21779473173E+03  0.00000000000E+00 0. -1.
         21    1    1    2  504  502  0.52442884021E+02  0.53125577901E+02 -0.13460751473E+00  0.74649857542E+02  0.00000000000E+00 0. -1.
         21    1    1    2  505  503 -0.11309037504E+02  0.45804326961E+02 -0.56570355537E+02  0.73662309380E+02  0.00000000000E+00 0. -1.
          1    1    1    2  501    0  0.68734456156E+02  0.24704558644E+02  0.91311266416E+03  0.91602919065E+03  0.00000000000E+00 0.  1.
<scales pt_clust_3="14000.00000" pt_clust_4="116.17528" pt_clust_5="47.17977" pt_clust_6="73.07234"></scales>
<clustering>
<clus scale="   47.180">  2  5  1 -1</clus>
<clus scale="   73.072">  1  6  2 -1</clus>
<clus scale="  116.175">  1  4  2 -1</clus>
<clus scale="   47.180">  2  3  1 -1</clus>
</clustering>
</event>
<event>
 6    0  0.4945982E+002  0.1141270E+03  0.7546771E-02  0.1253113E+00
         21   -1    0    0  505  502  0.00000000000E+00  0.00000000000E+00  0.45734187138E+03  0.45734187138E+03  0.00000000000E+00 0. -1.
          2   -1    0    0  503    0 -0.00000000000E+00 -0.00000000000E+00 -0.76258213790E+03  0.76258213790E+03  0.00000000000E+00 0.  1.
         21    1    1    2  503  502  0.62729221751E+02  0.34515882955E+02 -0.41278773218E+02  0.82645257312E+02  0.00000000000E+00 0.  1.
         21    1    1    2  504  501 -0.42667991471E+02 -0.76043158934E+01  0.11317387864E+03  0.12118873678E+03  0.00000000000E+00 0. -1.
         21    1    1    2  505  504 -0.55521742365E+02  0.37705091933E+02  0.31397111274E+03  0.32106416410E+03  0.00000000000E+00 0. -1.
          2    1    1    2  501    0  0.35460512085E+02 -0.64616658995E+02 -0.69110648467E+03  0.69502585110E+03  0.00000000000E+00 0.  1.
<scales pt_clust_3="71.59819" pt_clust_4="40.87698" pt_clust_5="40.87698" pt_clust_6="102.16390"></scales>
<clustering>
<clus scale="   40.877">  4  5 -1 -1</clus>
<clus scale="   71.598">  2  3  1 -1</clus>
<clus scale="  102.164">  2  6  1 -1</clus>
<clus scale="  114.127">  1  3  2 -1</clus>
</clustering>
</event>
<event>
 6    0  0.4945982E+002  0.2359437E+03  0.7546771E-02  0.1122525E+00
          1   -1    0    0  505    0 -0.00000000000E+00  0.00000000000E+00  0.13837618257E+04  0.13837618257E+04  0.00000000000E+00 0.  1.
         21   -1    0    0  504  502  0.00000000000E+00 -0.00000000000E+00 -0.97261188027E+02  0.97261188027E+02  0.00000000000E+00 0.  1.
         21    1    1    2  503  501  0.10662078775E+02  0.38480976747E+02  0.99816559833E+01  0.41159433322E+02  0.00000000000E+00 0.  1.
         21    1    1    2  504  503  0.17722345229E+03  0.78701051996E+02  0.10662139048E+03  0.22129195316E+03  0.00000000000E+00 0.  1.
         21    1    1    2  505  502  0.23385261193E+02 -0.45238580008E+02  0.34655007187E+02  0.61598450349E+02  0.00000000000E+00 0.  1.
          1    1    1    2  501    0 -0.21127079226E+03 -0.71943448735E+02  0.11352425840E+04  0.11569731769E+04  0.00000000000E+00 0.  1.
<scales pt_clust_3="35.88026" pt_clust_4="35.88026" pt_clust_5="50.92543" pt_clust_6="222.30060"></scales>
<clustering>
<clus scale="   35.880">  3  4 -1 -1</clus>
<clus scale="   50.925">  2  5  1 -1</clus>
<clus scale="  222.301">  1  6  2 -1</clus>
<clus scale="   50.925">  2  3  1 -1</clus>
</clustering>
</event>
<event>
 6    0  0.4945982E+002  0.2364123E+03  0.7546771E-02  0.1122206E+00
         21   -1    0    0  501  502  0.00000000000E+00  0.00000000000E+00  0.19041031365E+03  0.19041031365E+03  0.00000000000E+00 0. -1.
          2   -1    0    0  505    0 -0.00000000000E+00 -0.00000000000E+00 -0.17640825258E+04  0.17640825258E+04  0.00000000000E+00 0. -1.
         21    1    1    2  503  504  0.10692875241E+03  0.16728622178E+03 -0.91222396283E+03  0.93357966797E+03  0.00000000000E+00 0. -1.
         21    1    1    2  504  502  0.37870226031E+02 -0.10477241186E+03  0.13238522536E+03  0.17302387176E+03  0.00000000000E+00 0. -1.
         21    1    1    2  505  503  0.12500100340E+02  0.42250142273E+02 -0.47655205662E+03  0.47858456902E+03  0.00000000000E+00 0. -1.
          2    1    1    2  501    0 -0.15729907878E+03 -0.10476395220E+03 -0.31728141807E+03  0.36930473070E+03  0.00000000000E+00 0. -1.
<scales pt_clust_3="40.36041" pt_clust_4="111.40652" pt_clust_5="40.36041" pt_clust_6="220.34184"></scales>
<clustering>
<clus scale="   40.360">  3  5 -1 -1</clus>
<clus scale="  111.407">  1  4  2 -1</clus>
<clus scale="  220.342">  1  6  2 -1</clus>
<clus scale="  111.407">  1  3  2 -1</clus>
</clustering>
</event>
<event>
 6    0  0.4945982E+002  0.1297913E+03  0.7546771E-02  0.1227766E+00
          1   -1    0    0  505    0 -0.00000000000E+00  0.00000000000E+00  0.29687382275E+04  0.29687382275E+04  0.00000000000E+00 0. -1.
         21   -1    0    0  503  502  0.00000000000E+00 -0.00000000000E+00 -0.13220390714E+04  0.13220390714E+04  0.00000000000E+00 0. -1.
         21    1    1    2  503  504  0.56804214451E+02  0.45318202861E+01 -0.99777738469E+03  0.99940330476E+03  0.00000000000E+00 0. -1.
         21    1    1    2  504  501  0.71793501239E+02 -0.29656026384E+02 -0.31309587806E+03  0.32258768665E+03  0.00000000000E+00 0.  1.
         21    1    1    2  505  502 -0.29729262289E+02  0.80984908451E+02  0.42490026679E+03  0.43356962665E+03  0.00000000000E+00 0. -1.
          1    1    1    2  501    0 -0.98868453400E+02 -0.55860702353E+02  0.25326721521E+04  0.25352166809E+04  0.00000000000E+00 0. -1.
<scales pt_clust_3="56.98470" pt_clust_4="14000.00000" pt_clust_5="86.06707" pt_clust_6="129.79127"></scales>
<clustering>
<clus scale="   56.985">  2  3  1 -1</clus>
<clus scale="   86.067">  1  5  2 -1</clus>
<clus scale="  129.791">  1  6  2 -1</clus>
<clus scale="   56.985">  2  3  1 -1</clus>
</clustering>
</event>
<event>
 6    0  0.4945982E+002  0.2027621E+03  0.7546771E-02  0.1147429E+00
         21   -1    0    0  503  502  0.00000000000E+00  0.00000000000E+00  0.55112801753E+03  0.55112801753E+03  0.00000000000E+00 0. -1.
          1   -1    0    0  505    0 -0.00000000000E+00 -0.00000000000E+00 -0.45784528880E+03  0.45784528880E+03  0.00000000000E+00 0. -1.
         21    1    1    2  503  504 -0.58153859710E+02 -0.14632181164E+03  0.13871651802E+03  0.20984331377E+03  0.00000000000E+00 0. -1.
         21    1    1    2  504  501 -0.18435548899E+03 -0.61803621098E+02  0.20551649163E+03  0.28291988660E+03  0.00000000000E+00 0. -1.
         21    1    1    2  505  502  0.13945754186E+03  0.13741802326E+03  0.39752735664E+02  0.19978087769E+03  0.00000000000E+00 0.  1.
          1    1    1    2  501    0  0.10305180685E+03  0.70707409478E+02 -0.29070301659E+03  0.31642922827E+03  0.00000000000E+00 0. -1.
<scales pt_clust_3="134.49620" pt_clust_4="202.76205" pt_clust_5="14000.00000" pt_clust_6="124.97685"></scales>
<clustering>
<clus scale="  124.977">  2  6  1 -1</clus>
<clus scale="  134.496">  1  3  2 -1</clus>
<clus scale="  202.762">  2  4  1 -1</clus>
<clus scale="  134.496">  1  3  2 -1</clus>
</clustering>
</event>
<event>
 6    0  0.4945982E+002  0.1143799E+03  0.7546771E-02  0.1252667E+00
         21   -1    0    0  505  502  0.00000000000E+00  0.00000000000E+00  0.77268916275E+03  0.77268916275E+03  0.00000000000E+00 0. -1.
          3   -1    0    0  504    0 -0.00000000000E+00 -0.00000000000E+00 -0.23387711150E+03  0.23387711150E+03  0.00000000000E+00 0. -1.
         21    1    1    2  503  502  0.86259617938E+02  0.44375875655E+02  0.72245365680E+03  0.72893705233E+03  0.00000000000E+00 0. -1.
         21    1    1    2  504  503 -0.36626636996E+02  0.60366109994E+02 -0.32549610042E+02  0.77749951044E+02  0.00000000000E+00 0. -1.
         21    1    1    2  505  501 -0.40823435244E+02 -0.40673085931E+02 -0.36251388803E+02  0.68080951627E+02  0.00000000000E+00 0. -1.
          3    1    1    2  501    0 -0.88095456978E+01 -0.64068899718E+02 -0.11484060672E+03  0.13179831925E+03  0.00000000000E+00 0. -1.
<scales pt_clust_3="96.92340" pt_clust_4="70.60862" pt_clust_5="57.33065" pt_clust_6="57.33065"></scales>
<clustering>
<clus scale="   57.331">  5  6 -1 -1</clus>
<clus scale="   70.609">  2  4  1 -1</clus>
<clus scale="   96.923">  1  3  2 -1</clus>
<clus scale="   96.923">  1  3  2 -1</clus>
</clustering>
</event>
<event>
 6    0  0.4945982E+002  0.8949308E+02  0.7546771E-02  0.1304084E+00
          2   -1    0    0  502    0 -0.00000000000E+00  0.00000000000E+00  0.36345662106E+03  0.36345662106E+03  0.00000000000E+00 0.  1.
         21   -1    0    0  504  502  0.00000000000E+00 -0.00000000000E+00 -0.15293407486E+03  0.15293407486E+03  0.00000000000E+00 0. -1.
         21    1    1    2  503  505 -0.58117349469E+02  0.30466762278E+02 -0.18215016751E+02  0.68100196389E+02  0.00000000000E+00 0.  1.
         21    1    1    2  504  503  0.36898097682E+02  0.19567109002E+00  0.51582997096E+01  0.37257428194E+02  0.00000000000E+00 0.  1.
         21    1    1    2  505  501 -0.53595441248E+02 -0.79815983083E+02 -0.60224530796E+02  0.11344627181E+03  0.00000000000E+00 0. -1.
          2    1    1    2  501    0  0.74814693036E+02  0.49153549715E+02  0.28380379403E+03  0.29758679952E+03  0.00000000000E+00 0.  1.
<scales pt_clust_3="55.61244" pt_clust_4="36.89862" pt_clust_5="89.49308" pt_clust_6="14000.00000"></scales>
<clustering>
<clus scale="   36.899">  2  4  1 -1</clus>
<clus scale="   55.612">  2  3  1 -1</clus>
<clus scale="   89.493">  2  5  1 -1</clus>
<clus scale="   36.899">  2  3  1 -1</clus>
</clustering>
</event>
<event>
 6    0  0.4945982E+002  0.6828283E+02  0.7546771E-02  0.1366032E+00
          2   -1    0    0  504    0 -0.00000000000E+00  0.00000000000E+00  0.30327339867E+04  0.30327339867E+04  0.00000000000E+00 0.  1.
         21   -1    0    0  505  502  0.00000000000E+00 -0.00000000000E+00 -0.30314123042E+03  0.30314123042E+03  0.00000000000E+00 0.  1.
         21    1    1    2  503  501 -0.19707066309E+02 -0.60429069066E+02 -0.21873338262E+02  0.67219668084E+02  0.00000000000E+00 0.  1.
         21    1    1    2  504  502 -0.74745972624E+02  0.63434817682E+02  0.10784558978E+03  0.14574500936E+03  0.00000000000E+00 0. -1.
         21    1    1    2  505  503  0.67397973821E+02  0.30266065730E+02 -0.23378706646E+03  0.24518342941E+03  0.00000000000E+00 0.  1.
          2    1    1    2  501    0  0.27055065113E+02 -0.33271814347E+02  0.28774075712E+04  0.28777271103E+04  0.00000000000E+00 0.  1.
<scales pt_clust_3="68.28283" pt_clust_4="63.91048" pt_clust_5="14000.00000" pt_clust_6="42.88345"></scales>
<clustering>
<clus scale="   42.883">  1  6  2 -1</clus>
<clus scale="   63.910">  1  4  2 -1</clus>
<clus scale="   68.283">  1  3  2 -1</clus>
<clus scale="   68.283">  2  3  1 -1</clus>
</clustering>
</event>
<event>
 6    0  0.4945982E+002  0.1221951E+03  0.7546771E-02  0.1239519E+00
          1   -1    0    0  504    0 -0.00000000000E+00  0.00000000000E+00  0.48608429657E+03  0.48608429657E+03  0.00000000000E+00 0. -1.
         21   -1    0    0  505  502  0.00000000000E+00 -0.00000000000E+00 -0.40914892849E+03  0.40914892849E+03  0.00000000000E+00 0. -1.
         21    1    1    2  503  502  0.16133345399E+02 -0.29237021357E+02 -0.15694509860E+02  0.36897234196E+02  0.00000000000E+00 0. -1.
         21    1    1    2  504  503 -0.20437119721E+02 -0.54552225070E+02 -0.11052617191E+03  0.12493860812E+03  0.00000000000E+00 0. -1.
         21    1    1    2  505  501 -0.22897488480E+02  0.20031053899E+03 -0.21719488801E+03  0.29634815064E+03  0.00000000000E+00 0. -1.
          1    1    1    2  501    0  0.27201262801E+02 -0.11652129256E+03  0.42035093786E+03  0.43704923210E+03  0.00000000000E+00 0. -1.
<scales pt_clust_3="33.39294" pt_clust_4="65.40043" pt_clust_5="122.19514" pt_clust_6="14000.00000"></scales>
<clustering>
<clus scale="   33.393">  2  3  1 -1</clus>
<clus scale="   65.400">  2  4  1 -1</clus>
<clus scale="  122.195">  2  5  1 -1</clus>
<clus scale="   33.393">  2  3  1 -1</clus>
</clustering>
</event>
<event>
 6    0  0.4945982E+002  0.7053789E+02  0.7546771E-02  0.1358273E+00
          2   -1    0    0  505    0 -0.00000000000E+00  0.00000000000E+00  0.31446504041E+04  0.31446504041E+04  0.00000000000E+00 0. -1.
         21   -1    0    0  503  502  0.00000000000E+00 -0.00000000000E+00 -0.13029902222E+03  0.13029902222E+03  0.00000000000E+00 0. -1.
         21    1    1    2  503  501 -0.11381476227E+01 -0.38708134096E+02  0.15170041153E+02  0.41590205262E+02  0.00000000000E+00 0.  1.
         21    1    1    2  504  502  0.49992713390E+02  0.80400421293E+02 -0.81392731885E+02  0.12485301734E+03  0.00000000000E+00 0. -1.
         21    1    1    2  505  504 -0.90694700974E+02 -0.15696384698E+02  0.14016533547E+03  0.16768490255E+03  0.00000000000E+00 0. -1.
          2    1    1    2  501    0  0.41840135206E+02 -0.25995902500E+02  0.29404087371E+04  0.29408213011E+04  0.00000000000E+00 0. -1.
<scales pt_clust_3="38.72486" pt_clust_4="70.53789" pt_clust_5="14000.00000" pt_clust_6="49.29266"></scales>
<clustering>
<clus scale="   38.725">  2  3  1 -1</clus>
<clus scale="   49.293">  1  6  2 -1</clus>
<clus scale="   70.538">  2  4  1 -1</clus>
<clus scale="   38.725">  2  3  1 -1</clus>
</clustering>
</event>
<event>
 6    0  0.4945982E+002  0.1094401E+03  0.7546771E-02  0.1261610E+00
          1   -1    0    0  504    0 -0.00000000000E+00  0.00000000000E+00  0.22804902910E+04  0.22804902910E+04  0.00000000000E+00 0.  1.
         21   -1    0    0  505  502  0.00000000000E+00 -0.00000000000E+00 -0.41100630931E+02  0.41100630931E+02  0.00000000000E+00 0.  1.
         21    1    1    2  503  501  0.61119183876E+02 -0.52494874380E+02  0.42817167987E+03  0.43568595791E+03  0.00000000000E+00 0.  1.
         21    1    1    2  504  502 -0.12128809616E+03  0.11808230306E+03  0.24853522630E+03  0.30070582182E+03  0.00000000000E+00 0.  1.
         21    1    1    2  505  503  0.48542008333E+02 -0.34289038521E+02  0.68682845608E+02  0.90826196752E+02  0.00000000000E+00 0.  1.
          1    1    1    2  501    0  0.11626903949E+02 -0.31298390156E+02  0.14939999083E+04  0.14943729454E+04  0.00000000000E+00 0.  1.
<scales pt_clust_3="109.44008" pt_clust_4="14000.00000" pt_clust_5="62.25538" pt_clust_6="33.38823"></scales>
<clustering>
<clus scale="   33.388">  1  6  2 -1</clus>
<clus scale="   62.255">  2  5  1 -1</clus>
<clus scale="  109.440">  1  3  2 -1</clus>
<clus scale="   62.255">  2  3  1 -1</clus>
</clustering>
</event>
<event>
 6    0  0.4945982E+002  0.1555377E+03  0.7546771E-02  0.1193829E+00
          2   -1    0    0  505    0 -0.00000000000E+00  0.00000000000E+00  0.63628487890E+03  0.63628487890E+03  0.00000000000E+00 0.  1.
         21   -1    0    0  504  502  0.00000000000E+00 -0.00000000000E+00 -0.64888825816E+03  0.64888825816E+03  0.00000000000E+00 0.  1.
         21    1    1    2  503  501 -0.99093522080E+02 -0.17305772058E+02 -0.23659082522E+03  0.25708798969E+03  0.00000000000E+00 0.  1.
         21    1    1    2  504  503  0.15144947032E+02 -0.37608333208E+02 -0.33883273018E+03  0.34124972556E+03  0.00000000000E+00 0.  1.
         21    1    1    2  505  502 -0.71360613145E+01 -0.75589460724E+02 -0.23358013842E+02  0.79437313363E+02  0.00000000000E+00 0. -1.
          2    1    1    2  501    0  0.91084636362E+02  0.13050356599E+03  0.58617818999E+03  0.60739810844E+03  0.00000000000E+00 0.  1.
<scales pt_clust_3="14000.00000" pt_clust_4="40.54326" pt_clust_5="81.97820" pt_clust_6="155.53768"></scales>
<clustering>
<clus scale="   40.543">  2  4  1 -1</clus>
<clus scale="   81.978">  2  5  1 -1</clus>
<clus scale="  155.538">  1  6  2 -1</clus>
<clus scale="   40.543">  2  3  1 -1</clus>
</clustering>
</event>
<event>
 6    0  0.4945982E+002  0.9683519E+02  0.7546771E-02  0.1287095E+00
         21   -1    0    0  501  502  0.00000000000E+00  0.00000000000E+00  0.11354882033E+03  0.11354882033E+03  0.00000000000E+00 0. -1.
          2   -1    0    0  503    0 -0.00000000000E+00 -0.00000000000E+00 -0.97537185741E+03  0.97537185741E+03  0.00000000000E+00 0. -1.
         21    1    1    2  503  504  0.60752253498E+02 -0.17476674582E+01 -0.58966626631E+02  0.84681483826E+02  0.00000000000E+00 0. -1.
         21    1    1    2  504  505  0.68959596919E+02  0.28912001469E+02 -0.46749702059E+02  0.88186532298E+02  0.00000000000E+00 0. -1.
         21    1    1    2  505  502 -0.81651615979E+02  0.27343559069E+02  0.54688535726E+02  0.10200731618E+03  0.00000000000E+00 0. -1.
          2    1    1    2  501    0 -0.48060234438E+02 -0.54507893079E+02 -0.81079524411E+03  0.81404534543E+03  0.00000000000E+00 0. -1.
<scales pt_clust_3="30.49794" pt_clust_4="30.49794" pt_clust_5="90.73429" pt_clust_6="72.66978"></scales>
<clustering>
<clus scale="   30.498">  3  4 -1 -1</clus>
<clus scale="   72.670">  2  6  1 -1</clus>
<clus scale="   90.734">  1  5  2 -1</clus>
<clus scale="   90.734">  1  3  2 -1</clus>
</clustering>
</event>
<event>
 6    0  0.4945982E+002  0.1913308E+03  0.7546771E-02  0.1157267E+00
         21   -1    0    0  505  502  0.00000000000E+00  0.00000000000E+00  0.13192553760E+03  0.13192553760E+03  0.00000000000E+00 0.  1.
          2   -1    0    0  503    0 -0.00000000000E+00 -0.00000000000E+00 -0.47151687942E+04  0.47151687942E+04  0.00000000000E+00 0.  1.
         21    1    1    2  503  502 -0.69284473924E+01  0.10416666322E+03 -0.26681360586E+02  0.10775245757E+03  0.00000000000E+00 0.  1.
         21    1    1    2  504  501 -0.70790462215E+02  0.34966569071E+02  0.98859317125E+01  0.79571867761E+02  0.00000000000E+00 0.  1.
         21    1    1    2  505  504 -0.53360259961E+02 -0.41685050888E+01  0.28727269943E+02  0.60744957125E+02  0.00000000000E+00 0.  1.
          2    1    1    2  501    0  0.13107916957E+03 -0.13496472720E+03 -0.45951750977E+04  0.45990250493E+04  0.00000000000E+00 0.  1.
<scales pt_clust_3="104.39683" pt_clust_4="35.27803" pt_clust_5="35.27803" pt_clust_6="186.47132"></scales>
<clustering>
<clus scale="   35.278">  4  5 -1 -1</clus>
<clus scale="  104.397">  1  3  2 -1</clus>
<clus scale="  186.471">  2  6  1 -1</clus>
<clus scale="  104.397">  1  3  2 -1</clus>
</clustering>
</event>
<event>
 6    0  0.4945982E+002  0.1959082E+03  0.7546771E-02  0.1153238E+00
          2   -1    0    0  504    0 -0.00000000000E+00  0.00000000000E+00  0.14253480402E+04  0.14253480402E+04  0.00000000000E+00 0. -1.
         21   -1    0    0  505  502  0.00000000000E+00 -0.00000000000E+00 -0.10590647796E+04  0.10590647796E+04  0.00000000000E+00 0.  1.
         21    1    1    2  503  502  0.30162203719E+02  0.86386569785E+02 -0.70176021453E+03  0.70770035797E+03  0.00000000000E+00 0.  1.
         21    1    1    2  504  503  0.52380585291E+02  0.50117308659E+02 -0.30386928845E+03  0.31239720679E+03  0.00000000000E+00 0.  1.
         21    1    1    2  505  501  0.38462069258E+02  0.47056453671E+01 -0.30694986466E+02  0.49433349715E+02  0.00000000000E+00 0. -1.
          2    1    1    2  501    0 -0.12100485827E+03 -0.14120952381E+03  0.14026077501E+04  0.14148819053E+04  0.00000000000E+00 0. -1.
<scales pt_clust_3="54.69125" pt_clust_4="54.69125" pt_clust_5="38.74886" pt_clust_6="185.79100"></scales>
<clustering>
<clus scale="   38.749">  2  5  1 -1</clus>
<clus scale="   54.691">  3  4 -1 -1</clus>
<clus scale="  185.791">  1  6  2 -1</clus>
<clus scale="   38.749">  2  3  1 -1</clus>
</clustering>
</event>
<event>
 6    0  0.4945982E+002  0.8070564E+02  0.7546771E-02  0.1327061E+00
          2   -1    0    0  503    0 -0.00000000000E+00  0.00000000000E+00  0.14707277778E+04  0.14707277778E+04  0.00000000000E+00 0. -1.
         21   -1    0    0  504  502  0.00000000000E+00 -0.00000000000E+00 -0.25324994580E+03  0.25324994580E+03  0.00000000000E+00 0.  1.
         21    1    1    2  503  505  0.12093529550E+02  0.44312213643E+02  0.48576779456E+02  0.66854537895E+02  0.00000000000E+00 0.  1.
         21    1    1    2  504  501  0.12497590477E+02  0.11140719959E+03 -0.12902921037E+03  0.17092773624E+03  0.00000000000E+00 0.  1.
         21    1    1    2  505  502  0.36940252720E+02 -0.50239366165E+02 -0.80801710384E+02  0.10206611869E+03  0.00000000000E+00 0.  1.
          2    1    1    2  501    0 -0.61531372747E+02 -0.10548004706E+03  0.13787319733E+04  0.13841293307E+04  0.00000000000E+00 0. -1.
<scales pt_clust_3="45.93284" pt_clust_4="80.70564" pt_clust_5="62.14432" pt_clust_6="14000.00000"></scales>
<clustering>
<clus scale="   45.933">  1  3  2 -1</clus>
<clus scale="   62.144">  2  5  1 -1</clus>
<clus scale="   80.706">  2  4  1 -1</clus>
<clus scale="   62.144">  2  3  1 -1</clus>
</clustering>
</event>
<event>
 6    0  0.4945982E+002  0.1044969E+03  0.7546771E-02  0.1271114E+00
         21   -1    0    0  503  502  0.00000000000E+00  0.00000000000E+00  0.44342408041E+03  0.44342408041E+03  0.00000000000E+00 0.  1.
          1   -1    0    0  504    0 -0.00000000000E+00 -0.00000000000E+00 -0.76321251478E+03  0.76321251478E+03  0.00000000000E+00 0.  1.
         21    1    1    2  503  501 -0.18987145704E+02  0.31513636982E+02  0.35618535466E+03  0.35808047683E+03  0.00000000000E+00 0.  1.
         21    1    1    2  504  505  0.10073562666E+02 -0.62841329034E+02 -0.48177335678E+01  0.63825699027E+02  0.00000000000E+00 0. -1.
         21    1    1    2  505  502 -0.12288284302E+02 -0.58422215734E+02  0.37235876170E+02  0.70360981350E+02  0.00000000000E+00 0. -1.
          1    1    1    2  501    0  0.21201867340E+02  0.89749907786E+02 -0.70839193163E+03  0.71436943798E+03  0.00000000000E+00 0.  1.
<scales pt_clust_3="36.79159" pt_clust_4="44.32600" pt_clust_5="44.32600" pt_clust_6="93.13553"></scales>
<clustering>
<clus scale="   36.792">  1  3  2 -1</clus>
<clus scale="   44.326">  4  5 -1 -1</clus>
<clus scale="   93.136">  2  6  1 -1</clus>
<clus scale="   36.792">  1  3  2 -1</clus>
</clustering>
</event>
<event>
 6    0  0.4945982E+002  0.2022027E+03  0.7546771E-02  0.1147894E+00
         -1   -1    0    0    0  501 -0.00000000000E+00  0.00000000000E+00  0.23667077219E+03  0.23667077219E+03  0.00000000000E+00 0. -1.
         21   -1    0    0  504  502  0.00000000000E+00 -0.00000000000E+00 -0.17390371074E+03  0.17390371074E+03  0.00000000000E+00 0. -1.
         21    1    1    2  503  502  0.84112747444E+02  0.12550398341E+03 -0.18146122524E+02  0.15216926725E+03  0.00000000000E+00 0. -1.
         21    1    1    2  504  505 -0.37362448291E+02 -0.40230265331E+02 -0.13148979763E+02  0.56456376608E+02  0.00000000000E+00 0. -1.
         21    1    1    2  505  501 -0.80669137739E+02 -0.11021529517E+03  0.70593790280E+02  0.15374785950E+03  0.00000000000E+00 0. -1.
         -1    1    1    2    0  503  0.33918838585E+02  0.24941577096E+02  0.23468373458E+02  0.48200979573E+02  0.00000000000E+00 0. -1.
<scales pt_clust_3="31.47292" pt_clust_4="41.67489" pt_clust_5="41.67489" pt_clust_6="200.29955"></scales>
<clustering>
<clus scale="   31.473">  3  6 -1 -1</clus>
<clus scale="   41.675">  4  5 -1 -1</clus>
<clus scale="  200.300">  2  3  1 -1</clus>
<clus scale="  200.300">  2  3  1 -1</clus>
</clustering>
</event>
<event>
 6    0  0.4945982E+002  0.1005987E+03  0.7546771E-02  0.1279042E+00
          1   -1    0    0  505    0 -0.00000000000E+00  0.00000000000E+00  0.29351910604E+04  0.29351910604E+04  0.00000000000E+00 0.  1.
         21   -1    0    0  504  502  0.00000000000E+00 -0.00000000000E+00 -0.10132978360E+03  0.10132978360E+03  0.00000000000E+00 0. -1.
         21    1    1    2  503  501 -0.56204042917E+02 -0.88649327809E+02 -0.15148662607E+02  0.10605225005E+03  0.00000000000E+00 0. -1.
         21    1    1    2  504  503  0.35360953953E+02 -0.33818837480E+02 -0.34581101634E+01  0.49051700877E+02  0.00000000000E+00 0. -1.
         21    1    1    2  505  502  0.87125266609E+01  0.79684647590E+02  0.98079635171E+02  0.12666951495E+03  0.00000000000E+00 0. -1.
          1    1    1    2  501    0  0.12130562303E+02  0.42783517699E+02  0.27543884144E+04  0.27547473781E+04  0.00000000000E+00 0.  1.
<scales pt_clust_3="100.59873" pt_clust_4="46.56888" pt_clust_5="14000.00000" pt_clust_6="44.46999"></scales>
<clustering>
<clus scale="   44.470">  1  6  2 -1</clus>
<clus scale="   46.569">  2  4  1 -1</clus>
<clus scale="  100.599">  2  3  1 -1</clus>
<clus scale="   46.569">  2  3  1 -1</clus>
</clustering>
</event>
<event>
 6    0  0.4945982E+002  0.1714682E+03  0.7546771E-02  0.1176325E+00
          2   -1    0    0  505    0 -0.00000000000E+00  0.00000000000E+00  0.19123285387E+04  0.19123285387E+04  0.00000000000E+00 0.  1.
         21   -1    0    0  504  502  0.00000000000E+00 -0.00000000000E+00 -0.27969624311E+03  0.27969624311E+03  0.00000000000E+00 0.  1.
         21    1    1    2  503  502  0.81347524738E+02 -0.33797935810E+02 -0.19642047421E+03  0.21526895488E+03  0.00000000000E+00 0.  1.
         21    1    1    2  504  501 -0.38188551111E+01 -0.42198005662E+02 -0.17367153851E+02  0.45791629902E+02  0.00000000000E+00 0.  1.
         21    1    1    2  505  503  0.40787328475E+02 -0.25220902926E+02 -0.24310518238E+02  0.53765243471E+02  0.00000000000E+00 0.  1.
          2    1    1    2  501    0 -0.11831599810E+03  0.10121684440E+03  0.18707304419E+04  0.18771989536E+04  0.00000000000E+00 0.  1.
<scales pt_clust_3="50.87935" pt_clust_4="42.37045" pt_clust_5="50.87935" pt_clust_6="155.38423"></scales>
<clustering>
<clus scale="   42.370">  2  4  1 -1</clus>
<clus scale="   50.879">  3  5 -1 -1</clus>
<clus scale="  155.384">  1  6  2 -1</clus>
<clus scale="   42.370">  2  3  1 -1</clus>
</clustering>
</event>
<event>
 6    0  0.4945982E+002  0.1113055E+03  0.7546771E-02  0.1258171E+00
         21   -1    0    0  504  502  0.00000000000E+00  0.00000000000E+00  0.48861400398E+02  0.48861400398E+02  0.00000000000E+00 0. -1.
          2   -1    0    0  503    0 -0.00000000000E+00 -0.00000000000E+00 -0.18842523502E+04  0.18842523502E+04  0.00000000000E+00 0. -1.
         21    1    1    2  503  505 -0.42070961850E+02  0.78456800559E+01 -0.34792306033E+02  0.55154556345E+02  0.00000000000E+00 0.  1.
         21    1    1    2  504  501 -0.71875202412E+01 -0.10801096026E+03 -0.75577997360E+02  0.13202295887E+03  0.00000000000E+00 0. -1.
         21    1    1    2  505  502  0.41013493515E+02 -0.11035139475E+02 -0.43760521192E+02  0.60982490672E+02  0.00000000000E+00 0. -1.
          2    1    1    2  501    0  0.82449885764E+01  0.11120041968E+03 -0.16812601253E+04  0.16849537448E+04  0.00000000000E+00 0. -1.
<scales pt_clust_3="32.09728" pt_clust_4="14000.00000" pt_clust_5="42.47212" pt_clust_6="111.30552"></scales>
<clustering>
<clus scale="   42.472">  1  5  2 -1</clus>
<clus scale="   32.097">  1  3  2 -1</clus>
<clus scale="  111.306">  2  6  1 -1</clus>
<clus scale="   42.472">  1  3  2 -1</clus>
</clustering>
</event>
<event>
 6    0  0.4945982E+002  0.1522170E+03  0.7546771E-02  0.1197775E+00
         21   -1    0    0  504  502  0.00000000000E+00  0.00000000000E+00  0.27403705615E+03  0.27403705615E+03  0.00000000000E+00 0.  1.
          2   -1    0    0  503    0 -0.00000000000E+00 -0.00000000000E+00 -0.18985483236E+04  0.18985483236E+04  0.00000000000E+00 0. -1.
         21    1    1    2  503  502 -0.10994785073E+02  0.13519031044E+03  0.12416305095E+03  0.18388520483E+03  0.00000000000E+00 0.  1.
         21    1    1    2  504  505 -0.29212272654E+01 -0.33005815080E+02  0.85621608177E+02  0.91809461303E+02  0.00000000000E+00 0.  1.
         21    1    1    2  505  501  0.70818271924E+02  0.39688757559E+02 -0.30643349527E+02  0.86772345739E+02  0.00000000000E+00 0.  1.
          2    1    1    2  501    0 -0.56902259586E+02 -0.14187325292E+03 -0.18036525771E+04  0.18101183679E+04  0.00000000000E+00 0. -1.
<scales pt_clust_3="14000.00000" pt_clust_4="33.13484" pt_clust_5="78.46142" pt_clust_6="152.21701"></scales>
<clustering>
<clus scale="   33.135">  1  4  2 -1</clus>
<clus scale="   78.461">  1  5  2 -1</clus>
<clus scale="  152.217">  2  6  1 -1</clus>
<clus scale="   33.135">  1  3  2 -1</clus>
</clustering>
</event>
<event>
 6    0  0.4945982E+002  0.1229150E+03  0.7546771E-02  0.1238364E+00
          2   -1    0    0  503    0 -0.00000000000E+00  0.00000000000E+00  0.27860701559E+04  0.27860701559E+04  0.00000000000E+00 0. -1.
         21   -1    0    0  505  502  0.00000000000E+00 -0.00000000000E+00 -0.11766781597E+03  0.11766781597E+03  0.00000000000E+00 0. -1.
         21    1    1    2  503  504  0.49571674189E+02  0.87515320172E+01  0.52752429507E+03  0.52992058092E+03  0.00000000000E+00 0.  1.
         21    1    1    2  504  502 -0.11893800710E+03 -0.16679814451E+02  0.48901058757E+02  0.12967566961E+03  0.00000000000E+00 0. -1.
         21    1    1    2  505  501 -0.54150842439E+01  0.34661677323E+02 -0.71270481650E+02  0.79436997468E+02  0.00000000000E+00 0. -1.
          2    1    1    2  501    0  0.74781417152E+02 -0.26733394889E+02  0.21632474677E+04  0.21647047238E+04  0.00000000000E+00 0. -1.
<scales pt_clust_3="50.36769" pt_clust_4="14000.00000" pt_clust_5="35.08212" pt_clust_6="122.91500"></scales>
<clustering>
<clus scale="   35.082">  2  5  1 -1</clus>
<clus scale="   50.368">  1  3  2 -1</clus>
<clus scale="  122.915">  1  6  2 -1</clus>
<clus scale="   35.082">  2  3  1 -1</clus>
</clustering>
</event>
<event>
 6    0  0.4945982E+002  0.7706983E+02  0.7546771E-02  0.1337579E+00
         21   -1    0    0  504  502  0.00000000000E+00  0.00000000000E+00  0.47665299135E+03  0.47665299135E+03  0.00000000000E+00 0. -1.
          2   -1    0    0  503    0 -0.00000000000E+00 -0.00000000000E+00 -0.46249682682E+03  0.46249682682E+03  0.00000000000E+00 0.  1.
         21    1    1    2  503  502 -0.30961717718E+02 -0.40552565009E+02  0.22829496204E+02  0.55895656269E+02  0.00000000000E+00 0. -1.
         21    1    1    2  504  505  0.62796301298E+02 -0.13112830081E+02  0.31991102433E+03  0.32627961208E+03  0.00000000000E+00 0. -1.
         21    1    1    2  505  501  0.23004235065E+02  0.10713775218E+03  0.83540727475E+02  0.13779240153E+03  0.00000000000E+00 0. -1.
          2    1    1    2  501    0 -0.54838818645E+02 -0.53472357086E+02 -0.41212508348E+03  0.41918214828E+03  0.00000000000E+00 0.  1.
<scales pt_clust_3="51.02096" pt_clust_4="58.72901" pt_clust_5="14000.00000" pt_clust_6="77.06983"></scales>
<clustering>
<clus scale="   51.021">  1  3  2 -1</clus>
<clus scale="   58.729">  1  4  2 -1</clus>
<clus scale="   77.070">  2  6  1 -1</clus>
<clus scale="   51.021">  1  3  2 -1</clus>
</clustering>
</event>
<event>
 6    0  0.4945982E+002  0.7724027E+02  0.7546771E-02  0.1337071E+00
          2   -1    0    0  504    0 -0.00000000000E+00  0.00000000000E+00  0.26500582299E+04  0.26500582299E+04  0.00000000000E+00 0. -1.
         21   -1    0    0  503  502  0.00000000000E+00 -0.00000000000E+00 -0.34245874258E+02  0.34245874258E+02  0.00000000000E+00 0. -1.
         21    1    1    2  503  501  0.25743294410E+02 -0.16499497274E+02  0.36506047111E+01  0.30794115219E+02  0.00000000000E+00 0. -1.
         21    1    1    2  504  505  0.62399121024E+02  0.59771198629E+02  0.24048119563E+03  0.25553366107E+03  0.00000000000E+00 0. -1.
         21    1    1    2  505  502 -0.79992374479E+02  0.34414073596E+02  0.13962697900E+03  0.16455637849E+03  0.00000000000E+00 0. -1.
          2    1    1    2  501    0 -0.81500409548E+01 -0.77685774951E+02  0.22320535763E+04  0.22334199494E+04  0.00000000000E+00 0. -1.
<scales pt_clust_3="30.57696" pt_clust_4="14000.00000" pt_clust_5="68.95768" pt_clust_6="77.24027"></scales>
<clustering>
<clus scale="   30.577">  2  3  1 -1</clus>
<clus scale="   68.958">  2  5  1 -1</clus>
<clus scale="   77.240">  1  6  2 -1</clus>
<clus scale="   30.577">  2  3  1 -1</clus>
</clustering>
</event>
<event>
 6    0  0.4945982E+002  0.1172859E+03  0.7546771E-02  0.1247643E+00
          3   -1    0    0  503    0 -0.00000000000E+00  0.00000000000E+00  0.11738657843E+04  0.11738657843E+04  0.00000000000E+00 0. -1.
         21   -1    0    0  505  502  0.00000000000E+00 -0.00000000000E+00 -0.92234912478E+03  0.92234912478E+03  0.00000000000E+00 0. -1.
         21    1    1    2  503  504  0.99166360886E+02  0.75890557720E+02  0.31610804116E+03  0.33987885719E+03  0.00000000000E+00 0. -1.
         21    1    1    2  504  502 -0.44527050512E+02 -0.11975916479E+03 -0.82769267128E+03  0.83749631274E+03  0.00000000000E+00 0. -1.
         21    1    1    2  505  501 -0.25275735380E+02  0.25700839218E+02 -0.73322115516E+02  0.81703907858E+02  0.00000000000E+00 0.  1.
          3    1    1    2  501    0 -0.29363574994E+02  0.18167767849E+02  0.83642340518E+03  0.83713583131E+03  0.00000000000E+00 0. -1.
<scales pt_clust_3="14000.00000" pt_clust_4="117.28586" pt_clust_5="36.46430" pt_clust_6="34.52951"></scales>
<clustering>
<clus scale="   34.530">  1  6  2 -1</clus>
<clus scale="   36.464">  2  5  1 -1</clus>
<clus scale="  117.286">  2  4  1 -1</clus>
<clus scale="   36.464">  2  3  1 -1</clus>
</clustering>
</event>
<event>
 6    0  0.4945982E+002  0.9075017E+02  0.7546771E-02  0.1301045E+00
          1   -1    0    0  505    0 -0.00000000000E+00  0.00000000000E+00  0.18127608635E+04  0.18127608635E+04  0.00000000000E+00 0.  1.
         21   -1    0    0  503  502  0.00000000000E+00 -0.00000000000E+00 -0.13989769891E+02  0.13989769891E+02  0.00000000000E+00 0.  1.
         21    1    1    2  503  501  0.50101714806E+01 -0.52619236750E+02  0.11054311046E+03  0.12253026224E+03  0.00000000000E+00 0.  1.
         21    1    1    2  504  502  0.10602641114E+02  0.35164838369E+02  0.16259103861E+03  0.16668781507E+03  0.00000000000E+00 0.  1.
         21    1    1    2  505  504 -0.82335054042E+02  0.66087386159E+02  0.72449062041E+03  0.73214292511E+03  0.00000000000E+00 0.  1.
          1    1    1    2  501    0  0.66722241447E+02 -0.48632987778E+02  0.80114632417E+03  0.80538963101E+03  0.00000000000E+00 0.  1.
<scales pt_clust_3="36.46378" pt_clust_4="36.72849" pt_clust_5="90.75017" pt_clust_6="14000.00000"></scales>
<clustering>
<clus scale="   36.728">  2  4  1 -1</clus>
<clus scale="   36.464">  2  3  1 -1</clus>
<clus scale="   90.750">  2  5  1 -1</clus>
<clus scale="   36.728">  2  3  1 -1</clus>
</clustering>
</event>
<event>
 6    0  0.4945982E+002  0.7968230E+02  0.7546771E-02  0.1329955E+00
         21   -1    0    0  504  502  0.00000000000E+00  0.00000000000E+00  0.21315619239E+04  0.21315619239E+04  0.00000000000E+00 0. -1.
          2   -1    0    0  505    0 -0.00000000000E+00 -0.00000000000E+00 -0.45968787523E+04  0.45968787523E+04  0.00000000000E+00 0. -1.
         21    1    1    2  503  501  0.43440674589E+02 -0.62657505164E+02  0.47108819081E+02  0.89623077370E+02  0.00000000000E+00 0. -1.
         21    1    1    2  504  503  0.83830013684E+02  0.33971771556E+02  0.31541025615E+03  0.32812372992E+03  0.00000000000E+00 0. -1.
         21    1    1    2  505  502 -0.48092870144E+02  0.18520102331E+02  0.17406989335E+04  0.17414616549E+04  0.00000000000E+00 0. -1.
          2    1    1    2  501    0 -0.79177818128E+02  0.10165631276E+02 -0.45685348371E+04  0.45692322139E+04  0.00000000000E+00 0. -1.
<scales pt_clust_3="14000.00000" pt_clust_4="66.16292" pt_clust_5="51.53560" pt_clust_6="79.68230"></scales>
<clustering>
<clus scale="   51.536">  1  5  2 -1</clus>
<clus scale="   66.163">  1  4  2 -1</clus>
<clus scale="   79.682">  2  6  1 -1</clus>
<clus scale="   51.536">  1  3  2 -1</clus>
</clustering>
</event>
<event>
 6    0  0.4945982E+002  0.1156338E+03  0.7546771E-02  0.1250479E+00
         -2   -1    0    0    0  501 -0.00000000000E+00  0.00000000000E+00  0.19306804705E+04  0.19306804705E+04  0.00000000000E+00 0. -1.
         21   -1    0    0  505  502  0.00000000000E+00 -0.00000000000E+00 -0.67305856638E+02  0.67305856638E+02  0.00000000000E+00 0.  1.
         21    1    1    2  503  501 -0.59933224295E+02 -0.12433571607E+03  0.15395375558E+03  0.20676827736E+03  0.00000000000E+00 0.  1.
         21    1    1    2  504  502  0.87990741905E+01  0.61510898747E+02  0.29238909928E+02  0.68672616267E+02  0.00000000000E+00 0. -1.
         21    1    1    2  505  503 -0.25986853899E+01 -0.37722735366E+02 -0.68343386295E+00  0.37818315815E+02  0.00000000000E+00 0.  1.
         -2    1    1    2    0  504  0.53732835494E+02  0.10054755269E+03  0.16808653822E+04  0.16847271177E+04  0.00000000000E+00 0. -1.
<scales pt_clust_3="14000.00000" pt_clust_4="46.67832" pt_clust_5="37.81214" pt_clust_6="115.63382"></scales>
<clustering>
<clus scale="   37.812">  2  5  1 -1</clus>
<clus scale="   46.678">  2  4  1 -1</clus>
<clus scale="  115.634">  1  6  2 -1</clus>
<clus scale="   37.812">  2  3  1 -1</clus>
</clustering>
</event>
<event>
 6    0  0.4945982E+002  0.1447803E+03  0.7546771E-02  0.1207038E+00
          2   -1    0    0  505    0 -0.00000000000E+00  0.00000000000E+00  0.30525763493E+03  0.30525763493E+03  0.00000000000E+00 0.  1.
         21   -1    0    0  504  502  0.00000000000E+00 -0.00000000000E+00 -0.10123734473E+04  0.10123734473E+04  0.00000000000E+00 0.  1.
         21    1    1    2  503  501  0.62409295151E+02  0.18443930887E+02 -0.62927325958E+02  0.90525946888E+02  0.00000000000E+00 0.  1.
         21    1    1    2  504  503  0.45187257611E+02 -0.11017495697E+02 -0.84941861789E+02  0.96842105233E+02  0.00000000000E+00 0.  1.
         21    1    1    2  505  502 -0.13040740346E+03 -0.81874168341E+02 -0.83224922339E+03  0.84637358191E+03  0.00000000000E+00 0.  1.
          2    1    1    2  501    0  0.22810850696E+02  0.74447733151E+02  0.27300259875E+03  0.28388944821E+03  0.00000000000E+00 0.  1.
<scales pt_clust_3="33.91433" pt_clust_4="33.91433" pt_clust_5="139.11147" pt_clust_6="77.86398"></scales>
<clustering>
<clus scale="   33.914">  3  4 -1 -1</clus>
<clus scale="   77.864">  1  6  2 -1</clus>
<clus scale="  139.111">  2  5  1 -1</clus>
<clus scale="  139.111">  2  3  1 -1</clus>
</clustering>
</event>
<event>
 6    0  0.4945982E+002  0.9066521E+02  0.7546771E-02  0.1301249E+00
         21   -1    0    0  503  502  0.00000000000E+00  0.00000000000E+00  0.46392091139E+03  0.46392091139E+03  0.00000000000E+00 0.  1.
          1   -1    0    0  504    0 -0.00000000000E+00 -0.00000000000E+00 -0.15923405309E+04  0.15923405309E+04  0.00000000000E+00 0.  1.
         21    1    1    2  503  501  0.34105080903E+02  0.19647821333E+02  0.11231903898E+02  0.40931028471E+02  0.00000000000E+00 0. -1.
         21    1    1    2  504  505  0.28549671301E+02  0.66964860472E+02  0.90851710386E+02  0.11641911162E+03  0.00000000000E+00 0. -1.
         21    1    1    2  505  502  0.18224259446E+02 -0.44675315615E+02  0.33112799663E+03  0.33462480125E+03  0.00000000000E+00 0.  1.
          1    1    1    2  501    0 -0.80879011650E+02 -0.41937366189E+02 -0.15616312304E+04  0.15642865009E+04  0.00000000000E+00 0.  1.
<scales pt_clust_3="39.35979" pt_clust_4="90.66521" pt_clust_5="53.23388" pt_clust_6="14000.00000"></scales>
<clustering>
<clus scale="   39.360">  1  3  2 -1</clus>
<clus scale="   53.234">  1  5  2 -1</clus>
<clus scale="   90.665">  1  4  2 -1</clus>
<clus scale="   39.360">  1  3  2 -1</clus>
</clustering>
</event>
<event>
 6    0  0.4945982E+002  0.1544315E+03  0.7546771E-02  0.1195131E+00
          1   -1    0    0  504    0 -0.00000000000E+00  0.00000000000E+00  0.29484975551E+03  0.29484975551E+03  0.00000000000E+00 0. -1.
         21   -1    0    0  503  502  0.00000000000E+00 -0.00000000000E+00 -0.30050369551E+04  0.30050369551E+04  0.00000000000E+00 0.  1.
         21    1    1    2  503  501  0.29113647051E+02 -0.17944214126E+02 -0.16718386361E+03  0.17064595956E+03  0.00000000000E+00 0. -1.
         21    1    1    2  504  505 -0.44894709586E+02  0.49428699423E+02 -0.68994829123E+02  0.96015716011E+02  0.00000000000E+00 0. -1.
         21    1    1    2  505  502  0.12623893245E+03  0.23111521983E+01 -0.27401705973E+04  0.27430779267E+04  0.00000000000E+00 0.  1.
          1    1    1    2  501    0 -0.11045786992E+03 -0.33795637496E+02  0.26616209041E+03  0.29014710840E+03  0.00000000000E+00 0. -1.
<scales pt_clust_3="34.19940" pt_clust_4="65.81846" pt_clust_5="154.43147" pt_clust_6="14000.00000"></scales>
<clustering>
<clus scale="   34.199">  2  3  1 -1</clus>
<clus scale="   65.818">  1  4  2 -1</clus>
<clus scale="  154.431">  2  5  1 -1</clus>
<clus scale="   34.199">  2  3  1 -1</clus>
</clustering>
</event>
<event>
 6    0  0.4945982E+002  0.1556238E+03  0.7546771E-02  0.1193728E+00
          1   -1    0    0  505    0 -0.00000000000E+00  0.00000000000E+00  0.11544140853E+04  0.11544140853E+04  0.00000000000E+00 0.  1.
         21   -1    0    0  504  502  0.00000000000E+00 -0.00000000000E+00 -0.12541708966E+03  0.12541708966E+03  0.00000000000E+00 0. -1.
         21    1    1    2  503  501  0.10810808136E+03  0.12650896742E+01  0.33759102390E+02  0.11326356299E+03  0.00000000000E+00 0. -1.
         21    1    1    2  504  503  0.50580711449E+02  0.12696367947E+02 -0.20443495590E+02  0.56013771893E+02  0.00000000000E+00 0.  1.
         21    1    1    2  505  502 -0.12429840942E+03 -0.49605096307E+02  0.48870147066E+02  0.14247473965E+03  0.00000000000E+00 0.  1.
          1    1    1    2  501    0 -0.34390383393E+02  0.35643638685E+02  0.96681124175E+03  0.96807910040E+03  0.00000000000E+00 0.  1.
<scales pt_clust_3="38.67188" pt_clust_4="38.67188" pt_clust_5="145.32146" pt_clust_6="49.52946"></scales>
<clustering>
<clus scale="   38.672">  3  4 -1 -1</clus>
<clus scale="   49.529">  1  6  2 -1</clus>
<clus scale="  145.321">  1  5  2 -1</clus>
<clus scale="  155.624">  2  3  1 -1</clus>
</clustering>
</event>
<event>
 6    0  0.4945982E+002  0.8659252E+02  0.7546771E-02  0.1311320E+00
         21   -1    0    0  505  502  0.00000000000E+00  0.00000000000E+00  0.74353299904E+02  0.74353299904E+02  0.00000000000E+00 0. -1.
          1   -1    0    0  504    0 -0.00000000000E+00 -0.00000000000E+00 -0.27760439256E+04  0.27760439256E+04  0.00000000000E+00 0. -1.
         21    1    1    2  503  502  0.26795842222E+02  0.64827472284E+02  0.29479482457E+02  0.76089803581E+02  0.00000000000E+00 0. -1.
         21    1    1    2  504  503 -0.71000557320E+02  0.44526068717E+02 -0.89253236117E+02  0.12243279827E+03  0.00000000000E+00 0.  1.
         21    1    1    2  505  501  0.25824368985E+02 -0.69625597813E+02 -0.28390313950E+03  0.29345462089E+03  0.00000000000E+00 0. -1.
          1    1    1    2  501    0  0.18380346113E+02 -0.39727943188E+02 -0.23580137325E+04  0.23584200028E+04  0.00000000000E+00 0. -1.
<scales pt_clust_3="68.51437" pt_clust_4="86.59252" pt_clust_5="14000.00000" pt_clust_6="43.77381"></scales>
<clustering>
<clus scale="   43.774">  2  6  1 -1</clus>
<clus scale="   68.514">  1  3  2 -1</clus>
<clus scale="   86.593">  1  4  2 -1</clus>
<clus scale="   68.514">  1  3  2 -1</clus>
</clustering>
</event>
<event>
 6    0  0.4945982E+002  0.1464582E+03  0.7546771E-02  0.1204894E+00
         -1   -1    0    0    0  501 -0.00000000000E+00  0.00000000000E+00  0.63809772303E+03  0.63809772303E+03  0.00000000000E+00 0.  1.
         21   -1    0    0  503  502  0.00000000000E+00 -0.00000000000E+00 -0.69977092012E+03  0.69977092012E+03  0.00000000000E+00 0. -1.
         21    1    1    2  503  505  0.71168956466E+02 -0.24573595539E+02 -0.28702077538E+03  0.29673187807E+03  0.00000000000E+00 0. -1.
         21    1    1    2  504  502 -0.38979066903E+02 -0.18068301603E+03 -0.32054637535E+03  0.37002121384E+03  0.00000000000E+00 0. -1.
         21    1    1    2  505  501 -0.86956322744E+02  0.70497471373E+02  0.61480754594E+01  0.11211197245E+03  0.00000000000E+00 0. -1.
         -1    1    1    2    0  504  0.54766433181E+02  0.13475914020E+03  0.53974587819E+03  0.55900357879E+03  0.00000000000E+00 0.  1.
<scales pt_clust_3="75.29198" pt_clust_4="146.45821" pt_clust_5="102.80667" pt_clust_6="14000.00000"></scales>
<clustering>
<clus scale="   75.292">  2  3  1 -1</clus>
<clus scale="  102.807">  2  5  1 -1</clus>
<clus scale="  146.458">  2  4  1 -1</clus>
<clus scale="   75.292">  2  3  1 -1</clus>
</clustering>
</event>
<event>
 6    0  0.4945982E+002  0.9844678E+02  0.7546771E-02  0.1283596E+00
          2   -1    0    0  503    0 -0.00000000000E+00  0.00000000000E+00  0.23725881533E+04  0.23725881533E+04  0.00000000000E+00 0.  1.
         21   -1    0    0  501  502  0.00000000000E+00 -0.00000000000E+00 -0.18877636646E+03  0.18877636646E+03  0.00000000000E+00 0. -1.
         21    1    1    2  503  504 -0.52155070513E+02  0.26494836235E+02  0.26342837016E+03  0.26984557424E+03  0.00000000000E+00 0. -1.
         21    1    1    2  504  505 -0.41446077899E+02  0.25821264144E+02  0.89531221151E+02  0.10198212890E+03  0.00000000000E+00 0.  1.
         21    1    1    2  505  502  0.74558794263E+02  0.33500833352E+02 -0.16901276410E+03  0.18774086946E+03  0.00000000000E+00 0. -1.
          2    1    1    2  501    0  0.19042354148E+02 -0.85816933731E+02  0.19998649596E+04  0.20017959472E+04  0.00000000000E+00 0.  1.
<scales pt_clust_3="42.63114" pt_clust_4="42.63114" pt_clust_5="81.73934" pt_clust_6="86.68651"></scales>
<clustering>
<clus scale="   42.631">  3  4 -1 -1</clus>
<clus scale="   81.739">  2  5  1 -1</clus>
<clus scale="   86.687">  1  6  2 -1</clus>
<clus scale="   81.739">  2  3  1 -1</clus>
</clustering>
</event>
<event>
 6    0  0.4945982E+002  0.1929792E+03  0.7546771E-02  0.1155801E+00
         -4   -1    0    0    0  501 -0.00000000000E+00  0.00000000000E+00  0.18729208974E+04  0.18729208974E+04  0.00000000000E+00 0. -1.
         21   -1    0    0  503  502  0.00000000000E+00 -0.00000000000E+00 -0.23200946029E+04  0.23200946029E+04  0.00000000000E+00 0.  1.
         21    1    1    2  503  501  0.11441199284E+02  0.48875948243E+02 -0.13993757599E+03  0.14866837098E+03  0.00000000000E+00 0. -1.
         21    1    1    2  504  505  0.30896842161E+02 -0.16097117889E+03  0.25756016677E+03  0.30529260521E+03  0.00000000000E+00 0. -1.
         21    1    1    2  505  502 -0.33900510203E+02  0.14428382150E+03 -0.21491984792E+04  0.21543029427E+04  0.00000000000E+00 0.  1.
         -4    1    1    2    0  504 -0.84375312420E+01 -0.32188590858E+02  0.15844021830E+04  0.15847515814E+04  0.00000000000E+00 0. -1.
<scales pt_clust_3="49.69360" pt_clust_4="14000.00000" pt_clust_5="192.97916" pt_clust_6="33.27608"></scales>
<clustering>
<clus scale="   33.276">  1  6  2 -1</clus>
<clus scale="   49.694">  2  3  1 -1</clus>
<clus scale="  192.979">  2  5  1 -1</clus>
<clus scale="   49.694">  2  3  1 -1</clus>
</clustering>
</event>
<event>
 6    0  0.4945982E+002  0.1936019E+03  0.7546771E-02  0.1155252E+00
          3   -1    0    0  504    0 -0.00000000000E+00  0.00000000000E+00  0.72454828610E+03  0.72454828610E+03  0.00000000000E+00 0. -1.
         21   -1    0    0  505  502  0.00000000000E+00 -0.00000000000E+00 -0.24803994272E+03  0.24803994272E+03  0.00000000000E+00 0.  1.
         21    1    1    2  503  501  0.33298863729E+02 -0.26488222372E+01 -0.43254082827E+01  0.33682929530E+02  0.00000000000E+00 0. -1.
         21    1    1    2  504  502 -0.66756870025E+02 -0.50790077906E+02  0.90544925053E+02  0.12342809713E+03  0.00000000000E+00 0. -1.
         21    1    1    2  505  503  0.14625108412E+03  0.51230337385E+02 -0.17805458100E+03  0.23604525178E+03  0.00000000000E+00 0.  1.
          3    1    1    2  501    0 -0.11279307783E+03  0.22085627577E+01  0.56834340760E+03  0.57943195037E+03  0.00000000000E+00 0. -1.
<scales pt_clust_3="32.47495" pt_clust_4="83.88153" pt_clust_5="32.47495" pt_clust_6="180.52481"></scales>
<clustering>
<clus scale="   32.475">  3  5 -1 -1</clus>
<clus scale="   83.882">  1  4  2 -1</clus>
<clus scale="  180.525">  1  6  2 -1</clus>
<clus scale="  193.602">  2  3  1 -1</clus>
</clustering>
</event>
<event>
 6    0  0.4945982E+002  0.8196547E+02  0.7546771E-02  0.1323564E+00
          2   -1    0    0  505    0 -0.00000000000E+00  0.00000000000E+00  0.26368349905E+04  0.26368349905E+04  0.00000000000E+00 0. -1.
         21   -1    0    0  504  502  0.00000000000E+00 -0.00000000000E+00 -0.14530725234E+02  0.14530725234E+02  0.00000000000E+00 0.  1.
         21    1    1    2  503  501 -0.13402089285E+02 -0.11174850374E+03  0.57740485417E+03  0.58827179917E+03  0.00000000000E+00 0.  1.
         21    1    1    2  504  503 -0.31708971025E+02  0.39142342582E+02  0.79673748363E+02  0.94262866520E+02  0.00000000000E+00 0.  1.
         21    1    1    2  505  502  0.47282539850E+00  0.37794982175E+02  0.26699678607E+03  0.26965898467E+03  0.00000000000E+00 0.  1.
          2    1    1    2  501    0  0.44638234912E+02  0.34811178985E+02  0.16982288766E+04  0.16991720653E+04  0.00000000000E+00 0. -1.
<scales pt_clust_3="14000.00000" pt_clust_4="51.44948" pt_clust_5="37.79794" pt_clust_6="81.96547"></scales>
<clustering>
<clus scale="   37.798">  1  5  2 -1</clus>
<clus scale="   51.449">  2  4  1 -1</clus>
<clus scale="   81.965">  1  6  2 -1</clus>
<clus scale="   51.449">  2  3  1 -1</clus>
</clustering>
</event>
<event>
 6    0  0.4945982E+002  0.2462135E+03  0.7546771E-02  0.1115721E+00
         21   -1    0    0  505  502  0.00000000000E+00  0.00000000000E+00  0.80769567651E+03  0.80769567651E+03  0.00000000000E+00 0. -1.
          2   -1    0    0  503    0 -0.00000000000E+00 -0.00000000000E+00 -0.14041690441E+04  0.14041690441E+04  0.00000000000E+00 0. -1.
         21    1    1    2  503  504  0.70664517557E+02  0.67911847768E+02 -0.13579046969E+03  0.16746505536E+03  0.00000000000E+00 0. -1.
         21    1    1    2  504  502  0.82341281849E+02  0.14050846971E+03 -0.33150164808E+03  0.36934544729E+03  0.00000000000E+00 0. -1.
         21    1    1    2  505  501 -0.19081407665E+03 -0.14529349681E+03  0.75276294232E+03  0.79004573247E+03  0.00000000000E+00 0. -1.
          2    1    1    2  501    0  0.37808277249E+02 -0.63126820666E+02 -0.88194419219E+03  0.88500848552E+03  0.00000000000E+00 0. -1.
<scales pt_clust_3="42.16141" pt_clust_4="42.16141" pt_clust_5="240.14020" pt_clust_6="73.58302"></scales>
<clustering>
<clus scale="   42.161">  3  4 -1 -1</clus>
<clus scale="   73.583">  2  6  1 -1</clus>
<clus scale="  240.140">  1  5  2 -1</clus>
<clus scale="  240.140">  1  3  2 -1</clus>
</clustering>
</event>
<event>
 6    0  0.4945982E+002  0.1149158E+03  0.7546771E-02  0.1251728E+00
          1   -1    0    0  504    0 -0.00000000000E+00  0.00000000000E+00  0.14898528203E+04  0.14898528203E+04  0.00000000000E+00 0. -1.
         21   -1    0    0  503  502  0.00000000000E+00 -0.00000000000E+00 -0.16296814358E+03  0.16296814358E+03  0.00000000000E+00 0. -1.
         21    1    1    2  503  505  0.32164759589E+02 -0.15371213713E+02 -0.85247563211E+02  0.92401260834E+02  0.00000000000E+00 0. -1.
         21    1    1    2  504  502  0.21515604917E+02 -0.22185604025E+02  0.15309129541E+02  0.34489008803E+02  0.00000000000E+00 0. -1.
         21    1    1    2  505  501  0.20616738992E+02  0.12547855501E+03  0.28294449876E+01  0.12719246618E+03  0.00000000000E+00 0. -1.
          1    1    1    2  501    0 -0.74297103498E+02 -0.87921737275E+02  0.13939936654E+04  0.13987382281E+04  0.00000000000E+00 0. -1.
<scales pt_clust_3="52.79878" pt_clust_4="30.90505" pt_clust_5="14000.00000" pt_clust_6="114.91584"></scales>
<clustering>
<clus scale="   30.905">  2  4  1 -1</clus>
<clus scale="   52.799">  2  3  1 -1</clus>
<clus scale="  114.916">  1  6  2 -1</clus>
<clus scale="   30.905">  2  3  1 -1</clus>
</clustering>
</event>
<event>
 6    0  0.4945982E+002  0.1817588E+03  0.7546771E-02  0.1166112E+00
         21   -1    0    0  505  502  0.00000000000E+00  0.00000000000E+00  0.15227315089E+04  0.15227315089E+04  0.00000000000E+00 0. -1.
          2   -1    0    0  503    0 -0.00000000000E+00 -0.00000000000E+00 -0.16473857838E+04  0.16473857838E+04  0.00000000000E+00 0.  1.
         21    1    1    2  503  504 -0.81956348595E+02 -0.55267149711E+02  0.37422997755E+02  0.10569664930E+03  0.00000000000E+00 0.  1.
         21    1    1    2  504  502  0.76964703905E+02 -0.11419946023E+02  0.16182496889E+03  0.17955862934E+03  0.00000000000E+00 0. -1.
         21    1    1    2  505  501 -0.15340342043E+02 -0.11420249647E+03  0.12727055731E+04  0.12779111910E+04  0.00000000000E+00 0. -1.
          2    1    1    2  501    0  0.20331986732E+02  0.18088959221E+03 -0.15966078146E+04  0.16069508231E+04  0.00000000000E+00 0.  1.
<scales pt_clust_3="95.85075" pt_clust_4="77.80733" pt_clust_5="14000.00000" pt_clust_6="181.75877"></scales>
<clustering>
<clus scale="   77.807">  1  4  2 -1</clus>
<clus scale="   95.851">  1  3  2 -1</clus>
<clus scale="  181.759">  2  6  1 -1</clus>
<clus scale="   77.807">  1  3  2 -1</clus>
</clustering>
</event>
<event>
 6    0  0.4945982E+002  0.9165136E+02  0.7546771E-02  0.1298901E+00
          1   -1    0    0  505    0 -0.00000000000E+00  0.00000000000E+00  0.16733566131E+04  0.16733566131E+04  0.00000000000E+00 0. -1.
         21   -1    0    0  503  502  0.00000000000E+00 -0.00000000000E+00 -0.29103617015E+03  0.29103617015E+03  0.00000000000E+00 0.  1.
         21    1    1    2  503  504 -0.90027608678E+02  0.19872986103E+02 -0.22085342686E+03  0.23932434489E+03  0.00000000000E+00 0.  1.
         21    1    1    2  504  501  0.29850316677E+01 -0.62150477807E+02  0.99905888487E+01  0.63019077836E+02  0.00000000000E+00 0.  1.
         21    1    1    2  505  502  0.90976952742E+02  0.56331235878E+01  0.26489623992E+02  0.94922274471E+02  0.00000000000E+00 0. -1.
          1    1    1    2  501    0 -0.39343757314E+01  0.36644368117E+02  0.15666936570E+04  0.15671270861E+04  0.00000000000E+00 0. -1.
<scales pt_clust_3="91.65136" pt_clust_4="49.61058" pt_clust_5="14000.00000" pt_clust_6="36.85497"></scales>
<clustering>
<clus scale="   36.855">  1  6  2 -1</clus>
<clus scale="   49.611">  1  4  2 -1</clus>
<clus scale="   91.651">  2  3  1 -1</clus>
<clus scale="   91.651">  2  3  1 -1</clus>
</clustering>
</event>
<event>
 6    0  0.4945982E+002  0.1127554E+03  0.7546771E-02  0.1255551E+00
         21   -1    0    0  504  502  0.00000000000E+00  0.00000000000E+00  0.39172546530E+02  0.39172546530E+02  0.00000000000E+00 0. -1.
          2   -1    0    0  503    0 -0.00000000000E+00 -0.00000000000E+00 -0.26786098254E+04  0.26786098254E+04  0.00000000000E+00 0. -1.
         21    1    1    2  503  505 -0.55477810297E+02 -0.74448435179E+01 -0.27273029270E+03  0.27841520376E+03  0.00000000000E+00 0.  1.
         21    1    1    2  504  501 -0.48482678298E+02  0.73339948592E+02 -0.36766037367E+03  0.37802575113E+03  0.00000000000E+00 0.  1.
         21    1    1    2  505  502  0.10768117028E+03  0.35634851835E+02 -0.78105552463E+02  0.13771548360E+03  0.00000000000E+00 0. -1.
          2    1    1    2  501    0 -0.37206816845E+01 -0.10152995691E+03 -0.19209410601E+04  0.19236259335E+04  0.00000000000E+00 0. -1.
<scales pt_clust_3="55.97511" pt_clust_4="92.03237" pt_clust_5="112.75544" pt_clust_6="14000.00000"></scales>
<clustering>
<clus scale="   55.975">  2  3  1 -1</clus>
<clus scale="   92.032">  1  4  2 -1</clus>
<clus scale="  112.755">  1  5  2 -1</clus>
<clus scale="   92.032">  1  3  2 -1</clus>
</clustering>
</event>
<event>
 6    0  0.4945982E+002  0.2003146E+03  0.7546771E-02  0.1149474E+00
          2   -1    0    0  505    0 -0.00000000000E+00  0.00000000000E+00  0.19213089338E+04  0.19213089338E+04  0.00000000000E+00 0.  1.
         21   -1    0    0  504  502  0.00000000000E+00 -0.00000000000E+00 -0.53677919524E+02  0.53677919524E+02  0.00000000000E+00 0.  1.
         21    1    1    2  503  501  0.12844395837E+03 -0.79408785528E+02  0.21055684693E+03  0.25910961281E+03  0.00000000000E+00 0.  1.
         21    1    1    2  504  503 -0.38798280107E+02 -0.51616516374E+01  0.57267745465E+02  0.69365292888E+02  0.00000000000E+00 0. -1.
         21    1    1    2  505  502  0.48551636857E+01 -0.12301614876E+03  0.26301614267E+03  0.29040323134E+03  0.00000000000E+00 0.  1.
          2    1    1    2  501    0 -0.94500841950E+02  0.20758658592E+03  0.13367902792E+04  0.13561087163E+04  0.00000000000E+00 0.  1.
<scales pt_clust_3="14000.00000" pt_clust_4="39.14012" pt_clust_5="124.65941" pt_clust_6="200.31463"></scales>
<clustering>
<clus scale="   39.140">  2  4  1 -1</clus>
<clus scale="  124.659">  2  5  1 -1</clus>
<clus scale="  200.315">  1  6  2 -1</clus>
<clus scale="   39.140">  2  3  1 -1</clus>
</clustering>
</event>
<event>
 6    0  0.4945982E+002  0.8632953E+02  0.7546771E-02  0.1311992E+00
         21   -1    0    0  501  502  0.00000000000E+00  0.00000000000E+00  0.22782743982E+04  0.22782743982E+04  0.00000000000E+00 0. -1.
         -3   -1    0    0    0  501 -0.00000000000E+00 -0.00000000000E+00 -0.48888045650E+02  0.48888045650E+02  0.00000000000E+00 0. -1.
         21    1    1    2  503  502 -0.42511385540E+02  0.37266588981E+02  0.19330970499E+04  0.19339235302E+04  0.00000000000E+00 0. -1.
         21    1    1    2  504  503  0.31740125086E+02 -0.56687166715E+02  0.60740539637E+02  0.88939774938E+02  0.00000000000E+00 0. -1.
         21    1    1    2  505  504  0.10936062938E+01 -0.72178015313E+02  0.18641874310E+03  0.19990700250E+03  0.00000000000E+00 0. -1.
         -3    1    1    2    0  505  0.96776541597E+01  0.91598593048E+02  0.49130019954E+02  0.10439213619E+03  0.00000000000E+00 0. -1.
<scales pt_clust_3="56.53332" pt_clust_4="53.55838" pt_clust_5="86.32953" pt_clust_6="14000.00000"></scales>
<clustering>
<clus scale="   56.533">  1  3  2 -1</clus>
<clus scale="   53.558">  1  4  2 -1</clus>
<clus scale="   86.330">  1  5  2 -1</clus>
<clus scale="   56.533">  1  3  2 -1</clus>
</clustering>
</event>
<event>
 6    0  0.4945982E+002  0.1882563E+03  0.7546771E-02  0.1160044E+00
          1   -1    0    0  505    0 -0.00000000000E+00  0.00000000000E+00  0.34635615777E+04  0.34635615777E+04  0.00000000000E+00 0.  1.
         21   -1    0    0  504  502  0.00000000000E+00 -0.00000000000E+00 -0.99396388748E+02  0.99396388748E+02  0.00000000000E+00 0.  1.
         21    1    1    2  503  502  0.19228036861E+02 -0.31090535232E+02  0.72846685028E+02  0.81504467989E+02  0.00000000000E+00 0.  1.
         21    1    1    2  504  501  0.65708813519E+01 -0.43228531727E+02 -0.12363070464E+02  0.45439277595E+02  0.00000000000E+00 0.  1.
         21    1    1    2  505  503  0.16330668260E+03  0.80478271596E+02  0.67290966213E+02  0.19409765304E+03  0.00000000000E+00 0.  1.
          1    1    1    2  501    0 -0.18910560081E+03 -0.61592046369E+01  0.32363906082E+04  0.32419165679E+04  0.00000000000E+00 0.  1.
<scales pt_clust_3="36.55597" pt_clust_4="54.12371" pt_clust_5="14000.00000" pt_clust_6="188.25630"></scales>
<clustering>
<clus scale="   36.556">  2  3  1 -1</clus>
<clus scale="   54.124">  2  4  1 -1</clus>
<clus scale="  188.256">  1  6  2 -1</clus>
<clus scale="   36.556">  2  3  1 -1</clus>
</clustering>
</event>
<event>
 6    0  0.4945982E+002  0.6164721E+02  0.7546771E-02  0.1391046E+00
          2   -1    0    0  505    0 -0.00000000000E+00  0.00000000000E+00  0.33002569465E+04  0.33002569465E+04  0.00000000000E+00 0.  1.
         21   -1    0    0  503  502  0.00000000000E+00 -0.00000000000E+00 -0.90477919347E+02  0.90477919347E+02  0.00000000000E+00 0.  1.
         21    1    1    2  503  501  0.52230024996E+02 -0.48017758106E+02  0.20247667167E+03  0.21454715840E+03  0.00000000000E+00 0. -1.
         21    1    1    2  504  502 -0.46237140982E+02  0.39785937697E+02 -0.49099821224E+02  0.78304447440E+02  0.00000000000E+00 0.  1.
         21    1    1    2  505  504 -0.55535423911E+02  0.43484368644E+02  0.40433181059E+02  0.81301388401E+02  0.00000000000E+00 0.  1.
          2    1    1    2  501    0  0.49542539897E+02 -0.35252548235E+02  0.30159689957E+04  0.30165818717E+04  0.00000000000E+00 0.  1.
<scales pt_clust_3="14000.00000" pt_clust_4="61.64721" pt_clust_5="57.51841" pt_clust_6="60.80465"></scales>
<clustering>
<clus scale="   60.805">  1  6  2 -1</clus>
<clus scale="   57.518">  1  5  2 -1</clus>
<clus scale="   61.647">  2  4  1 -1</clus>
<clus scale="   61.647">  2  3  1 -1</clus>
</clustering>
</event>
<event>
 6    0  0.4945982E+002  0.1344304E+03  0.7546771E-02  0.1221026E+00
          2   -1    0    0  504    0 -0.00000000000E+00  0.00000000000E+00  0.42099562331E+04  0.42099562331E+04  0.00000000000E+00 0.  1.
         21   -1    0    0  503  502  0.00000000000E+00 -0.00000000000E+00 -0.60916883032E+02  0.60916883032E+02  0.00000000000E+00 0.  1.
         21    1    1    2  503  501  0.96730422800E+02 -0.27957057979E+02  0.13908236860E+04  0.13944636594E+04  0.00000000000E+00 0.  1.
         21    1    1    2  504  505 -0.97114520517E+02 -0.25290778476E+02  0.48936409109E+01  0.10047288835E+03  0.00000000000E+00 0.  1.
         21    1    1    2  505  502 -0.43918381171E+02  0.22743022139E+02  0.44349301523E+02  0.66429886393E+02  0.00000000000E+00 0.  1.
          2    1    1    2  501    0  0.44302478888E+02  0.30504814316E+02  0.27089727216E+04  0.27095066820E+04  0.00000000000E+00 0.  1.
<scales pt_clust_3="134.43041" pt_clust_4="14000.00000" pt_clust_5="49.45775" pt_clust_6="53.66489"></scales>
<clustering>
<clus scale="   49.458">  2  5  1 -1</clus>
<clus scale="   53.665">  1  6  2 -1</clus>
<clus scale="  134.430">  1  3  2 -1</clus>
<clus scale="   49.458">  2  3  1 -1</clus>
</clustering>
</event>
<event>
 6    0  0.4945982E+002  0.1368416E+03  0.7546771E-02  0.1217643E+00
          2   -1    0    0  504    0 -0.00000000000E+00  0.00000000000E+00  0.33623587755E+04  0.33623587755E+04  0.00000000000E+00 0.  1.
         21   -1    0    0  505  502  0.00000000000E+00 -0.00000000000E+00 -0.51090260436E+02  0.51090260436E+02  0.00000000000E+00 0.  1.
         21    1    1    2  503  502 -0.12488095944E+02 -0.48224164626E+02  0.18648481141E+02  0.53191056044E+02  0.00000000000E+00 0. -1.
         21    1    1    2  504  503 -0.35323394512E+02 -0.34047930893E+02 -0.36468122689E+01  0.49196575467E+02  0.00000000000E+00 0.  1.
         21    1    1    2  505  501  0.16378229194E+02 -0.47664453766E+02  0.99837298447E+02  0.11183752816E+03  0.00000000000E+00 0. -1.
          2    1    1    2  501    0  0.31433261262E+02  0.12993654928E+03  0.31964295477E+04  0.31992238762E+04  0.00000000000E+00 0.  1.
<scales pt_clust_3="34.42865" pt_clust_4="34.42865" pt_clust_5="50.39987" pt_clust_6="132.37101"></scales>
<clustering>
<clus scale="   34.429">  3  4 -1 -1</clus>
<clus scale="   50.400">  2  5  1 -1</clus>
<clus scale="  132.371">  1  6  2 -1</clus>
<clus scale="   50.400">  2  3  1 -1</clus>
</clustering>
</event>
<event>
 6    0  0.4945982E+002  0.2043750E+03  0.7546771E-02  0.1146099E+00
         21   -1    0    0  503  502  0.00000000000E+00  0.00000000000E+00  0.62013604090E+03  0.62013604090E+03  0.00000000000E+00 0. -1.
          2   -1    0    0  505    0 -0.00000000000E+00 -0.00000000000E+00 -0.20838177390E+04  0.20838177390E+04  0.00000000000E+00 0.  1.
         21    1    1    2  503  504  0.12222771930E+02 -0.35178617505E+02  0.68144882361E+02  0.77657300205E+02  0.00000000000E+00 0. -1.
         21    1    1    2  504  501  0.41434738253E+02 -0.11772780383E+03  0.67232200882E+02  0.14176333152E+03  0.00000000000E+00 0. -1.
         21    1    1    2  505  502 -0.77210003183E+02  0.20235846643E+03  0.41585389828E+03  0.46887610116E+03  0.00000000000E+00 0. -1.
          2    1    1    2  501    0  0.23552493000E+02 -0.49452045091E+02 -0.20149126796E+04  0.20156570470E+04  0.00000000000E+00 0.  1.
<scales pt_clust_3="32.58790" pt_clust_4="32.58790" pt_clust_5="195.47424" pt_clust_6="54.77431"></scales>
<clustering>
<clus scale="   32.588">  3  4 -1 -1</clus>
<clus scale="   54.774">  2  6  1 -1</clus>
<clus scale="  195.474">  1  5  2 -1</clus>
<clus scale="  195.474">  1  3  2 -1</clus>
</clustering>
</event>
<event>
 6    0  0.1511687E+003  0.1484585E+03  0.7546771E-02  0.1202380E+00
          2   -1    0    0  504    0 -0.00000000000E+00  0.00000000000E+00  0.27898825989E+04  0.27898825989E+04  0.00000000000E+00 0.  1.
         21   -1    0    0  505  502  0.00000000000E+00 -0.00000000000E+00 -0.11587979661E+04  0.11587979661E+04  0.00000000000E+00 0. -1.
         21    1    1    2  503  501 -0.56634244865E+02 -0.10399311592E+03 -0.46133367347E+03  0.47628853034E+03  0.00000000000E+00 0. -1.
         21    1    1    2  504  502  0.58994580833E+02  0.39795184515E+02  0.83211127810E+03  0.83514860739E+03  0.00000000000E+00 0. -1.
         21    1    1    2  505  503 -0.16717686076E+02 -0.25743209176E+02 -0.68706114900E+03  0.68774647677E+03  0.00000000000E+00 0. -1.
          2    1    1    2  501    0  0.14357350108E+02  0.89941140579E+02  0.19473681772E+04  0.19494969504E+04  0.00000000000E+00 0.  1.
<scales pt_clust_3="148.45852" pt_clust_4="71.07089" pt_clust_5="30.69518" pt_clust_6="14000.00000"></scales>
<clustering>
<clus scale="   30.695">  2  5  1 -1</clus>
<clus scale="   71.071">  1  4  2 -1</clus>
<clus scale="  148.459">  2  3  1 -1</clus>
<clus scale="   30.695">  2  3  1 -1</clus>
</clustering>
</event>
<event>
 6    0  0.4945982E+002  0.1975457E+03  0.7546771E-02  0.1151826E+00
          2   -1    0    0  505    0 -0.00000000000E+00  0.00000000000E+00  0.13956132303E+04  0.13956132303E+04  0.00000000000E+00 0.  1.
         21   -1    0    0  504  502  0.00000000000E+00 -0.00000000000E+00 -0.10423560947E+04  0.10423560947E+04  0.00000000000E+00 0.  1.
         21    1    1    2  503  501 -0.19991968936E+03 -0.71101444385E+02  0.19822207147E+03  0.29037094759E+03  0.00000000000E+00 0. -1.
         21    1    1    2  504  503  0.16691878882E+03  0.55063842137E+01 -0.93461708354E+03  0.94942155820E+03  0.00000000000E+00 0.  1.
         21    1    1    2  505  502  0.30677089030E+02  0.14255622996E+02 -0.48353362795E+02  0.59011475765E+02  0.00000000000E+00 0.  1.
          2    1    1    2  501    0  0.23238115084E+01  0.51339437175E+02  0.11380055104E+04  0.11391653434E+04  0.00000000000E+00 0.  1.
<scales pt_clust_3="14000.00000" pt_clust_4="197.54570" pt_clust_5="33.82760" pt_clust_6="51.40117"></scales>
<clustering>
<clus scale="   33.828">  2  5  1 -1</clus>
<clus scale="   51.401">  1  6  2 -1</clus>
<clus scale="  197.546">  2  4  1 -1</clus>
<clus scale="   33.828">  2  3  1 -1</clus>
</clustering>
</event>
<event>
 6    0  0.4945982E+002  0.9576799E+02  0.7546771E-02  0.1289456E+00
          2   -1    0    0  503    0 -0.00000000000E+00  0.00000000000E+00  0.39026360753E+04  0.39026360753E+04  0.00000000000E+00 0. -1.
         21   -1    0    0  504  502  0.00000000000E+00 -0.00000000000E+00 -0.11089226134E+03  0.11089226134E+03  0.00000000000E+00 0. -1.
         21    1    1    2  503  502 -0.14729957574E+02  0.61225992068E+02 -0.54866626341E+02  0.83522095525E+02  0.00000000000E+00 0. -1.
         21    1    1    2  504  505  0.31059852477E+02  0.72602784518E+01  0.26123377311E+02  0.41229321135E+02  0.00000000000E+00 0. -1.
         21    1    1    2  505  501  0.69882661073E+02 -0.10955926472E+03  0.92361695488E+02  0.15942867244E+03  0.00000000000E+00 0. -1.
          2    1    1    2  501    0 -0.86212555976E+02  0.41072994195E+02  0.37281253675E+04  0.37293482476E+04  0.00000000000E+00 0. -1.
<scales pt_clust_3="66.36528" pt_clust_4="31.89712" pt_clust_5="95.76799" pt_clust_6="14000.00000"></scales>
<clustering>
<clus scale="   31.897">  2  4  1 -1</clus>
<clus scale="   66.365">  2  3  1 -1</clus>
<clus scale="   95.768">  2  5  1 -1</clus>
<clus scale="   31.897">  2  3  1 -1</clus>
</clustering>
</event>
<event>
 6    0  0.4945982E+002  0.1175778E+03  0.7546771E-02  0.1247147E+00
         21   -1    0    0  503  502  0.00000000000E+00  0.00000000000E+00  0.16698232021E+03  0.16698232021E+03  0.00000000000E+00 0. -1.
         -1   -1    0    0    0  501 -0.00000000000E+00 -0.00000000000E+00 -0.13882341948E+04  0.13882341948E+04  0.00000000000E+00 0.  1.
         21    1    1    2  503  501 -0.10259640009E+03  0.74363035198E+02  0.17868879757E+02  0.12796553903E+03  0.00000000000E+00 0. -1.
         21    1    1    2  504  502  0.22492170002E+02 -0.62318580469E+02  0.32112877392E+02  0.73625675396E+02  0.00000000000E+00 0. -1.
         21    1    1    2  505  504 -0.20131798112E+02 -0.55277869720E+02  0.16636720162E+02  0.61136835326E+02  0.00000000000E+00 0. -1.
         -1    1    1    2    0  505  0.10023602820E+03  0.43233414990E+02 -0.12878703519E+04  0.12924884653E+04  0.00000000000E+00 0.  1.
<scales pt_clust_3="108.97073" pt_clust_4="41.61043" pt_clust_5="41.61043" pt_clust_6="109.16222"></scales>
<clustering>
<clus scale="   41.610">  4  5 -1 -1</clus>
<clus scale="  109.162">  2  6  1 -1</clus>
<clus scale="  108.971">  2  3  1 -1</clus>
<clus scale="  117.578">  1  3  2 -1</clus>
</clustering>
</event>
<event>
 6    0  0.4945982E+002  0.1006233E+03  0.7546771E-02  0.1278991E+00
          2   -1    0    0  503    0 -0.00000000000E+00  0.00000000000E+00  0.43975911834E+04  0.43975911834E+04  0.00000000000E+00 0.  1.
         21   -1    0    0  504  502  0.00000000000E+00 -0.00000000000E+00 -0.45172232286E+03  0.45172232286E+03  0.00000000000E+00 0.  1.
         21    1    1    2  503  502  0.32406468673E+02  0.15152828241E+02  0.10358945247E+03  0.10959270997E+03  0.00000000000E+00 0.  1.
         21    1    1    2  504  505 -0.30467301197E+02 -0.53919224701E+02 -0.44152837109E+03  0.44585069442E+03  0.00000000000E+00 0.  1.
         21    1    1    2  505  501 -0.23263775058E+01 -0.69849457126E+02  0.28003380100E+03  0.28862309054E+03  0.00000000000E+00 0.  1.
          2    1    1    2  501    0  0.38721002999E+00  0.10861585359E+03  0.40037739782E+04  0.40052470114E+04  0.00000000000E+00 0.  1.
<scales pt_clust_3="35.77412" pt_clust_4="61.91706" pt_clust_5="14000.00000" pt_clust_6="100.62328"></scales>
<clustering>
<clus scale="   35.774">  1  3  2 -1</clus>
<clus scale="   61.917">  2  4  1 -1</clus>
<clus scale="  100.623">  1  6  2 -1</clus>
<clus scale="   61.917">  2  3  1 -1</clus>
</clustering>
</event>
<event>
 6    0  0.4945982E+002  0.1188544E+03  0.7546771E-02  0.1244999E+00
          2   -1    0    0  505    0 -0.00000000000E+00  0.00000000000E+00  0.21684621261E+04  0.21684621261E+04  0.00000000000E+00 0.  1.
         21   -1    0    0  503  502  0.00000000000E+00 -0.00000000000E+00 -0.19254974842E+02  0.19254974842E+02  0.00000000000E+00 0.  1.
         21    1    1    2  503  501 -0.12315139694E+03  0.79694272315E+01  0.56519878202E+03  0.57851485852E+03  0.00000000000E+00 0.  1.
         21    1    1    2  504  502 -0.22403555669E+02  0.22769380309E+02  0.38106089902E+02  0.49723616862E+02  0.00000000000E+00 0.  1.
         21    1    1    2  505  504  0.61371003599E+02  0.55632647818E+02  0.52845755772E+03  0.53491006898E+03  0.00000000000E+00 0.  1.
          2    1    1    2  501    0  0.84183949012E+02 -0.86371455359E+02  0.10174447216E+04  0.10245685565E+04  0.00000000000E+00 0.  1.
<scales pt_clust_3="118.85445" pt_clust_4="31.94314" pt_clust_5="82.87465" pt_clust_6="14000.00000"></scales>
<clustering>
<clus scale="   31.943">  2  4  1 -1</clus>
<clus scale="   82.875">  1  5  2 -1</clus>
<clus scale="  118.854">  2  3  1 -1</clus>
<clus scale="   31.943">  2  3  1 -1</clus>
</clustering>
</event>
<event>
 6    0  0.4945982E+002  0.8985421E+02  0.7546771E-02  0.1303205E+00
         -2   -1    0    0    0  501 -0.00000000000E+00  0.00000000000E+00  0.73744637319E+03  0.73744637319E+03  0.00000000000E+00 0.  1.
         21   -1    0    0  503  502  0.00000000000E+00 -0.00000000000E+00 -0.30791861726E+03  0.30791861726E+03  0.00000000000E+00 0. -1.
         21    1    1    2  503  501 -0.74598845262E+02  0.10302048657E+03  0.48649685022E+02  0.13618002871E+03  0.00000000000E+00 0. -1.
         21    1    1    2  504  505  0.90592375212E+02  0.29715353345E+02 -0.51891654629E+01  0.95482501586E+02  0.00000000000E+00 0. -1.
         21    1    1    2  505  502 -0.21318631420E+02 -0.44484005671E+02 -0.20765493396E+03  0.21343355501E+03  0.00000000000E+00 0. -1.
         -2    1    1    2    0  504  0.53251014695E+01 -0.88251834240E+02  0.59372217033E+03  0.60026890515E+03  0.00000000000E+00 0.  1.
<scales pt_clust_3="89.85421" pt_clust_4="79.85538" pt_clust_5="49.32860" pt_clust_6="14000.00000"></scales>
<clustering>
<clus scale="   49.329">  2  5  1 -1</clus>
<clus scale="   79.855">  2  4  1 -1</clus>
<clus scale="   89.854">  2  3  1 -1</clus>
<clus scale="   49.329">  2  3  1 -1</clus>
</clustering>
</event>
<event>
 6    0  0.4945982E+002  0.8092557E+02  0.7546771E-02  0.1326445E+00
          1   -1    0    0  505    0 -0.00000000000E+00  0.00000000000E+00  0.29140424741E+04  0.29140424741E+04  0.00000000000E+00 0.  1.
         21   -1    0    0  504  502  0.00000000000E+00 -0.00000000000E+00 -0.20613660331E+03  0.20613660331E+03  0.00000000000E+00 0.  1.
         21    1    1    2  503  502  0.18297358420E+02  0.89036217555E+02 -0.47442669425E+02  0.10253315680E+03  0.00000000000E+00 0.  1.
         21    1    1    2  504  501  0.36157531471E+02 -0.29004176894E+02 -0.12590158880E+03  0.13416340568E+03  0.00000000000E+00 0.  1.
         21    1    1    2  505  503 -0.27090682145E+02 -0.76639332676E+02  0.21315078916E+04  0.21330572857E+04  0.00000000000E+00 0.  1.
          1    1    1    2  501    0 -0.27364207746E+02  0.16607292015E+02  0.74974223747E+03  0.75042522922E+03  0.00000000000E+00 0.  1.
<scales pt_clust_3="14000.00000" pt_clust_4="46.29251" pt_clust_5="80.92557" pt_clust_6="32.00941"></scales>
<clustering>
<clus scale="   32.009">  1  6  2 -1</clus>
<clus scale="   46.293">  2  4  1 -1</clus>
<clus scale="   80.926">  1  5  2 -1</clus>
<clus scale="   46.293">  2  3  1 -1</clus>
</clustering>
</event>
<event>
 6    0  0.4945982E+002  0.8962835E+02  0.7546771E-02  0.1303754E+00
          2   -1    0    0  505    0 -0.00000000000E+00  0.00000000000E+00  0.10342805186E+04  0.10342805186E+04  0.00000000000E+00 0.  1.
         21   -1    0    0  501  502  0.00000000000E+00 -0.00000000000E+00 -0.27356212639E+02  0.27356212639E+02  0.00000000000E+00 0.  1.
         21    1    1    2  503  502 -0.19956053130E+02  0.48765221077E+02  0.10231534751E+03  0.11508571232E+03  0.00000000000E+00 0.  1.
         21    1    1    2  504  503 -0.60578940886E+02 -0.78052746229E+01  0.16930295138E+03  0.17998394300E+03  0.00000000000E+00 0.  1.
         21    1    1    2  505  504 -0.10385268579E+02 -0.88121599135E+02  0.16704092561E+03  0.18914529036E+03  0.00000000000E+00 0.  1.
          2    1    1    2  501    0  0.90920262595E+02  0.47161652681E+02  0.56826508142E+03  0.57742178553E+03  0.00000000000E+00 0.  1.
<scales pt_clust_3="52.69052" pt_clust_4="65.82283" pt_clust_5="89.62835" pt_clust_6="14000.00000"></scales>
<clustering>
<clus scale="   52.691">  2  3  1 -1</clus>
<clus scale="   65.823">  2  4  1 -1</clus>
<clus scale="   89.628">  2  5  1 -1</clus>
<clus scale="   52.691">  2  3  1 -1</clus>
</clustering>
</event>
<event>
 6    0  0.4945982E+002  0.6298103E+03  0.7546771E-02  0.9845419E-01
         -1   -1    0    0    0  501 -0.00000000000E+00  0.00000000000E+00  0.15797096733E+04  0.15797096733E+04  0.00000000000E+00 0. -1.
         21   -1    0    0  505  502  0.00000000000E+00 -0.00000000000E+00 -0.50997759552E+03  0.50997759552E+03  0.00000000000E+00 0. -1.
         21    1    1    2  503  502  0.26799703989E+01  0.18571534362E+03  0.53165243355E+02  0.19319398075E+03  0.00000000000E+00 0. -1.
         21    1    1    2  504  503  0.14304375109E+02  0.34351743688E+03  0.54876021882E+03  0.64756978184E+03  0.00000000000E+00 0. -1.
         21    1    1    2  505  501 -0.35651407386E+02 -0.59024875175E+03 -0.16420412822E+03  0.61369993280E+03  0.00000000000E+00 0. -1.
         -1    1    1    2    0  504  0.18667061878E+02  0.61015971245E+02  0.63201074384E+03  0.63522357345E+03  0.00000000000E+00 0. -1.
<scales pt_clust_3="180.19795" pt_clust_4="180.19795" pt_clust_5="576.59983" pt_clust_6="63.80759"></scales>
<clustering>
<clus scale="   63.808">  1  6  2 -1</clus>
<clus scale="  180.198">  3  4 -1 -1</clus>
<clus scale="  576.600">  2  5  1 -1</clus>
<clus scale="  576.600">  2  3  1 -1</clus>
</clustering>
</event>
<event>
 6    0  0.4945982E+002  0.7599257E+02  0.7546771E-02  0.1340825E+00
          1   -1    0    0  505    0 -0.00000000000E+00  0.00000000000E+00  0.84849617552E+03  0.84849617552E+03  0.00000000000E+00 0.  1.
         21   -1    0    0  504  502  0.00000000000E+00 -0.00000000000E+00 -0.45859717594E+02  0.45859717594E+02  0.00000000000E+00 0.  1.
         21    1    1    2  503  502  0.38975718459E+02 -0.80668453830E+02  0.58584396861E+02  0.10704502617E+03  0.00000000000E+00 0.  1.
         21    1    1    2  504  501 -0.13075335101E+02  0.62693287629E+02  0.66542764844E+02  0.92354492337E+02  0.00000000000E+00 0.  1.
         21    1    1    2  505  503 -0.52362442759E+02 -0.19538141253E+02  0.91967816979E+02  0.10761804558E+03  0.00000000000E+00 0.  1.
          1    1    1    2  501    0  0.26462059401E+02  0.37513307453E+02  0.58554147924E+03  0.58733832902E+03  0.00000000000E+00 0.  1.
<scales pt_clust_3="75.99257" pt_clust_4="14000.00000" pt_clust_5="42.61051" pt_clust_6="45.90739"></scales>
<clustering>
<clus scale="   45.907">  1  6  2 -1</clus>
<clus scale="   42.611">  1  5  2 -1</clus>
<clus scale="   75.993">  1  3  2 -1</clus>
<clus scale="   75.993">  2  3  1 -1</clus>
</clustering>
</event>
<event>
 6    0  0.4945982E+002  0.9024436E+02  0.7546771E-02  0.1302261E+00
         -1   -1    0    0    0  501 -0.00000000000E+00  0.00000000000E+00  0.83440960144E+03  0.83440960144E+03  0.00000000000E+00 0. -1.
         21   -1    0    0  505  502  0.00000000000E+00 -0.00000000000E+00 -0.11371463145E+03  0.11371463145E+03  0.00000000000E+00 0.  1.
         21    1    1    2  503  504  0.56020862806E+01  0.33288309204E+02 -0.22168081662E+02  0.40384635010E+02  0.00000000000E+00 0.  1.
         21    1    1    2  504  502  0.30586709051E+02 -0.64464059249E+01 -0.42531072941E+02  0.52782526327E+02  0.00000000000E+00 0.  1.
         21    1    1    2  505  501 -0.31097037751E+02 -0.11494104493E+03  0.78601490895E+02  0.14267678135E+03  0.00000000000E+00 0.  1.
         -1    1    1    2    0  503 -0.50917575803E+01  0.88099141653E+02  0.70679263370E+03  0.71228029020E+03  0.00000000000E+00 0. -1.
<scales pt_clust_3="36.29861" pt_clust_4="31.25865" pt_clust_5="90.24436" pt_clust_6="14000.00000"></scales>
<clustering>
<clus scale="   31.259">  2  4  1 -1</clus>
<clus scale="   36.299">  2  3  1 -1</clus>
<clus scale="   90.244">  2  5  1 -1</clus>
<clus scale="   31.259">  2  3  1 -1</clus>
</clustering>
</event>
<event>
 6    0  0.4945982E+002  0.1138214E+03  0.7546771E-02  0.1253653E+00
         21   -1    0    0  504  502  0.00000000000E+00  0.00000000000E+00  0.32020208105E+04  0.32020208105E+04  0.00000000000E+00 0. -1.
          2   -1    0    0  503    0 -0.00000000000E+00 -0.00000000000E+00 -0.16480902481E+03  0.16480902481E+03  0.00000000000E+00 0. -1.
         21    1    1    2  503  505 -0.81662280977E+02 -0.93837777080E+02  0.32589095242E+03  0.34882541394E+03  0.00000000000E+00 0. -1.
         21    1    1    2  504  501 -0.34088115192E+01 -0.40320910971E+02  0.27242632643E+04  0.27245637686E+04  0.00000000000E+00 0. -1.
         21    1    1    2  505  502  0.26656307430E+02  0.37126928286E+02  0.11429660701E+03  0.12309623025E+03  0.00000000000E+00 0. -1.
          2    1    1    2  501    0  0.58414785067E+02  0.97031759766E+02 -0.12723903799E+03  0.17034442258E+03  0.00000000000E+00 0. -1.
<scales pt_clust_3="14000.00000" pt_clust_4="40.46475" pt_clust_5="37.42807" pt_clust_6="113.82140"></scales>
<clustering>
<clus scale="   40.465">  1  4  2 -1</clus>
<clus scale="   37.428">  1  5  2 -1</clus>
<clus scale="  113.821">  2  6  1 -1</clus>
<clus scale="   40.465">  1  3  2 -1</clus>
</clustering>
</event>
<event>
 6    0  0.4945982E+002  0.1136104E+03  0.7546771E-02  0.1254026E+00
          2   -1    0    0  505    0 -0.00000000000E+00  0.00000000000E+00  0.59291430753E+03  0.59291430753E+03  0.00000000000E+00 0.  1.
         21   -1    0    0  504  502  0.00000000000E+00 -0.00000000000E+00 -0.61834021522E+02  0.61834021522E+02  0.00000000000E+00 0. -1.
         21    1    1    2  503  502 -0.12153283089E+03 -0.29855015337E+02  0.11105845479E+03  0.16731865199E+03  0.00000000000E+00 0. -1.
         21    1    1    2  504  501  0.10332486852E+03 -0.56462136548E+02  0.14394067501E+03  0.18596483334E+03  0.00000000000E+00 0. -1.
         21    1    1    2  505  503 -0.31813211287E+02  0.22122513554E+02  0.72193945417E+02  0.81935656299E+02  0.00000000000E+00 0. -1.
          2    1    1    2  501    0  0.50021173654E+02  0.64194638331E+02  0.20388721079E+03  0.21952918742E+03  0.00000000000E+00 0.  1.
<scales pt_clust_3="113.61042" pt_clust_4="14000.00000" pt_clust_5="38.74901" pt_clust_6="82.06983"></scales>
<clustering>
<clus scale="   38.749">  1  5  2 -1</clus>
<clus scale="   82.070">  1  6  2 -1</clus>
<clus scale="  113.610">  2  3  1 -1</clus>
<clus scale="  113.610">  2  3  1 -1</clus>
</clustering>
</event>
<event>
 6    0  0.4945982E+002  0.8835689E+02  0.7546771E-02  0.1306880E+00
         21   -1    0    0  501  502  0.00000000000E+00  0.00000000000E+00  0.40962716893E+03  0.40962716893E+03  0.00000000000E+00 0. -1.
          2   -1    0    0  504    0 -0.00000000000E+00 -0.00000000000E+00 -0.26061979490E+04  0.26061979490E+04  0.00000000000E+00 0.  1.
         21    1    1    2  503  502  0.88958826873E+02 -0.42812586024E+01  0.26231211431E+03  0.27701921840E+03  0.00000000000E+00 0. -1.
         21    1    1    2  504  505 -0.35199026429E+02 -0.29968940033E+02  0.68743925667E+01  0.46737202541E+02  0.00000000000E+00 0. -1.
         21    1    1    2  505  503 -0.78277167264E+02  0.63307353099E+02  0.90594338722E+02  0.13543437555E+03  0.00000000000E+00 0. -1.
          2    1    1    2  501    0  0.24517366820E+02 -0.29057154463E+02 -0.25563516257E+04  0.25566343214E+04  0.00000000000E+00 0.  1.
<scales pt_clust_3="88.35689" pt_clust_4="48.74220" pt_clust_5="14000.00000" pt_clust_6="38.01867"></scales>
<clustering>
<clus scale="   38.019">  2  6  1 -1</clus>
<clus scale="   48.742">  2  4  1 -1</clus>
<clus scale="   88.357">  1  3  2 -1</clus>
<clus scale="   88.357">  1  3  2 -1</clus>
</clustering>
</event>
<event>
 6    0  0.4945982E+002  0.7385809E+02  0.7546771E-02  0.1347444E+00
          2   -1    0    0  504    0 -0.00000000000E+00  0.00000000000E+00  0.99659817244E+03  0.99659817244E+03  0.00000000000E+00 0.  1.
         21   -1    0    0  505  502  0.00000000000E+00 -0.00000000000E+00 -0.29771728041E+03  0.29771728041E+03  0.00000000000E+00 0.  1.
         21    1    1    2  503  501 -0.71749089063E+02  0.42925752788E+02 -0.44196492902E+02  0.94572099578E+02  0.00000000000E+00 0.  1.
         21    1    1    2  504  502 -0.26008919048E+02 -0.69574084894E+02 -0.16788021427E+03  0.18357773150E+03  0.00000000000E+00 0.  1.
         21    1    1    2  505  503  0.42643880010E+02  0.60813424071E+02 -0.24691962980E+02  0.78271745128E+02  0.00000000000E+00 0. -1.
          2    1    1    2  501    0  0.55114128101E+02 -0.34165091965E+02  0.93564956219E+03  0.93789387664E+03  0.00000000000E+00 0.  1.
<scales pt_clust_3="56.31405" pt_clust_4="73.85809" pt_clust_5="14000.00000" pt_clust_6="64.84459"></scales>
<clustering>
<clus scale="   64.845">  1  6  2 -1</clus>
<clus scale="   56.314">  1  3  2 -1</clus>
<clus scale="   73.858">  2  4  1 -1</clus>
<clus scale="   73.858">  2  3  1 -1</clus>
</clustering>
</event>
<event>
 6    0  0.4945982E+002  0.8399116E+02  0.7546771E-02  0.1318092E+00
         21   -1    0    0  505  502  0.00000000000E+00  0.00000000000E+00  0.19328528366E+03  0.19328528366E+03  0.00000000000E+00 0. -1.
          2   -1    0    0  503    0 -0.00000000000E+00 -0.00000000000E+00 -0.11669939842E+04  0.11669939842E+04  0.00000000000E+00 0.  1.
         21    1    1    2  503  504  0.20745006585E+02 -0.58056596826E+02 -0.15779872110E+03  0.16941475766E+03  0.00000000000E+00 0. -1.
         21    1    1    2  504  502 -0.13513019675E+03 -0.16689665141E+02 -0.97628034159E+02  0.16754088471E+03  0.00000000000E+00 0. -1.
         21    1    1    2  505  501  0.59120086590E+02  0.27980850696E+02  0.14392099699E+03  0.15808657760E+03  0.00000000000E+00 0. -1.
          2    1    1    2  501    0  0.55265103575E+02  0.46765411271E+02 -0.86220294232E+03  0.86523704793E+03  0.00000000000E+00 0.  1.
<scales pt_clust_3="61.65163" pt_clust_4="14000.00000" pt_clust_5="65.36576" pt_clust_6="83.99116"></scales>
<clustering>
<clus scale="   61.652">  2  3  1 -1</clus>
<clus scale="   65.366">  1  5  2 -1</clus>
<clus scale="   83.991">  2  6  1 -1</clus>
<clus scale="   65.366">  1  3  2 -1</clus>
</clustering>
</event>
<event>
 6    0  0.4945982E+002  0.1208099E+03  0.7546771E-02  0.1241767E+00
          2   -1    0    0  504    0 -0.00000000000E+00  0.00000000000E+00  0.68326820577E+03  0.68326820577E+03  0.00000000000E+00 0. -1.
         21   -1    0    0  505  502  0.00000000000E+00 -0.00000000000E+00 -0.18725886668E+03  0.18725886668E+03  0.00000000000E+00 0. -1.
         21    1    1    2  503  501  0.48548399613E+01  0.47788176958E+02  0.13511053196E+02  0.49898175182E+02  0.00000000000E+00 0. -1.
         21    1    1    2  504  502  0.75456575690E+02 -0.71485952740E+02  0.73924017982E+02  0.12754880120E+03  0.00000000000E+00 0. -1.
         21    1    1    2  505  503 -0.12739993244E+03  0.24586849017E+02 -0.11137872028E+03  0.17099846567E+03  0.00000000000E+00 0. -1.
          2    1    1    2  501    0  0.47088516788E+02 -0.88907323403E+00  0.51995298820E+03  0.52208163040E+03  0.00000000000E+00 0. -1.
<scales pt_clust_3="49.64586" pt_clust_4="14000.00000" pt_clust_5="120.80991" pt_clust_6="47.09691"></scales>
<clustering>
<clus scale="   47.097">  1  6  2 -1</clus>
<clus scale="   49.646">  1  3  2 -1</clus>
<clus scale="  120.810">  2  5  1 -1</clus>
<clus scale="  120.810">  2  3  1 -1</clus>
</clustering>
</event>
<event>
 6    0  0.4945982E+002  0.1575243E+03  0.7546771E-02  0.1191520E+00
         21   -1    0    0  504  502  0.00000000000E+00  0.00000000000E+00  0.77531556911E+02  0.77531556911E+02  0.00000000000E+00 0.  1.
         -2   -1    0    0    0  501 -0.00000000000E+00 -0.00000000000E+00 -0.12126491172E+04  0.12126491172E+04  0.00000000000E+00 0.  1.
         21    1    1    2  503  502 -0.61274181213E+02 -0.12020481205E+03 -0.45736901278E+03  0.47685441801E+03  0.00000000000E+00 0.  1.
         21    1    1    2  504  505  0.46526554456E+02  0.84966553477E+02  0.55998033973E+00  0.96872849949E+02  0.00000000000E+00 0. -1.
         21    1    1    2  505  501  0.51309530226E+02  0.30107148783E+02 -0.29154341029E+02  0.66250161514E+02  0.00000000000E+00 0.  1.
         -2    1    1    2    0  503 -0.36561903468E+02  0.51311097937E+01 -0.64915418685E+03  0.65020324467E+03  0.00000000000E+00 0.  1.
<scales pt_clust_3="147.77109" pt_clust_4="42.11751" pt_clust_5="42.11751" pt_clust_6="36.92020"></scales>
<clustering>
<clus scale="   36.920">  2  6  1 -1</clus>
<clus scale="   42.118">  4  5 -1 -1</clus>
<clus scale="  147.771">  2  3  1 -1</clus>
<clus scale="  157.524">  1  3  2 -1</clus>
</clustering>
</event>
<event>
 6    0  0.4945982E+002  0.6043708E+02  0.7546771E-02  0.1396007E+00
          2   -1    0    0  503    0 -0.00000000000E+00  0.00000000000E+00  0.24077806296E+04  0.24077806296E+04  0.00000000000E+00 0. -1.
         21   -1    0    0  505  502  0.00000000000E+00 -0.00000000000E+00 -0.23905605637E+02  0.23905605637E+02  0.00000000000E+00 0. -1.
         21    1    1    2  503  502 -0.84920461709E+02 -0.10009356895E+03  0.24849156207E+03  0.28103071680E+03  0.00000000000E+00 0. -1.
         21    1    1    2  504  501 -0.30153918876E+01  0.46388422150E+02  0.15719244270E+03  0.16392206178E+03  0.00000000000E+00 0. -1.
         21    1    1    2  505  504  0.40409828591E+02  0.19549506052E+02  0.12847469605E+03  0.13609145806E+03  0.00000000000E+00 0. -1.
          2    1    1    2  501    0  0.47526025006E+02  0.34155640750E+02  0.18497163231E+04  0.18506419986E+04  0.00000000000E+00 0. -1.
<scales pt_clust_3="60.43708" pt_clust_4="49.80293" pt_clust_5="44.89028" pt_clust_6="14000.00000"></scales>
<clustering>
<clus scale="   44.890">  2  5  1 -1</clus>
<clus scale="   49.803">  2  4  1 -1</clus>
<clus scale="   60.437">  2  3  1 -1</clus>
<clus scale="   44.890">  2  3  1 -1</clus>
</clustering>
</event>
<event>
 6    0  0.4945982E+002  0.1165892E+03  0.7546771E-02  0.1248832E+00
         21   -1    0    0  504  502  0.00000000000E+00  0.00000000000E+00  0.62024507847E+02  0.62024507847E+02  0.00000000000E+00 0. -1.
          2   -1    0    0  502    0 -0.00000000000E+00 -0.00000000000E+00 -0.14053910196E+04  0.14053910196E+04  0.00000000000E+00 0.  1.
         21    1    1    2  503  505 -0.26520190342E+02  0.40032263541E+02 -0.16584077825E+02  0.50802896151E+02  0.00000000000E+00 0.  1.
         21    1    1    2  504  503  0.59446533858E+01 -0.29472923237E+02 -0.59318248757E+01  0.30646021836E+02  0.00000000000E+00 0. -1.
         21    1    1    2  505  501 -0.97314558041E+02  0.42568649527E+00 -0.49623121919E+02  0.10923716696E+03  0.00000000000E+00 0. -1.
          2    1    1    2  501    0  0.11789009500E+03 -0.10985026799E+02 -0.12712274872E+04  0.12767294425E+04  0.00000000000E+00 0.  1.
<scales pt_clust_3="38.62225" pt_clust_4="30.06646" pt_clust_5="116.58925" pt_clust_6="14000.00000"></scales>
<clustering>
<clus scale="   30.066">  1  4  2 -1</clus>
<clus scale="   38.622">  1  3  2 -1</clus>
<clus scale="  116.589">  1  5  2 -1</clus>
<clus scale="   30.066">  1  3  2 -1</clus>
</clustering>
</event>
<event>
 6    0  0.4945982E+002  0.8927180E+02  0.7546771E-02  0.1304625E+00
         21   -1    0    0  505  502  0.00000000000E+00  0.00000000000E+00  0.22280250578E+03  0.22280250578E+03  0.00000000000E+00 0.  1.
          2   -1    0    0  503    0 -0.00000000000E+00 -0.00000000000E+00 -0.43240647868E+04  0.43240647868E+04  0.00000000000E+00 0. -1.
         21    1    1    2  503  502 -0.62878077283E+02  0.10799326366E+03 -0.18017031228E+03  0.21926590940E+03  0.00000000000E+00 0. -1.
         21    1    1    2  504  501  0.12131254177E+02 -0.56372755590E+02 -0.26350131936E+03  0.26973690924E+03  0.00000000000E+00 0. -1.
         21    1    1    2  505  504 -0.56704977801E+01 -0.31368804751E+02  0.19863318263E+03  0.20117479389E+03  0.00000000000E+00 0.  1.
          2    1    1    2  501    0  0.56417320886E+02 -0.20251703321E+02 -0.38562238320E+04  0.38566896801E+04  0.00000000000E+00 0. -1.
<scales pt_clust_3="14000.00000" pt_clust_4="89.27180" pt_clust_5="31.87721" pt_clust_6="59.99639"></scales>
<clustering>
<clus scale="   31.877">  1  5  2 -1</clus>
<clus scale="   59.996">  2  6  1 -1</clus>
<clus scale="   89.272">  2  4  1 -1</clus>
<clus scale="   31.877">  1  3  2 -1</clus>
</clustering>
</event>
<event>
 6    0  0.4945982E+002  0.1035592E+03  0.7546771E-02  0.1272985E+00
          2   -1    0    0  503    0 -0.00000000000E+00  0.00000000000E+00  0.32492876711E+04  0.32492876711E+04  0.00000000000E+00 0.  1.
         21   -1    0    0  504  502  0.00000000000E+00 -0.00000000000E+00 -0.47507990133E+03  0.47507990133E+03  0.00000000000E+00 0. -1.
         21    1    1    2  503  505  0.13285125785E+02  0.40989706021E+02  0.14718157602E+03  0.15335927388E+03  0.00000000000E+00 0.  1.
         21    1    1    2  504  501  0.61806317973E+02  0.21073109892E+02 -0.45707325107E+02  0.79707317546E+02  0.00000000000E+00 0. -1.
         21    1    1    2  505  502  0.36623690733E+02 -0.54886826898E+02 -0.40560026281E+03  0.41093239308E+03  0.00000000000E+00 0. -1.
          2    1    1    2  501    0 -0.11171513449E+03 -0.71759890154E+01  0.30783337817E+04  0.30803685879E+04  0.00000000000E+00 0.  1.
<scales pt_clust_3="43.08887" pt_clust_4="65.44187" pt_clust_5="14000.00000" pt_clust_6="103.55915"></scales>
<clustering>
<clus scale="   43.089">  1  3  2 -1</clus>
<clus scale="   65.442">  2  4  1 -1</clus>
<clus scale="  103.559">  1  6  2 -1</clus>
<clus scale="   65.442">  2  3  1 -1</clus>
</clustering>
</event>
<event>
 6    0  0.4945982E+002  0.1535391E+03  0.7546771E-02  0.1196190E+00
         21   -1    0    0  505  502  0.00000000000E+00  0.00000000000E+00  0.46211653125E+03  0.46211653125E+03  0.00000000000E+00 0. -1.
          1   -1    0    0  503    0 -0.00000000000E+00 -0.00000000000E+00 -0.17825754503E+03  0.17825754503E+03  0.00000000000E+00 0. -1.
         21    1    1    2  503  502 -0.11080160368E+02  0.16225107209E+03  0.32529531974E+03  0.36368286376E+03  0.00000000000E+00 0. -1.
         21    1    1    2  504  501  0.49028592918E+02  0.55353050937E+01  0.23114136244E+02  0.54485831372E+02  0.00000000000E+00 0. -1.
         21    1    1    2  505  504 -0.32398144499E+02 -0.15391843796E+02  0.26500058538E+02  0.44595983282E+02  0.00000000000E+00 0.  1.
          1    1    1    2  501    0 -0.55502880521E+01 -0.15239453339E+03 -0.91050528304E+02  0.17760939786E+03  0.00000000000E+00 0. -1.
<scales pt_clust_3="14000.00000" pt_clust_4="46.26688" pt_clust_5="35.86849" pt_clust_6="153.53908"></scales>
<clustering>
<clus scale="   35.868">  1  5  2 -1</clus>
<clus scale="   46.267">  1  4  2 -1</clus>
<clus scale="  153.539">  2  6  1 -1</clus>
<clus scale="   35.868">  1  3  2 -1</clus>
</clustering>
</event>
<event>
 6    0  0.4945982E+002  0.1241730E+03  0.7546771E-02  0.1236367E+00
         -2   -1    0    0    0  501 -0.00000000000E+00  0.00000000000E+00  0.62270369572E+03  0.62270369572E+03  0.00000000000E+00 0.  1.
         21   -1    0    0  503  502  0.00000000000E+00 -0.00000000000E+00 -0.11730444933E+04  0.11730444933E+04  0.00000000000E+00 0. -1.
         21    1    1    2  503  501  0.46226206154E+02  0.96867483656E+02 -0.23061844505E+02  0.10978169336E+03  0.00000000000E+00 0. -1.
         21    1    1    2  504  505 -0.12503111162E+03 -0.54505338835E+02 -0.80245515109E+03  0.81396429918E+03  0.00000000000E+00 0. -1.
         21    1    1    2  505  502  0.24780278868E+02 -0.24851139394E+02 -0.29596798354E+03  0.29804142100E+03  0.00000000000E+00 0. -1.
         -2    1    1    2    0  504  0.54024626603E+02 -0.17511005427E+02  0.57114418158E+03  0.57396077544E+03  0.00000000000E+00 0.  1.
<scales pt_clust_3="14000.00000" pt_clust_4="124.17304" pt_clust_5="35.09475" pt_clust_6="56.84190"></scales>
<clustering>
<clus scale="   35.095">  2  5  1 -1</clus>
<clus scale="   56.842">  1  6  2 -1</clus>
<clus scale="  124.173">  2  4  1 -1</clus>
<clus scale="   35.095">  2  3  1 -1</clus>
</clustering>
</event>
<event>
 6    0  0.4945982E+002  0.1520522E+03  0.7546771E-02  0.1197974E+00
         21   -1    0    0  505  502  0.00000000000E+00  0.00000000000E+00  0.35158868379E+03  0.35158868379E+03  0.00000000000E+00 0. -1.
          1   -1    0    0  503    0 -0.00000000000E+00 -0.00000000000E+00 -0.45179005295E+03  0.45179005295E+03  0.00000000000E+00 0.  1.
         21    1    1    2  503  504 -0.72408625697E+02 -0.26629899370E+02  0.16823869513E+03  0.18508489715E+03  0.00000000000E+00 0. -1.
         21    1    1    2  504  502 -0.43216592809E+02 -0.48094112852E+02  0.11780011673E+03  0.13437851423E+03  0.00000000000E+00 0. -1.
         21    1    1    2  505  501 -0.25967349485E+02  0.30287009010E+02  0.24753048097E+02  0.46950181514E+02  0.00000000000E+00 0. -1.
          1    1    1    2  501    0  0.14159256799E+03  0.44437003212E+02 -0.41099322911E+03  0.43696514385E+03  0.00000000000E+00 0.  1.
<scales pt_clust_3="32.82697" pt_clust_4="32.82697" pt_clust_5="39.89494" pt_clust_6="147.76352"></scales>
<clustering>
<clus scale="   32.827">  3  4 -1 -1</clus>
<clus scale="   39.895">  1  5  2 -1</clus>
<clus scale="  147.764">  2  6  1 -1</clus>
<clus scale="   39.895">  1  3  2 -1</clus>
</clustering>
</event>
<event>
 6    0  0.4945982E+002  0.1249267E+03  0.7546771E-02  0.1235184E+00
          2   -1    0    0  503    0 -0.00000000000E+00  0.00000000000E+00  0.24395025449E+04  0.24395025449E+04  0.00000000000E+00 0. -1.
         21   -1    0    0  501  502  0.00000000000E+00 -0.00000000000E+00 -0.57735790361E+02  0.57735790361E+02  0.00000000000E+00 0.  1.
         21    1    1    2  503  504 -0.11262337466E+02 -0.46232921990E+02  0.15779412218E+03  0.16481294948E+03  0.00000000000E+00 0. -1.
         21    1    1    2  504  505  0.19642572136E+02 -0.75893261400E+02  0.10289995500E+04  0.10319814396E+04  0.00000000000E+00 0. -1.
         21    1    1    2  505  502  0.97086802077E+02  0.86149411134E+02  0.34056871301E+02  0.13419179803E+03  0.00000000000E+00 0.  1.
          2    1    1    2  501    0 -0.10546703675E+03  0.35976772256E+02  0.11609162110E+04  0.11662521481E+04  0.00000000000E+00 0. -1.
<scales pt_clust_3="47.58491" pt_clust_4="97.89274" pt_clust_5="124.92666" pt_clust_6="14000.00000"></scales>
<clustering>
<clus scale="   47.585">  1  3  2 -1</clus>
<clus scale="   97.893">  1  4  2 -1</clus>
<clus scale="  124.927">  2  5  1 -1</clus>
<clus scale="  124.927">  2  3  1 -1</clus>
</clustering>
</event>
<event>
 6    0  0.4945982E+002  0.1113173E+03  0.7546771E-02  0.1258150E+00
         21   -1    0    0  504  502  0.00000000000E+00  0.00000000000E+00  0.79495790457E+01  0.79495790457E+01  0.00000000000E+00 0.  1.
          2   -1    0    0  505    0 -0.00000000000E+00 -0.00000000000E+00 -0.34583279304E+04  0.34583279304E+04  0.00000000000E+00 0.  1.
         21    1    1    2  503  502  0.61958037165E+02 -0.76189051782E+02 -0.10757456275E+04  0.10802186006E+04  0.00000000000E+00 0.  1.
         21    1    1    2  504  501 -0.49797742597E+02  0.65322410342E+02 -0.40831574653E+03  0.41649559580E+03  0.00000000000E+00 0.  1.
         21    1    1    2  505  503  0.49251431337E+02  0.13001709151E+01 -0.70789472537E+03  0.70960717030E+03  0.00000000000E+00 0.  1.
          2    1    1    2  501    0 -0.61411725906E+02  0.95664705243E+01 -0.12584222520E+04  0.12599561428E+04  0.00000000000E+00 0.  1.
<scales pt_clust_3="45.50600" pt_clust_4="90.90687" pt_clust_5="45.50600" pt_clust_6="62.15237"></scales>
<clustering>
<clus scale="   45.506">  3  5 -1 -1</clus>
<clus scale="   62.152">  2  6  1 -1</clus>
<clus scale="   90.907">  1  4  2 -1</clus>
<clus scale="   90.907">  1  3  2 -1</clus>
</clustering>
</event>
<event>
 6    0  0.4945982E+002  0.1244057E+03  0.7546771E-02  0.1236001E+00
          2   -1    0    0  505    0 -0.00000000000E+00  0.00000000000E+00  0.17571883754E+03  0.17571883754E+03  0.00000000000E+00 0. -1.
         21   -1    0    0  504  502  0.00000000000E+00 -0.00000000000E+00 -0.25332287022E+04  0.25332287022E+04  0.00000000000E+00 0. -1.
         21    1    1    2  503  501  0.38469093921E+02  0.12827758741E+03 -0.52679129756E+03  0.54354768126E+03  0.00000000000E+00 0. -1.
         21    1    1    2  504  503 -0.10240000671E+03 -0.75865273282E+02 -0.18875531365E+04  0.18918504550E+04  0.00000000000E+00 0. -1.
         21    1    1    2  505  502  0.37708304921E+02 -0.82068863569E+02 -0.86373578652E+02  0.12497043537E+03  0.00000000000E+00 0. -1.
          2    1    1    2  501    0  0.26222607870E+02  0.29656549445E+02  0.14320814806E+03  0.14857896809E+03  0.00000000000E+00 0. -1.
<scales pt_clust_3="14000.00000" pt_clust_4="124.40574" pt_clust_5="83.32628" pt_clust_6="39.58707"></scales>
<clustering>
<clus scale="   39.587">  1  6  2 -1</clus>
<clus scale="   83.326">  1  5  2 -1</clus>
<clus scale="  124.406">  2  4  1 -1</clus>
<clus scale="  124.406">  2  3  1 -1</clus>
</clustering>
</event>
<event>
 6    0  0.4945982E+002  0.6635100E+02  0.7546771E-02  0.1372960E+00
         21   -1    0    0  501  502  0.00000000000E+00  0.00000000000E+00  0.35475719060E+03  0.35475719060E+03  0.00000000000E+00 0.  1.
          1   -1    0    0  503    0 -0.00000000000E+00 -0.00000000000E+00 -0.67902255503E+03  0.67902255503E+03  0.00000000000E+00 0. -1.
         21    1    1    2  503  505 -0.41507504080E+02  0.25320945301E+01 -0.59239429231E+02  0.72378134636E+02  0.00000000000E+00 0. -1.
         21    1    1    2  504  502  0.55138206723E+02 -0.36574890632E+02  0.33249320451E+03  0.33901279550E+03  0.00000000000E+00 0.  1.
         21    1    1    2  505  504 -0.68952187729E+02  0.65278773901E+02 -0.47478780215E+03  0.48418919813E+03  0.00000000000E+00 0. -1.
          1    1    1    2  501    0  0.55321485085E+02 -0.31235977799E+02 -0.12273133756E+03  0.13819961736E+03  0.00000000000E+00 0. -1.
<scales pt_clust_3="41.58467" pt_clust_4="66.35100" pt_clust_5="14000.00000" pt_clust_6="55.71073"></scales>
<clustering>
<clus scale="   41.585">  2  3  1 -1</clus>
<clus scale="   55.711">  2  6  1 -1</clus>
<clus scale="   66.351">  1  4  2 -1</clus>
<clus scale="   66.351">  1  3  2 -1</clus>
</clustering>
</event>
<event>
 6    0  0.4945982E+002  0.1389270E+03  0.7546771E-02  0.1214780E+00
         21   -1    0    0  503  502  0.00000000000E+00  0.00000000000E+00  0.38453584104E+03  0.38453584104E+03  0.00000000000E+00 0. -1.
         -1   -1    0    0    0  501 -0.00000000000E+00 -0.00000000000E+00 -0.11953045601E+03  0.11953045601E+03  0.00000000000E+00 0.  1.
         21    1    1    2  503  504  0.51807184296E+02  0.19849177436E+02  0.69109895745E+02  0.88623653047E+02  0.00000000000E+00 0.  1.
         21    1    1    2  504  505  0.60366637060E+02  0.72705146831E+02  0.19910925060E+03  0.22039660370E+03  0.00000000000E+00 0. -1.
         21    1    1    2  505  501 -0.91272527189E+02 -0.55126818995E+02  0.57173885134E+02  0.12098964226E+03  0.00000000000E+00 0.  1.
         -1    1    1    2    0  502 -0.20901294167E+02 -0.37427505271E+02 -0.60387646452E+02  0.74056398054E+02  0.00000000000E+00 0.  1.
<scales pt_clust_3="37.55819" pt_clust_4="37.55819" pt_clust_5="129.99222" pt_clust_6="42.86820"></scales>
<clustering>
<clus scale="   37.558">  3  4 -1 -1</clus>
<clus scale="   42.868">  2  6  1 -1</clus>
<clus scale="  129.992">  2  5  1 -1</clus>
<clus scale="  138.927">  1  3  2 -1</clus>
</clustering>
</event>
<event>
 6    0  0.4945982E+002  0.1673757E+03  0.7546771E-02  0.1180613E+00
          2   -1    0    0  505    0 -0.00000000000E+00  0.00000000000E+00  0.24086217924E+04  0.24086217924E+04  0.00000000000E+00 0.  1.
         21   -1    0    0  504  502  0.00000000000E+00 -0.00000000000E+00 -0.94140876641E+02  0.94140876641E+02  0.00000000000E+00 0. -1.
         21    1    1    2  503  502 -0.36487630383E+02  0.31944548917E+02  0.12781626939E+02  0.50151484162E+02  0.00000000000E+00 0. -1.
         21    1    1    2  504  501  0.23523335719E+00  0.46313631823E+02 -0.37488075435E+02  0.59584927853E+02  0.00000000000E+00 0. -1.
         21    1    1    2  505  503  0.13962370914E+02  0.78065873480E+02  0.40732344713E+02  0.89153532232E+02  0.00000000000E+00 0. -1.
          2    1    1    2  501    0  0.22290026112E+02 -0.15632405422E+03  0.22984550196E+04  0.23038727248E+04  0.00000000000E+00 0.  1.
<scales pt_clust_3="48.73759" pt_clust_4="46.31423" pt_clust_5="48.73759" pt_clust_6="155.18427"></scales>
<clustering>
<clus scale="   46.314">  2  4  1 -1</clus>
<clus scale="   48.738">  3  5 -1 -1</clus>
<clus scale="  155.184">  1  6  2 -1</clus>
<clus scale="   46.314">  2  3  1 -1</clus>
</clustering>
</event>
<event>
 6    0  0.4945982E+002  0.1229192E+03  0.7546771E-02  0.1238357E+00
          2   -1    0    0  504    0 -0.00000000000E+00  0.00000000000E+00  0.95332261769E+03  0.95332261769E+03  0.00000000000E+00 0. -1.
         21   -1    0    0  503  502  0.00000000000E+00 -0.00000000000E+00 -0.22235986121E+03  0.22235986121E+03  0.00000000000E+00 0. -1.
         21    1    1    2  503  505  0.36823237608E+01 -0.38059168104E+02 -0.25826166613E+02  0.46141637020E+02  0.00000000000E+00 0. -1.
         21    1    1    2  504  502  0.10570772676E+03 -0.16467692562E+02 -0.14744855614E+03  0.18217130702E+03  0.00000000000E+00 0. -1.
         21    1    1    2  505  501 -0.23171853384E+02 -0.34423218799E+02  0.75639670174E+01  0.42179454463E+02  0.00000000000E+00 0. -1.
          2    1    1    2  501    0 -0.86218197133E+02  0.88950079465E+02  0.89667351221E+03  0.90519008039E+03  0.00000000000E+00 0. -1.
<scales pt_clust_3="38.23689" pt_clust_4="122.91924" pt_clust_5="44.29426" pt_clust_6="14000.00000"></scales>
<clustering>
<clus scale="   38.237">  2  3  1 -1</clus>
<clus scale="   44.294">  2  5  1 -1</clus>
<clus scale="  122.919">  2  4  1 -1</clus>
<clus scale="   38.237">  2  3  1 -1</clus>
</clustering>
</event>
<event>
 6    0  0.4945982E+002  0.1129618E+03  0.7546771E-02  0.1255181E+00
          2   -1    0    0  504    0 -0.00000000000E+00  0.00000000000E+00  0.13500325338E+04  0.13500325338E+04  0.00000000000E+00 0. -1.
         21   -1    0    0  503  502  0.00000000000E+00 -0.00000000000E+00 -0.23871675095E+03  0.23871675095E+03  0.00000000000E+00 0. -1.
         21    1    1    2  503  501 -0.27874676827E+02  0.26939844061E+02 -0.22751463244E+03  0.23079354580E+03  0.00000000000E+00 0. -1.
         21    1    1    2  504  505 -0.44509302038E+02  0.40734829106E+01  0.37367462107E+03  0.37633813740E+03  0.00000000000E+00 0. -1.
         21    1    1    2  505  502 -0.48502892889E+02 -0.31968045355E+02  0.32265727701E+03  0.32784478789E+03  0.00000000000E+00 0. -1.
          2    1    1    2  501    0  0.12088687175E+03  0.95471838407E+00  0.64249851724E+03  0.65377281367E+03  0.00000000000E+00 0. -1.
<scales pt_clust_3="38.76536" pt_clust_4="34.71279" pt_clust_5="34.71279" pt_clust_6="105.80292"></scales>
<clustering>
<clus scale="   34.713">  4  5 -1 -1</clus>
<clus scale="   38.765">  2  3  1 -1</clus>
<clus scale="  105.803">  2  6  1 -1</clus>
<clus scale="   38.765">  2  3  1 -1</clus>
</clustering>
</event>
<event>
 6    0  0.4945982E+002  0.1222727E+03  0.7546771E-02  0.1239394E+00
          1   -1    0    0  505    0 -0.00000000000E+00  0.00000000000E+00  0.19642680267E+04  0.19642680267E+04  0.00000000000E+00 0. -1.
         21   -1    0    0  504  502  0.00000000000E+00 -0.00000000000E+00 -0.35921862106E+02  0.35921862106E+02  0.00000000000E+00 0. -1.
         21    1    1    2  503  501  0.47632144606E+02 -0.23174210189E+02  0.72163015450E+02  0.89517406221E+02  0.00000000000E+00 0. -1.
         21    1    1    2  504  503  0.26617913543E+02 -0.36976986073E+02  0.26643095534E+02  0.52779402801E+02  0.00000000000E+00 0. -1.
         21    1    1    2  505  502  0.46322815892E+02  0.60117087578E+02  0.10724378410E+03  0.13138149306E+03  0.00000000000E+00 0. -1.
          1    1    1    2  501    0 -0.12057287404E+03  0.34108685254E-01  0.17222962695E+04  0.17265115867E+04  0.00000000000E+00 0. -1.
<scales pt_clust_3="34.13259" pt_clust_4="34.13259" pt_clust_5="75.89379" pt_clust_6="116.60240"></scales>
<clustering>
<clus scale="   34.133">  3  4 -1 -1</clus>
<clus scale="   75.894">  2  5  1 -1</clus>
<clus scale="  116.602">  1  6  2 -1</clus>
<clus scale="   75.894">  2  3  1 -1</clus>
</clustering>
</event>
<event>
 6    0  0.4945982E+002  0.5231276E+02  0.7546771E-02  0.1433252E+00
          1   -1    0    0  505    0 -0.00000000000E+00  0.00000000000E+00  0.40198257456E+03  0.40198257456E+03  0.00000000000E+00 0.  1.
         21   -1    0    0  503  502  0.00000000000E+00 -0.00000000000E+00 -0.65732215021E+03  0.65732215021E+03  0.00000000000E+00 0. -1.
         21    1    1    2  503  501 -0.38498277270E+02 -0.26383474885E+02 -0.12660105793E+02  0.48357867803E+02  0.00000000000E+00 0.  1.
         21    1    1    2  504  502 -0.17415382691E+02 -0.25589500079E+02 -0.33306900296E+03  0.33450422837E+03  0.00000000000E+00 0. -1.
         21    1    1    2  505  504  0.10317539977E+03  0.73330325623E+02 -0.27745221355E+03  0.30496267079E+03  0.00000000000E+00 0. -1.
          1    1    1    2  501    0 -0.47261739810E+02 -0.21357350660E+02  0.36784174664E+03  0.37147995781E+03  0.00000000000E+00 0.  1.
<scales pt_clust_3="49.40144" pt_clust_4="30.95348" pt_clust_5="52.31276" pt_clust_6="14000.00000"></scales>
<clustering>
<clus scale="   30.953">  2  4  1 -1</clus>
<clus scale="   49.401">  2  3  1 -1</clus>
<clus scale="   52.313">  2  5  1 -1</clus>
<clus scale="   30.953">  2  3  1 -1</clus>
</clustering>
</event>
<event>
 6    0  0.4945982E+002  0.8813911E+02  0.7546771E-02  0.1307422E+00
         -1   -1    0    0    0  501 -0.00000000000E+00  0.00000000000E+00  0.64316566552E+03  0.64316566552E+03  0.00000000000E+00 0. -1.
         21   -1    0    0  505  502  0.00000000000E+00 -0.00000000000E+00 -0.80272650716E+03  0.80272650716E+03  0.00000000000E+00 0. -1.
         21    1    1    2  503  502 -0.24170160707E+02  0.25503834423E+02 -0.12580786634E+03  0.13062259174E+03  0.00000000000E+00 0. -1.
         21    1    1    2  504  501  0.32499648166E+02 -0.96244569816E+02 -0.31217261133E+03  0.32828491225E+03  0.00000000000E+00 0. -1.
         21    1    1    2  505  504  0.50486172346E+02  0.51643696089E+01 -0.34937423891E+03  0.35304090857E+03  0.00000000000E+00 0. -1.
         -1    1    1    2    0  503 -0.58815659804E+02  0.65576365785E+02  0.62779387494E+03  0.63394376012E+03  0.00000000000E+00 0. -1.
<scales pt_clust_3="35.13748" pt_clust_4="14000.00000" pt_clust_5="42.15058" pt_clust_6="88.13911"></scales>
<clustering>
<clus scale="   35.137">  2  3  1 -1</clus>
<clus scale="   42.151">  2  5  1 -1</clus>
<clus scale="   88.139">  1  6  2 -1</clus>
<clus scale="   35.137">  2  3  1 -1</clus>
</clustering>
</event>
<event>
 6    0  0.4945982E+002  0.5395473E+02  0.7546771E-02  0.1425108E+00
         21   -1    0    0  504  502  0.00000000000E+00  0.00000000000E+00  0.14164186382E+03  0.14164186382E+03  0.00000000000E+00 0. -1.
          1   -1    0    0  503    0 -0.00000000000E+00 -0.00000000000E+00 -0.13441022983E+04  0.13441022983E+04  0.00000000000E+00 0.  1.
         21    1    1    2  503  505 -0.53097626240E+02 -0.73992785760E+02 -0.59279773983E+02  0.10866637870E+03  0.00000000000E+00 0.  1.
         21    1    1    2  504  501  0.31919946196E+02 -0.31078855793E+02  0.30297756738E+02  0.53877010923E+02  0.00000000000E+00 0. -1.
         21    1    1    2  505  502 -0.22909880505E+02  0.75270733866E+02  0.53450511144E+02  0.95118363858E+02  0.00000000000E+00 0. -1.
          1    1    1    2  501    0  0.44087560550E+02  0.29800907688E+02 -0.12269289284E+04  0.12280824086E+04  0.00000000000E+00 0.  1.
<scales pt_clust_3="14000.00000" pt_clust_4="44.55085" pt_clust_5="52.08858" pt_clust_6="53.95473"></scales>
<clustering>
<clus scale="   44.551">  1  4  2 -1</clus>
<clus scale="   52.089">  1  5  2 -1</clus>
<clus scale="   53.955">  2  6  1 -1</clus>
<clus scale="   44.551">  1  3  2 -1</clus>
</clustering>
</event>
<event>
 6    0  0.4945982E+002  0.1166385E+03  0.7546771E-02  0.1248748E+00
         21   -1    0    0  505  502  0.00000000000E+00  0.00000000000E+00  0.21596320930E+04  0.21596320930E+04  0.00000000000E+00 0.  1.
          1   -1    0    0  504    0 -0.00000000000E+00 -0.00000000000E+00 -0.73084580845E+03  0.73084580845E+03  0.00000000000E+00 0.  1.
         21    1    1    2  503  502 -0.29277126665E+02  0.28071971626E+02  0.19120394644E+04  0.19124696335E+04  0.00000000000E+00 0.  1.
         21    1    1    2  504  503 -0.35007649506E+02 -0.21766182735E+02  0.27888131022E+02  0.49769971737E+02  0.00000000000E+00 0. -1.
         21    1    1    2  505  501 -0.31805381580E+02 -0.74405202701E+02  0.19563879735E+03  0.21171267207E+03  0.00000000000E+00 0.  1.
          1    1    1    2  501    0  0.96090157751E+02  0.68099413810E+02 -0.70678010825E+03  0.71652562410E+03  0.00000000000E+00 0.  1.
<scales pt_clust_3="40.56089" pt_clust_4="43.24084" pt_clust_5="14000.00000" pt_clust_6="116.63848"></scales>
<clustering>
<clus scale="   40.561">  1  3  2 -1</clus>
<clus scale="   43.241">  1  4  2 -1</clus>
<clus scale="  116.638">  2  6  1 -1</clus>
<clus scale="   40.561">  1  3  2 -1</clus>
</clustering>
</event>
<event>
 6    0  0.4945982E+002  0.2409142E+03  0.7546771E-02  0.1119185E+00
          2   -1    0    0  505    0 -0.00000000000E+00  0.00000000000E+00  0.11459831620E+04  0.11459831620E+04  0.00000000000E+00 0.  1.
         21   -1    0    0  504  502  0.00000000000E+00 -0.00000000000E+00 -0.21670196393E+04  0.21670196393E+04  0.00000000000E+00 0. -1.
         21    1    1    2  503  501 -0.15438506852E+03 -0.14300087168E+03  0.36106814343E+03  0.41791650229E+03  0.00000000000E+00 0.  1.
         21    1    1    2  504  503  0.17011737606E+03  0.13190107334E+03 -0.20408288019E+04  0.20521500953E+04  0.00000000000E+00 0. -1.
         21    1    1    2  505  502 -0.29954132211E+02  0.67193595956E+02 -0.76094533937E+02  0.10584237086E+03  0.00000000000E+00 0. -1.
          2    1    1    2  501    0  0.14221824670E+02 -0.56093797614E+02  0.73481871515E+03  0.73709383294E+03  0.00000000000E+00 0.  1.
<scales pt_clust_3="240.91417" pt_clust_4="14000.00000" pt_clust_5="71.50017" pt_clust_6="57.86860"></scales>
<clustering>
<clus scale="   57.869">  1  6  2 -1</clus>
<clus scale="   71.500">  2  5  1 -1</clus>
<clus scale="  240.914">  1  3  2 -1</clus>
<clus scale="   71.500">  2  3  1 -1</clus>
</clustering>
</event>
<event>
 6    0  0.4945982E+002  0.2153567E+03  0.7546771E-02  0.1137393E+00
         21   -1    0    0  503  502  0.00000000000E+00  0.00000000000E+00  0.21351619110E+03  0.21351619110E+03  0.00000000000E+00 0.  1.
         -4   -1    0    0    0  501 -0.00000000000E+00 -0.00000000000E+00 -0.61032801668E+03  0.61032801668E+03  0.00000000000E+00 0.  1.
         21    1    1    2  503  505  0.35002733993E+02  0.65990401114E+02  0.92157662883E+02  0.11862950415E+03  0.00000000000E+00 0. -1.
         21    1    1    2  504  502  0.30503456464E+02 -0.53714869297E+01  0.19307434594E+02  0.36497818547E+02  0.00000000000E+00 0. -1.
         21    1    1    2  505  501  0.37396281393E+02  0.10667331779E+03  0.10966247202E+02  0.11356908544E+03  0.00000000000E+00 0.  1.
         -4    1    1    2    0  504 -0.10290247185E+03 -0.16729223197E+03 -0.51924317026E+03  0.55514779965E+03  0.00000000000E+00 0.  1.
<scales pt_clust_3="76.46168" pt_clust_4="30.97279" pt_clust_5="76.46168" pt_clust_6="195.32340"></scales>
<clustering>
<clus scale="   30.973">  1  4  2 -1</clus>
<clus scale="   76.462">  3  5 -1 -1</clus>
<clus scale="  195.323">  2  6  1 -1</clus>
<clus scale="   30.973">  1  3  2 -1</clus>
</clustering>
</event>
<event>
 6    0  0.4945982E+002  0.1681637E+03  0.7546771E-02  0.1179776E+00
          1   -1    0    0  505    0 -0.00000000000E+00  0.00000000000E+00  0.54101091656E+03  0.54101091656E+03  0.00000000000E+00 0.  1.
         21   -1    0    0  504  502  0.00000000000E+00 -0.00000000000E+00 -0.41806466884E+03  0.41806466884E+03  0.00000000000E+00 0.  1.
         21    1    1    2  503  502  0.24521627797E+02  0.13196933710E+03  0.11106856530E+03  0.17422239340E+03  0.00000000000E+00 0.  1.
         21    1    1    2  504  501  0.12764172927E+02  0.39313401601E+02 -0.29674373783E+03  0.29960860068E+03  0.00000000000E+00 0.  1.
         21    1    1    2  505  503  0.75561538880E+02  0.12501275496E+02  0.25041235888E+03  0.26186289834E+03  0.00000000000E+00 0.  1.
          1    1    1    2  501    0 -0.11284733960E+03 -0.18378401420E+03  0.58209061378E+02  0.22338169298E+03  0.00000000000E+00 0.  1.
<scales pt_clust_3="14000.00000" pt_clust_4="41.33361" pt_clust_5="77.51633" pt_clust_6="168.16374"></scales>
<clustering>
<clus scale="   41.334">  2  4  1 -1</clus>
<clus scale="   77.516">  1  5  2 -1</clus>
<clus scale="  168.164">  2  6  1 -1</clus>
<clus scale="   41.334">  2  3  1 -1</clus>
</clustering>
</event>
<event>
 6    0  0.4945982E+002  0.1113915E+03  0.7546771E-02  0.1258015E+00
         21   -1    0    0  503  502  0.00000000000E+00  0.00000000000E+00  0.22608883769E+03  0.22608883769E+03  0.00000000000E+00 0. -1.
         -4   -1    0    0    0  501 -0.00000000000E+00 -0.00000000000E+00 -0.28862903638E+03  0.28862903638E+03  0.00000000000E+00 0.  1.
         21    1    1    2  503  504  0.75879098483E+02 -0.26716398363E+02  0.14794761524E+03  0.16840397971E+03  0.00000000000E+00 0. -1.
         21    1    1    2  504  505 -0.62042560354E+02  0.49155654633E+02  0.81881188208E+01  0.79577653694E+02  0.00000000000E+00 0. -1.
         21    1    1    2  505  501 -0.68022809011E+02  0.20168764781E+02 -0.57107814846E+02  0.91077901464E+02  0.00000000000E+00 0. -1.
         -4    1    1    2    0  502  0.54186270882E+02 -0.42608021051E+02 -0.16156811790E+03  0.17565833920E+03  0.00000000000E+00 0.  1.
<scales pt_clust_3="86.02762" pt_clust_4="66.99431" pt_clust_5="66.99431" pt_clust_6="68.93182"></scales>
<clustering>
<clus scale="   66.994">  4  5 -1 -1</clus>
<clus scale="   68.932">  2  6  1 -1</clus>
<clus scale="   86.028">  1  3  2 -1</clus>
<clus scale="   86.028">  1  3  2 -1</clus>
</clustering>
</event>
<event>
 6    0  0.4945982E+002  0.1511704E+03  0.7546771E-02  0.1199042E+00
         21   -1    0    0  504  502  0.00000000000E+00  0.00000000000E+00  0.11817551554E+04  0.11817551554E+04  0.00000000000E+00 0.  1.
          3   -1    0    0  503    0 -0.00000000000E+00 -0.00000000000E+00 -0.37984712985E+03  0.37984712985E+03  0.00000000000E+00 0. -1.
         21    1    1    2  503  502 -0.88826729612E+02 -0.19680614460E+01  0.16123751638E+03  0.18409670786E+03  0.00000000000E+00 0.  1.
         21    1    1    2  504  505  0.15170164698E+03  0.83354508569E+02  0.82808717501E+03  0.84598447575E+03  0.00000000000E+00 0.  1.
         21    1    1    2  505  501 -0.38260636280E+02 -0.11710578608E+03  0.14842314399E+03  0.19289134531E+03  0.00000000000E+00 0.  1.
          3    1    1    2  501    0 -0.24614281091E+02  0.35719338959E+02 -0.33583980983E+03  0.33862975633E+03  0.00000000000E+00 0. -1.
<scales pt_clust_3="95.73200" pt_clust_4="14000.00000" pt_clust_5="151.17041" pt_clust_6="43.37896"></scales>
<clustering>
<clus scale="   43.379">  2  6  1 -1</clus>
<clus scale="   95.732">  2  3  1 -1</clus>
<clus scale="  151.170">  2  5  1 -1</clus>
<clus scale="  151.170">  1  3  2 -1</clus>
</clustering>
</event>
<event>
 6    0  0.4945982E+002  0.1066575E+03  0.7546771E-02  0.1266888E+00
          2   -1    0    0  502    0 -0.00000000000E+00  0.00000000000E+00  0.11126490739E+04  0.11126490739E+04  0.00000000000E+00 0.  1.
         21   -1    0    0  504  502  0.00000000000E+00 -0.00000000000E+00 -0.33313870869E+02  0.33313870869E+02  0.00000000000E+00 0. -1.
         21    1    1    2  503  505  0.42026717380E+02 -0.28183418478E+02  0.12801278007E+03  0.13765108758E+03  0.00000000000E+00 0.  1.
         21    1    1    2  504  503 -0.21417247201E+02  0.88003459971E+02  0.60099526863E+02  0.10869802470E+03  0.00000000000E+00 0. -1.
         21    1    1    2  505  501  0.32545492908E+02 -0.56743638473E+02  0.37607570639E+03  0.38172239462E+03  0.00000000000E+00 0.  1.
          2    1    1    2  501    0 -0.53154963087E+02 -0.30764030194E+01  0.51514718967E+03  0.51789143783E+03  0.00000000000E+00 0.  1.
<scales pt_clust_3="47.11800" pt_clust_4="92.22703" pt_clust_5="47.11800" pt_clust_6="53.24391"></scales>
<clustering>
<clus scale="   47.118">  3  5 -1 -1</clus>
<clus scale="   53.244">  1  6  2 -1</clus>
<clus scale="   92.227">  2  4  1 -1</clus>
<clus scale="   92.227">  2  3  1 -1</clus>
</clustering>
</event>
<event>
 6    0  0.4945982E+002  0.8573384E+02  0.7546771E-02  0.1313525E+00
         21   -1    0    0  501  502  0.00000000000E+00  0.00000000000E+00  0.11841337215E+04  0.11841337215E+04  0.00000000000E+00 0.  1.
          1   -1    0    0  505    0 -0.00000000000E+00 -0.00000000000E+00 -0.64452120299E+03  0.64452120299E+03  0.00000000000E+00 0. -1.
         21    1    1    2  503  502 -0.85165282802E+02  0.58527912798E+01  0.11448938326E+04  0.11480719788E+04  0.00000000000E+00 0.  1.
         21    1    1    2  504  503  0.11252287520E+03  0.21493357190E+02 -0.78356997538E+02  0.13879186183E+03  0.00000000000E+00 0. -1.
         21    1    1    2  505  504  0.27484129505E+02 -0.45470422403E+02 -0.12624097244E+03  0.13696612651E+03  0.00000000000E+00 0. -1.
          1    1    1    2  501    0 -0.54841721900E+02  0.18124273933E+02 -0.40068334417E+03  0.40482495731E+03  0.00000000000E+00 0. -1.
<scales pt_clust_3="85.73384" pt_clust_4="14000.00000" pt_clust_5="53.13132" pt_clust_6="37.62082"></scales>
<clustering>
<clus scale="   53.131">  2  5  1 -1</clus>
<clus scale="   37.621">  2  6  1 -1</clus>
<clus scale="   85.734">  1  3  2 -1</clus>
<clus scale="   85.734">  1  3  2 -1</clus>
</clustering>
</event>
<event>
 6    0  0.4945982E+002  0.9670667E+02  0.7546771E-02  0.1287378E+00
         21   -1    0    0  503  502  0.00000000000E+00  0.00000000000E+00  0.15938014609E+03  0.15938014609E+03  0.00000000000E+00 0. -1.
          1   -1    0    0  505    0 -0.00000000000E+00 -0.00000000000E+00 -0.19156276683E+04  0.19156276683E+04  0.00000000000E+00 0. -1.
         21    1    1    2  503  504 -0.24710010232E+02  0.22755079941E+02  0.16494946768E+02  0.37422740917E+02  0.00000000000E+00 0.  1.
         21    1    1    2  504  501 -0.25018909232E+02 -0.10466480724E+03  0.82555708066E+02  0.13563226986E+03  0.00000000000E+00 0. -1.
         21    1    1    2  505  502  0.79510573743E+02  0.62224052795E+02 -0.86950231114E+02  0.13324453750E+03  0.00000000000E+00 0. -1.
          1    1    1    2  501    0 -0.29781654279E+02  0.19685674502E+02 -0.17683479459E+04  0.17687082661E+04  0.00000000000E+00 0. -1.
<scales pt_clust_3="33.59134" pt_clust_4="14000.00000" pt_clust_5="96.70667" pt_clust_6="35.74487"></scales>
<clustering>
<clus scale="   33.591">  1  3  2 -1</clus>
<clus scale="   35.745">  2  6  1 -1</clus>
<clus scale="   96.707">  2  5  1 -1</clus>
<clus scale="   33.591">  1  3  2 -1</clus>
</clustering>
</event>
<event>
 6    0  0.4945982E+002  0.1346316E+03  0.7546771E-02  0.1220741E+00
         21   -1    0    0  501  502  0.00000000000E+00  0.00000000000E+00  0.31844626682E+02  0.31844626682E+02  0.00000000000E+00 0.  1.
          2   -1    0    0  505    0 -0.00000000000E+00 -0.00000000000E+00 -0.16380623289E+04  0.16380623289E+04  0.00000000000E+00 0. -1.
         21    1    1    2  503  502 -0.12980959501E+02 -0.58942772118E+02 -0.17312865074E+03  0.18334744449E+03  0.00000000000E+00 0.  1.
         21    1    1    2  504  503  0.20013503771E+02 -0.59663579830E+02 -0.13754976721E+03  0.15126209555E+03  0.00000000000E+00 0.  1.
         21    1    1    2  505  504 -0.13157586874E+03  0.39635474380E+02 -0.31414622551E+03  0.34288632383E+03  0.00000000000E+00 0.  1.
          2    1    1    2  501    0  0.12454332447E+03  0.78970877568E+02 -0.98139305872E+03  0.99241109168E+03  0.00000000000E+00 0. -1.
<scales pt_clust_3="35.65518" pt_clust_4="124.26771" pt_clust_5="134.63161" pt_clust_6="14000.00000"></scales>
<clustering>
<clus scale="   35.655">  3  4 -1 -1</clus>
<clus scale="  124.268">  1  3  2 -1</clus>
<clus scale="  134.632">  1  5  2 -1</clus>
<clus scale="  124.268">  1  3  2 -1</clus>
</clustering>
</event>
<event>
 6    0  0.4945982E+002  0.1045101E+03  0.7546771E-02  0.1271088E+00
          2   -1    0    0  505    0 -0.00000000000E+00  0.00000000000E+00  0.14456616078E+04  0.14456616078E+04  0.00000000000E+00 0. -1.
         21   -1    0    0  501  502  0.00000000000E+00 -0.00000000000E+00 -0.36370876908E+02  0.36370876908E+02  0.00000000000E+00 0. -1.
         21    1    1    2  503  502  0.25177232367E+02  0.55217062823E+02  0.90671640287E+02  0.10910620243E+03  0.00000000000E+00 0. -1.
         21    1    1    2  504  503 -0.50503349193E+02 -0.11536398752E+02  0.56667042187E+02  0.76777799174E+02  0.00000000000E+00 0. -1.
         21    1    1    2  505  504 -0.48739603532E+02 -0.83624395211E+02  0.13529388494E+03  0.16635210767E+03  0.00000000000E+00 0. -1.
          2    1    1    2  501    0  0.74065720358E+02  0.39943731140E+02  0.11266581635E+04  0.11297963754E+04  0.00000000000E+00 0. -1.
<scales pt_clust_3="60.68622" pt_clust_4="42.39661" pt_clust_5="42.39661" pt_clust_6="86.97098"></scales>
<clustering>
<clus scale="   42.397">  4  5 -1 -1</clus>
<clus scale="   60.686">  2  3  1 -1</clus>
<clus scale="   86.971">  1  6  2 -1</clus>
<clus scale="   60.686">  2  3  1 -1</clus>
</clustering>
</event>
<event>
 6    0  0.4945982E+002  0.1071685E+03  0.7546771E-02  0.1265905E+00
         21   -1    0    0  504  502  0.00000000000E+00  0.00000000000E+00  0.45145827530E+02  0.45145827530E+02  0.00000000000E+00 0.  1.
          2   -1    0    0  505    0 -0.00000000000E+00 -0.00000000000E+00 -0.43981769025E+04  0.43981769025E+04  0.00000000000E+00 0. -1.
         21    1    1    2  503  501 -0.55468856432E+02 -0.97743020329E+02 -0.37242275027E+03  0.38901053582E+03  0.00000000000E+00 0.  1.
         21    1    1    2  504  503 -0.59032792892E+02  0.75260729682E+02 -0.32785533152E+02  0.10111349689E+03  0.00000000000E+00 0.  1.
         21    1    1    2  505  502  0.27853652367E+02 -0.36107820408E+02 -0.26530629582E+03  0.26919701195E+03  0.00000000000E+00 0. -1.
          2    1    1    2  501    0  0.86647996957E+02  0.58590111055E+02 -0.36825164958E+04  0.36840016854E+04  0.00000000000E+00 0. -1.
<scales pt_clust_3="14000.00000" pt_clust_4="94.91160" pt_clust_5="45.60264" pt_clust_6="107.16851"></scales>
<clustering>
<clus scale="   45.603">  2  5  1 -1</clus>
<clus scale="   94.912">  1  4  2 -1</clus>
<clus scale="  107.169">  2  6  1 -1</clus>
<clus scale="   94.912">  1  3  2 -1</clus>
</clustering>
</event>
<event>
 6    0  0.4945982E+002  0.1220714E+03  0.7546771E-02  0.1239719E+00
         21   -1    0    0  503  502  0.00000000000E+00  0.00000000000E+00  0.17788430638E+04  0.17788430638E+04  0.00000000000E+00 0. -1.
          2   -1    0    0  505    0 -0.00000000000E+00 -0.00000000000E+00 -0.66031653751E+03  0.66031653751E+03  0.00000000000E+00 0.  1.
         21    1    1    2  503  504  0.10535354865E+03  0.63066949890E+02  0.17042639818E+04  0.17086815181E+04  0.00000000000E+00 0. -1.
         21    1    1    2  504  501  0.63944008816E+02 -0.12416686597E+03 -0.25971928489E+03  0.29489040983E+03  0.00000000000E+00 0. -1.
         21    1    1    2  505  502 -0.12225748877E+03  0.14596958007E+02 -0.22775390885E+02  0.12521454857E+03  0.00000000000E+00 0.  1.
          2    1    1    2  501    0 -0.47040068698E+02  0.46502958071E+02 -0.30324277974E+03  0.31037312487E+03  0.00000000000E+00 0.  1.
<scales pt_clust_3="122.07136" pt_clust_4="91.76391" pt_clust_5="14000.00000" pt_clust_6="66.14600"></scales>
<clustering>
<clus scale="   66.146">  2  6  1 -1</clus>
<clus scale="   91.764">  2  4  1 -1</clus>
<clus scale="  122.071">  1  3  2 -1</clus>
<clus scale="  122.071">  1  3  2 -1</clus>
</clustering>
</event>
<event>
 6    0  0.4945982E+002  0.9429048E+02  0.7546771E-02  0.1292782E+00
          1   -1    0    0  503    0 -0.00000000000E+00  0.00000000000E+00  0.67331334214E+03  0.67331334214E+03  0.00000000000E+00 0. -1.
         21   -1    0    0  505  502  0.00000000000E+00 -0.00000000000E+00 -0.12695994876E+04  0.12695994876E+04  0.00000000000E+00 0.  1.
         21    1    1    2  503  502 -0.73410333837E+02 -0.19898191535E+02 -0.17172806037E+03  0.18781784223E+03  0.00000000000E+00 0.  1.
         21    1    1    2  504  501 -0.39653444049E+02  0.70172048159E+02 -0.35524533019E+03  0.36427428758E+03  0.00000000000E+00 0.  1.
         21    1    1    2  505  504  0.10372763913E+03 -0.28312070463E+01 -0.72548553376E+03  0.73286881401E+03  0.00000000000E+00 0.  1.
          1    1    1    2  501    0  0.93361387545E+01 -0.47442649577E+02  0.65617277886E+03  0.65795188593E+03  0.00000000000E+00 0. -1.
<scales pt_clust_3="94.29048" pt_clust_4="67.98232" pt_clust_5="14000.00000" pt_clust_6="48.35254"></scales>
<clustering>
<clus scale="   48.353">  1  6  2 -1</clus>
<clus scale="   67.982">  1  4  2 -1</clus>
<clus scale="   94.290">  1  3  2 -1</clus>
<clus scale="   94.290">  2  3  1 -1</clus>
</clustering>
</event>
<event>
 6    0  0.4992112E+002  0.1652982E+03  0.7546771E-02  0.1182842E+00
         -3   -1    0    0    0  501 -0.00000000000E+00  0.00000000000E+00  0.76853137756E+03  0.76853137756E+03  0.00000000000E+00 0.  1.
         21   -1    0    0  503  502  0.00000000000E+00 -0.00000000000E+00 -0.10081409487E+04  0.10081409487E+04  0.00000000000E+00 0.  1.
         21    1    1    2  503  501 -0.88816829854E+01 -0.30780668257E+02 -0.29562276714E+01  0.32172552169E+02  0.00000000000E+00 0.  1.
         21    1    1    2  504  505  0.65495249309E+02  0.14991564449E+03 -0.81355572355E+03  0.82984169783E+03  0.00000000000E+00 0.  1.
         21    1    1    2  505  502 -0.29778639401E+02  0.12069923364E+02 -0.16126799505E+03  0.16443788080E+03  0.00000000000E+00 0. -1.
         -3    1    1    2    0  504 -0.26834926923E+02 -0.13120489960E+03  0.73817037512E+03  0.75022019547E+03  0.00000000000E+00 0.  1.
<scales pt_clust_3="32.03645" pt_clust_4="165.29820" pt_clust_5="32.12483" pt_clust_6="14000.00000"></scales>
<clustering>
<clus scale="   32.036">  1  3  2 -1</clus>
<clus scale="   32.125">  2  5  1 -1</clus>
<clus scale="  165.298">  2  4  1 -1</clus>
<clus scale="   32.125">  2  3  1 -1</clus>
</clustering>
</event>
<event>
 6    0  0.4945982E+002  0.1097331E+03  0.7546771E-02  0.1261065E+00
          4   -1    0    0  503    0 -0.00000000000E+00  0.00000000000E+00  0.10531326152E+04  0.10531326152E+04  0.00000000000E+00 0.  1.
         21   -1    0    0  505  502  0.00000000000E+00 -0.00000000000E+00 -0.18175877086E+02  0.18175877086E+02  0.00000000000E+00 0.  1.
         21    1    1    2  503  504  0.14685759176E+02  0.83058388043E+02  0.47491786519E+03  0.48234981707E+03  0.00000000000E+00 0.  1.
         21    1    1    2  504  502  0.38244530228E+02  0.27245050370E+02  0.13242271623E+03  0.14050164638E+03  0.00000000000E+00 0.  1.
         21    1    1    2  505  501 -0.39172214967E+01 -0.43657940582E+02  0.80941925497E+02  0.92048659433E+02  0.00000000000E+00 0.  1.
          4    1    1    2  501    0 -0.49013067907E+02 -0.66645497830E+02  0.34667423116E+03  0.35640836937E+03  0.00000000000E+00 0.  1.
<scales pt_clust_3="93.55049" pt_clust_4="46.95676" pt_clust_5="41.74958" pt_clust_6="41.74958"></scales>
<clustering>
<clus scale="   41.750">  5  6 -1 -1</clus>
<clus scale="   46.957">  2  4  1 -1</clus>
<clus scale="   93.550">  1  3  2 -1</clus>
<clus scale="   46.957">  2  3  1 -1</clus>
</clustering>
</event>
<event>
 6    0  0.4945982E+002  0.1248277E+03  0.7546771E-02  0.1235339E+00
          2   -1    0    0  502    0 -0.00000000000E+00  0.00000000000E+00  0.20619098275E+04  0.20619098275E+04  0.00000000000E+00 0.  1.
         21   -1    0    0  504  502  0.00000000000E+00 -0.00000000000E+00 -0.73147703166E+02  0.73147703166E+02  0.00000000000E+00 0. -1.
         21    1    1    2  503  505 -0.49175087363E+02 -0.38797354348E+01  0.26792320492E+02  0.56134392324E+02  0.00000000000E+00 0. -1.
         21    1    1    2  504  503 -0.46099247401E+02  0.88799592298E+01 -0.37472696457E+02  0.60068271713E+02  0.00000000000E+00 0. -1.
         21    1    1    2  505  501 -0.21698047836E+02  0.27648903345E+02  0.31584320301E+02  0.47252898588E+02  0.00000000000E+00 0. -1.
          2    1    1    2  501    0  0.11697238260E+03 -0.32649127140E+02  0.19678581800E+04  0.19716019680E+04  0.00000000000E+00 0.  1.
<scales pt_clust_3="34.73269" pt_clust_4="46.94672" pt_clust_5="34.73269" pt_clust_6="117.85089"></scales>
<clustering>
<clus scale="   34.733">  3  5 -1 -1</clus>
<clus scale="   46.947">  2  4  1 -1</clus>
<clus scale="  117.851">  1  6  2 -1</clus>
<clus scale="   46.947">  2  3  1 -1</clus>
</clustering>
</event>
<event>
 6    0  0.4945982E+002  0.1125505E+03  0.7546771E-02  0.1255918E+00
          2   -1    0    0  503    0 -0.00000000000E+00  0.00000000000E+00  0.14138484029E+03  0.14138484029E+03  0.00000000000E+00 0.  1.
         21   -1    0    0  504  502  0.00000000000E+00 -0.00000000000E+00 -0.43756213897E+03  0.43756213897E+03  0.00000000000E+00 0. -1.
         21    1    1    2  503  502  0.37495763298E+00 -0.11859848380E+03 -0.16859142189E+03  0.20612813609E+03  0.00000000000E+00 0. -1.
         21    1    1    2  504  505  0.42298101992E+02  0.40688930172E+02 -0.83990239277E+02  0.10246501239E+03  0.00000000000E+00 0.  1.
         21    1    1    2  505  501 -0.66234667638E+02  0.10789984962E+03 -0.12657656609E+03  0.17902803084E+03  0.00000000000E+00 0. -1.
          2    1    1    2  501    0  0.23561608013E+02 -0.29990295993E+02  0.82980928576E+02  0.91325799932E+02  0.00000000000E+00 0.  1.
<scales pt_clust_3="112.55047" pt_clust_4="58.40142" pt_clust_5="14000.00000" pt_clust_6="38.13879"></scales>
<clustering>
<clus scale="   38.139">  1  6  2 -1</clus>
<clus scale="   58.401">  2  4  1 -1</clus>
<clus scale="  112.550">  2  3  1 -1</clus>
<clus scale="   58.401">  2  3  1 -1</clus>
</clustering>
</event>
<event>
 6    0  0.4945982E+002  0.1629921E+03  0.7546771E-02  0.1185360E+00
         21   -1    0    0  504  502  0.00000000000E+00  0.00000000000E+00  0.13462491123E+03  0.13462491123E+03  0.00000000000E+00 0. -1.
          2   -1    0    0  505    0 -0.00000000000E+00 -0.00000000000E+00 -0.23180396713E+04  0.23180396713E+04  0.00000000000E+00 0.  1.
         21    1    1    2  503  501  0.53130434217E+02 -0.43809553506E+02  0.52815887890E+01  0.69065296630E+02  0.00000000000E+00 0.  1.
         21    1    1    2  504  503  0.35546875439E+02 -0.11085143698E+03  0.41661697156E+02  0.12364189599E+03  0.00000000000E+00 0. -1.
         21    1    1    2  505  502  0.10130813334E+02  0.38449683984E+02 -0.20304989286E+02  0.44646435100E+02  0.00000000000E+00 0.  1.
          2    1    1    2  501    0 -0.98808122989E+02  0.11621130650E+03 -0.22100530567E+04  0.22153109548E+04  0.00000000000E+00 0.  1.
<scales pt_clust_3="46.35060" pt_clust_4="46.35060" pt_clust_5="39.76194" pt_clust_6="153.02849"></scales>
<clustering>
<clus scale="   39.762">  1  5  2 -1</clus>
<clus scale="   46.351">  3  4 -1 -1</clus>
<clus scale="  153.028">  2  6  1 -1</clus>
<clus scale="   39.762">  1  3  2 -1</clus>
</clustering>
</event>
<event>
 6    0  0.4945982E+002  0.1279837E+03  0.7546771E-02  0.1230479E+00
          2   -1    0    0  503    0 -0.00000000000E+00  0.00000000000E+00  0.13160571192E+04  0.13160571192E+04  0.00000000000E+00 0.  1.
         21   -1    0    0  505  502  0.00000000000E+00 -0.00000000000E+00 -0.17174978484E+03  0.17174978484E+03  0.00000000000E+00 0.  1.
         21    1    1    2  503  504  0.24859032437E+02  0.25104445071E+02  0.79156135074E+02  0.86682745549E+02  0.00000000000E+00 0.  1.
         21    1    1    2  504  502  0.91335006099E+02 -0.13435840794E+03  0.71644873649E+03  0.73463804499E+03  0.00000000000E+00 0.  1.
         21    1    1    2  505  501 -0.35429019001E+02  0.42242167064E+02 -0.14846068404E+03  0.15836726547E+03  0.00000000000E+00 0.  1.
          2    1    1    2  501    0 -0.80765019535E+02  0.67011795801E+02  0.49716314685E+03  0.50811884805E+03  0.00000000000E+00 0.  1.
<scales pt_clust_3="35.32994" pt_clust_4="14000.00000" pt_clust_5="55.14599" pt_clust_6="127.98372"></scales>
<clustering>
<clus scale="   35.330">  1  3  2 -1</clus>
<clus scale="   55.146">  2  5  1 -1</clus>
<clus scale="  127.984">  1  6  2 -1</clus>
<clus scale="   55.146">  2  3  1 -1</clus>
</clustering>
</event>
<event>
 6    0  0.4945982E+002  0.1435199E+03  0.7546771E-02  0.1208670E+00
         21   -1    0    0  504  502  0.00000000000E+00  0.00000000000E+00  0.17828426913E+03  0.17828426913E+03  0.00000000000E+00 0.  1.
          1   -1    0    0  505    0 -0.00000000000E+00 -0.00000000000E+00 -0.37165454807E+03  0.37165454807E+03  0.00000000000E+00 0. -1.
         21    1    1    2  503  502 -0.42769585004E+02  0.21389621530E+02  0.53470535273E+02  0.71734590352E+02  0.00000000000E+00 0.  1.
         21    1    1    2  504  501  0.33627784055E+02  0.49788259629E+02  0.26251378834E+02  0.65565490527E+02  0.00000000000E+00 0.  1.
         21    1    1    2  505  503 -0.96805543525E+02  0.56504847947E+00  0.14481209276E+02  0.97884309054E+02  0.00000000000E+00 0.  1.
          1    1    1    2  501    0  0.10594734447E+03 -0.71742929639E+02 -0.28757340232E+03  0.31475442726E+03  0.00000000000E+00 0. -1.
<scales pt_clust_3="45.49391" pt_clust_4="60.08077" pt_clust_5="45.49391" pt_clust_6="128.09391"></scales>
<clustering>
<clus scale="   45.494">  3  5 -1 -1</clus>
<clus scale="   60.081">  1  4  2 -1</clus>
<clus scale="  128.094">  2  6  1 -1</clus>
<clus scale="   60.081">  1  3  2 -1</clus>
</clustering>
</event>
<event>
 6    0  0.4945982E+002  0.1286470E+03  0.7546771E-02  0.1229477E+00
          2   -1    0    0  505    0 -0.00000000000E+00  0.00000000000E+00  0.33043978632E+04  0.33043978632E+04  0.00000000000E+00 0. -1.
         21   -1    0    0  503  502  0.00000000000E+00 -0.00000000000E+00 -0.28168517528E+02  0.28168517528E+02  0.00000000000E+00 0.  1.
         21    1    1    2  503  501 -0.16462605122E+02 -0.25170756092E+02  0.74058428577E+01  0.30974680596E+02  0.00000000000E+00 0.  1.
         21    1    1    2  504  502  0.94725034172E+02 -0.53127708842E+02  0.46163891987E+03  0.47424242523E+03  0.00000000000E+00 0.  1.
         21    1    1    2  505  504 -0.76831829618E+02 -0.65602397425E+02  0.31054094215E+03  0.32656160421E+03  0.00000000000E+00 0.  1.
          2    1    1    2  501    0 -0.14305994325E+01  0.14390086236E+03  0.24966436408E+04  0.25007876707E+04  0.00000000000E+00 0. -1.
<scales pt_clust_3="30.07631" pt_clust_4="108.43576" pt_clust_5="128.64703" pt_clust_6="14000.00000"></scales>
<clustering>
<clus scale="   30.076">  2  3  1 -1</clus>
<clus scale="  108.436">  2  4  1 -1</clus>
<clus scale="  128.647">  2  5  1 -1</clus>
<clus scale="   30.076">  2  3  1 -1</clus>
</clustering>
</event>
<event>
 6    0  0.4945982E+002  0.8804902E+02  0.7546771E-02  0.1307646E+00
         -4   -1    0    0    0  501 -0.00000000000E+00  0.00000000000E+00  0.37740060962E+03  0.37740060962E+03  0.00000000000E+00 0. -1.
         21   -1    0    0  504  502  0.00000000000E+00 -0.00000000000E+00 -0.40600374499E+03  0.40600374499E+03  0.00000000000E+00 0. -1.
         21    1    1    2  503  502  0.14224714944E+02  0.32157278848E+02 -0.98493671232E+02  0.10458219911E+03  0.00000000000E+00 0.  1.
         21    1    1    2  504  501 -0.10231868020E+03  0.53395231492E+02 -0.20775988993E+03  0.23766433247E+03  0.00000000000E+00 0. -1.
         21    1    1    2  505  503  0.34750499823E+02 -0.58434364072E+02 -0.64559322972E+02  0.93755417577E+02  0.00000000000E+00 0. -1.
         -4    1    1    2    0  505  0.53343465429E+02 -0.27118146268E+02  0.34220974876E+03  0.34740240545E+03  0.00000000000E+00 0. -1.
<scales pt_clust_3="35.16295" pt_clust_4="88.04902" pt_clust_5="14000.00000" pt_clust_6="59.82539"></scales>
<clustering>
<clus scale="   35.163">  2  3  1 -1</clus>
<clus scale="   59.825">  1  6  2 -1</clus>
<clus scale="   88.049">  1  4  2 -1</clus>
<clus scale="   35.163">  2  3  1 -1</clus>
</clustering>
</event>
<event>
 6    0  0.4945982E+002  0.1109691E+03  0.7546771E-02  0.1258786E+00
          1   -1    0    0  505    0 -0.00000000000E+00  0.00000000000E+00  0.58789704188E+03  0.58789704188E+03  0.00000000000E+00 0. -1.
         21   -1    0    0  504  502  0.00000000000E+00 -0.00000000000E+00 -0.79753447146E+03  0.79753447146E+03  0.00000000000E+00 0. -1.
         21    1    1    2  503  502  0.83300839312E+01 -0.33051349280E+02 -0.29194307143E+03  0.29392607734E+03  0.00000000000E+00 0. -1.
         21    1    1    2  504  501  0.82347981800E+01  0.73265669918E+02 -0.35559529008E+03  0.36315792793E+03  0.00000000000E+00 0. -1.
         21    1    1    2  505  503  0.84296040890E+02  0.89353855472E+01 -0.12684585474E+03  0.15256321473E+03  0.00000000000E+00 0. -1.
          1    1    1    2  501    0 -0.10086092300E+03 -0.49149706185E+02  0.56474678666E+03  0.57578429334E+03  0.00000000000E+00 0. -1.
<scales pt_clust_3="34.08492" pt_clust_4="51.70531" pt_clust_5="110.96912" pt_clust_6="14000.00000"></scales>
<clustering>
<clus scale="   34.085">  2  3  1 -1</clus>
<clus scale="   51.705">  2  4  1 -1</clus>
<clus scale="  110.969">  2  5  1 -1</clus>
<clus scale="   34.085">  2  3  1 -1</clus>
</clustering>
</event>
<event>
 6    0  0.4945982E+002  0.1453370E+03  0.7546771E-02  0.1206323E+00
         21   -1    0    0  503  502  0.00000000000E+00  0.00000000000E+00  0.53444680326E+03  0.53444680326E+03  0.00000000000E+00 0. -1.
          2   -1    0    0  504    0 -0.00000000000E+00 -0.00000000000E+00 -0.33102627176E+04  0.33102627176E+04  0.00000000000E+00 0.  1.
         21    1    1    2  503  501 -0.94242364884E+02  0.21729770541E+02 -0.19258617503E+04  0.19282886941E+04  0.00000000000E+00 0.  1.
         21    1    1    2  504  505  0.11530841415E+03 -0.55181570503E+01  0.10424719103E+03  0.15554406858E+03  0.00000000000E+00 0.  1.
         21    1    1    2  505  502  0.12086170981E+02 -0.49169203259E+02  0.40134416347E+03  0.40452543014E+03  0.00000000000E+00 0. -1.
          2    1    1    2  501    0 -0.33152220250E+02  0.32957589769E+02 -0.13555455185E+04  0.13563513280E+04  0.00000000000E+00 0.  1.
<scales pt_clust_3="31.14080" pt_clust_4="138.26254" pt_clust_5="50.63286" pt_clust_6="31.14080"></scales>
<clustering>
<clus scale="   31.141">  3  6 -1 -1</clus>
<clus scale="   50.633">  1  5  2 -1</clus>
<clus scale="  138.263">  1  4  2 -1</clus>
<clus scale="   50.633">  1  3  2 -1</clus>
</clustering>
</event>
<event>
 6    0  0.4945982E+002  0.1505398E+03  0.7546771E-02  0.1199811E+00
          2   -1    0    0  504    0 -0.00000000000E+00  0.00000000000E+00  0.16081537739E+04  0.16081537739E+04  0.00000000000E+00 0.  1.
         21   -1    0    0  503  502  0.00000000000E+00 -0.00000000000E+00 -0.13505486994E+03  0.13505486994E+03  0.00000000000E+00 0. -1.
         21    1    1    2  503  505  0.69525424710E+02 -0.14267060610E+03 -0.61180441503E+02  0.17009330660E+03  0.00000000000E+00 0. -1.
         21    1    1    2  504  502  0.39822944889E+02  0.86454061757E+02  0.58773653828E+03  0.59539433166E+03  0.00000000000E+00 0.  1.
         21    1    1    2  505  501 -0.10705338300E+03  0.17304966130E+02  0.17968222177E+03  0.20987041117E+03  0.00000000000E+00 0. -1.
          2    1    1    2  501    0 -0.22949865985E+01  0.38911578216E+02  0.76686058545E+03  0.76785059446E+03  0.00000000000E+00 0.  1.
<scales pt_clust_3="14000.00000" pt_clust_4="150.53980" pt_clust_5="110.75754" pt_clust_6="38.97920"></scales>
<clustering>
<clus scale="   38.979">  1  6  2 -1</clus>
<clus scale="  110.758">  1  5  2 -1</clus>
<clus scale="  150.540">  1  4  2 -1</clus>
<clus scale="  150.540">  2  3  1 -1</clus>
</clustering>
</event>
<event>
 6    0  0.4945982E+002  0.1547394E+03  0.7546771E-02  0.1194767E+00
          2   -1    0    0  504    0 -0.00000000000E+00  0.00000000000E+00  0.23666482456E+04  0.23666482456E+04  0.00000000000E+00 0.  1.
         21   -1    0    0  503  502  0.00000000000E+00 -0.00000000000E+00 -0.11906261152E+04  0.11906261152E+04  0.00000000000E+00 0. -1.
         21    1    1    2  503  501 -0.50316540612E+02 -0.13193960385E+03 -0.84227420054E+03  0.85402906404E+03  0.00000000000E+00 0. -1.
         21    1    1    2  504  505  0.11052361841E+02  0.36970774429E+02 -0.37301161929E+02  0.53669074386E+02  0.00000000000E+00 0. -1.
         21    1    1    2  505  502  0.73151461653E+02  0.85412042150E+02 -0.28620682452E+03  0.30750723518E+03  0.00000000000E+00 0. -1.
          2    1    1    2  501    0 -0.33887282882E+02  0.95567872689E+01  0.23418043173E+04  0.23420689872E+04  0.00000000000E+00 0.  1.
<scales pt_clust_3="142.20135" pt_clust_4="37.37480" pt_clust_5="37.37480" pt_clust_6="35.20909"></scales>
<clustering>
<clus scale="   35.209">  1  6  2 -1</clus>
<clus scale="   37.375">  4  5 -1 -1</clus>
<clus scale="  142.201">  2  3  1 -1</clus>
<clus scale="  142.201">  2  3  1 -1</clus>
</clustering>
</event>
<event>
 6    0  0.4945982E+002  0.1412849E+03  0.7546771E-02  0.1211610E+00
          2   -1    0    0  502    0 -0.00000000000E+00  0.00000000000E+00  0.11430578986E+03  0.11430578986E+03  0.00000000000E+00 0. -1.
         21   -1    0    0  504  502  0.00000000000E+00 -0.00000000000E+00 -0.11106976715E+04  0.11106976715E+04  0.00000000000E+00 0. -1.
         21    1    1    2  503  501 -0.54290606317E+02 -0.56237719192E+02 -0.51408871797E+02  0.93557592389E+02  0.00000000000E+00 0. -1.
         21    1    1    2  504  505  0.53438866033E+02  0.98370570124E+02 -0.85010947975E+03  0.85744889587E+03  0.00000000000E+00 0. -1.
         21    1    1    2  505  503  0.35967395404E+02  0.12871406166E+02 -0.17014215666E+03  0.17437798055E+03  0.00000000000E+00 0. -1.
          2    1    1    2  501    0 -0.35115655121E+02 -0.55004257097E+02  0.75268626565E+02  0.99618992558E+02  0.00000000000E+00 0. -1.
<scales pt_clust_3="128.74932" pt_clust_4="33.98686" pt_clust_5="33.98686" pt_clust_6="65.25778"></scales>
<clustering>
<clus scale="   33.987">  4  5 -1 -1</clus>
<clus scale="   65.258">  1  6  2 -1</clus>
<clus scale="  128.749">  1  3  2 -1</clus>
<clus scale="  141.285">  2  3  1 -1</clus>
</clustering>
</event>
<event>
 6    0  0.4945982E+002  0.1386622E+03  0.7546771E-02  0.1215141E+00
         21   -1    0    0  505  502  0.00000000000E+00  0.00000000000E+00  0.13066462330E+04  0.13066462330E+04  0.00000000000E+00 0. -1.
          2   -1    0    0  502    0 -0.00000000000E+00 -0.00000000000E+00 -0.12364364037E+04  0.12364364037E+04  0.00000000000E+00 0.  1.
         21    1    1    2  503  501 -0.85768685322E+02 -0.28559248191E+02  0.27512194125E+03  0.28959278409E+03  0.00000000000E+00 0. -1.
         21    1    1    2  504  503 -0.75355573667E+02  0.36208018078E+01  0.17466123032E+03  0.19025803022E+03  0.00000000000E+00 0. -1.
         21    1    1    2  505  504  0.12320611346E+03  0.18660513712E+02  0.83691269870E+03  0.84613877491E+03  0.00000000000E+00 0. -1.
          2    1    1    2  501    0  0.37918145528E+02  0.62779326713E+01 -0.12164860410E+04  0.12170930474E+04  0.00000000000E+00 0.  1.
<scales pt_clust_3="33.80034" pt_clust_4="33.80034" pt_clust_5="133.63474" pt_clust_6="38.43434"></scales>
<clustering>
<clus scale="   33.800">  3  4 -1 -1</clus>
<clus scale="   38.434">  2  6  1 -1</clus>
<clus scale="  133.635">  1  5  2 -1</clus>
<clus scale="  133.635">  1  3  2 -1</clus>
</clustering>
</event>
<event>
 6    0  0.4945982E+002  0.1090862E+03  0.7546771E-02  0.1262271E+00
          2   -1    0    0  504    0 -0.00000000000E+00  0.00000000000E+00  0.67121100736E+03  0.67121100736E+03  0.00000000000E+00 0.  1.
         21   -1    0    0  501  502  0.00000000000E+00 -0.00000000000E+00 -0.27420697908E+03  0.27420697908E+03  0.00000000000E+00 0.  1.
         21    1    1    2  503  502 -0.77092604148E+00  0.91228083236E+02 -0.24583133815E+03  0.26221404294E+03  0.00000000000E+00 0.  1.
         21    1    1    2  504  505  0.14001927821E+02 -0.65331360241E+02  0.20863276078E+03  0.21907046694E+03  0.00000000000E+00 0.  1.
         21    1    1    2  505  503  0.32598725964E+02 -0.64775274899E+02  0.94296755580E+02  0.11895541722E+03  0.00000000000E+00 0. -1.
          2    1    1    2  501    0 -0.45829727744E+02  0.38878551905E+02  0.33990585007E+03  0.34517805935E+03  0.00000000000E+00 0.  1.
<scales pt_clust_3="92.21689" pt_clust_4="55.93651" pt_clust_5="55.93651" pt_clust_6="60.09913"></scales>
<clustering>
<clus scale="   55.937">  4  5 -1 -1</clus>
<clus scale="   60.099">  1  6  2 -1</clus>
<clus scale="   92.217">  2  3  1 -1</clus>
<clus scale="   92.217">  2  3  1 -1</clus>
</clustering>
</event>
<event>
 6    0  0.4945982E+002  0.1561743E+03  0.7546771E-02  0.1193085E+00
         21   -1    0    0  504  502  0.00000000000E+00  0.00000000000E+00  0.19094043390E+03  0.19094043390E+03  0.00000000000E+00 0. -1.
         -1   -1    0    0    0  501 -0.00000000000E+00 -0.00000000000E+00 -0.18446711656E+03  0.18446711656E+03  0.00000000000E+00 0. -1.
         21    1    1    2  503  505 -0.44417359163E+02  0.67415118063E+02  0.12899003469E+02  0.81756248869E+02  0.00000000000E+00 0. -1.
         21    1    1    2  504  501  0.19407208926E+02 -0.14071043116E+03  0.59696102049E+02  0.15407689572E+03  0.00000000000E+00 0. -1.
         21    1    1    2  505  502 -0.57842876467E+01  0.81590799600E+02 -0.21227316296E+02  0.84505121265E+02  0.00000000000E+00 0. -1.
         -1    1    1    2    0  503  0.30794437884E+02 -0.82954865024E+01 -0.44894471885E+02  0.55069284603E+02  0.00000000000E+00 0. -1.
<scales pt_clust_3="52.09494" pt_clust_4="146.76475" pt_clust_5="52.09494" pt_clust_6="31.89220"></scales>
<clustering>
<clus scale="   31.892">  2  6  1 -1</clus>
<clus scale="   52.095">  3  5 -1 -1</clus>
<clus scale="  146.765">  1  4  2 -1</clus>
<clus scale="  146.765">  1  3  2 -1</clus>
</clustering>
</event>
<event>
 6    0  0.4945982E+002  0.7072013E+02  0.7546771E-02  0.1357661E+00
          1   -1    0    0  504    0 -0.00000000000E+00  0.00000000000E+00  0.62599659762E+03  0.62599659762E+03  0.00000000000E+00 0.  1.
         21   -1    0    0  503  502  0.00000000000E+00 -0.00000000000E+00 -0.13368892781E+04  0.13368892781E+04  0.00000000000E+00 0.  1.
         21    1    1    2  503  505  0.37107567523E+02 -0.25053131857E+02 -0.26655139208E+03  0.27028554457E+03  0.00000000000E+00 0.  1.
         21    1    1    2  504  502 -0.95148524739E+02  0.54286959102E+02 -0.92411966866E+03  0.93058985471E+03  0.00000000000E+00 0.  1.
         21    1    1    2  505  501  0.41038174285E+02 -0.56972252162E+02 -0.13192301249E+03  0.14944447293E+03  0.00000000000E+00 0. -1.
          1    1    1    2  501    0  0.17002782931E+02  0.27738424916E+02  0.61170139271E+03  0.61256600354E+03  0.00000000000E+00 0.  1.
<scales pt_clust_3="44.79500" pt_clust_4="70.72013" pt_clust_5="14000.00000" pt_clust_6="32.53483"></scales>
<clustering>
<clus scale="   32.535">  1  6  2 -1</clus>
<clus scale="   44.795">  2  3  1 -1</clus>
<clus scale="   70.720">  2  4  1 -1</clus>
<clus scale="   44.795">  2  3  1 -1</clus>
</clustering>
</event>
<event>
 6    0  0.4945982E+002  0.1036482E+03  0.7546771E-02  0.1272806E+00
         -1   -1    0    0    0  501 -0.00000000000E+00  0.00000000000E+00  0.42363954747E+03  0.42363954747E+03  0.00000000000E+00 0. -1.
         21   -1    0    0  503  502  0.00000000000E+00 -0.00000000000E+00 -0.19261424511E+03  0.19261424511E+03  0.00000000000E+00 0. -1.
         21    1    1    2  503  501 -0.10259147037E+03 -0.43892221425E+02 -0.12250824411E+03  0.16571000805E+03  0.00000000000E+00 0. -1.
         21    1    1    2  504  502  0.91343785319E+02 -0.28813781731E+02  0.40965768001E+02  0.10417348646E+03  0.00000000000E+00 0. -1.
         21    1    1    2  505  504  0.56905640771E+02  0.44033241004E+02  0.79836836755E+02  0.10747603811E+03  0.00000000000E+00 0. -1.
         -1    1    1    2    0  505 -0.45657955723E+02  0.28672762151E+02  0.23273094171E+03  0.23889425996E+03  0.00000000000E+00 0. -1.
<scales pt_clust_3="14000.00000" pt_clust_4="103.64817" pt_clust_5="67.58635" pt_clust_6="53.91453"></scales>
<clustering>
<clus scale="   53.915">  1  6  2 -1</clus>
<clus scale="   67.586">  1  5  2 -1</clus>
<clus scale="  103.648">  1  4  2 -1</clus>
<clus scale="  103.648">  2  3  1 -1</clus>
</clustering>
</event>
<event>
 6    0  0.4945982E+002  0.7814057E+02  0.7546771E-02  0.1334413E+00
         21   -1    0    0  504  502  0.00000000000E+00  0.00000000000E+00  0.24983737162E+03  0.24983737162E+03  0.00000000000E+00 0.  1.
         -2   -1    0    0    0  501 -0.00000000000E+00 -0.00000000000E+00 -0.12055352478E+03  0.12055352478E+03  0.00000000000E+00 0. -1.
         21    1    1    2  503  502  0.12572190587E+03  0.27785123197E+02  0.40727785766E+02  0.13504356045E+03  0.00000000000E+00 0.  1.
         21    1    1    2  504  505 -0.50571177530E+02 -0.48841330323E+02  0.11277781382E+03  0.13289753510E+03  0.00000000000E+00 0.  1.
         21    1    1    2  505  501 -0.25794891451E+02  0.33687128909E+02  0.65500670186E+01  0.42931369149E+02  0.00000000000E+00 0.  1.
         -2    1    1    2    0  503 -0.49355836889E+02 -0.12630921783E+02 -0.30771819762E+02  0.59518431696E+02  0.00000000000E+00 0. -1.
<scales pt_clust_3="78.14057" pt_clust_4="14000.00000" pt_clust_5="42.42875" pt_clust_6="60.77295"></scales>
<clustering>
<clus scale="   42.429">  2  5  1 -1</clus>
<clus scale="   60.773">  2  6  1 -1</clus>
<clus scale="   78.141">  2  3  1 -1</clus>
<clus scale="   78.141">  1  3  2 -1</clus>
</clustering>
</event>
<event>
 6    0  0.4945982E+002  0.1544796E+03  0.7546771E-02  0.1195074E+00
          2   -1    0    0  503    0 -0.00000000000E+00  0.00000000000E+00  0.10977862148E+03  0.10977862148E+03  0.00000000000E+00 0.  1.
         21   -1    0    0  501  502  0.00000000000E+00 -0.00000000000E+00 -0.37331822819E+03  0.37331822819E+03  0.00000000000E+00 0.  1.
         21    1    1    2  503  505 -0.66540710256E+02 -0.52857203704E+02  0.73025351622E+01  0.85292890234E+02  0.00000000000E+00 0.  1.
         21    1    1    2  504  502  0.14688531528E+03  0.29425695896E+02 -0.14865252845E+03  0.21104203761E+03  0.00000000000E+00 0.  1.
         21    1    1    2  505  504 -0.59014959220E+02 -0.35235900929E+02 -0.29010970517E+02  0.74605432351E+02  0.00000000000E+00 0.  1.
          2    1    1    2  501    0 -0.21329645808E+02  0.58667408736E+02 -0.93178642907E+02  0.11215648948E+03  0.00000000000E+00 0.  1.
<scales pt_clust_3="35.65316" pt_clust_4="149.30628" pt_clust_5="35.65316" pt_clust_6="62.42450"></scales>
<clustering>
<clus scale="   35.653">  3  5 -1 -1</clus>
<clus scale="   62.425">  2  6  1 -1</clus>
<clus scale="  149.306">  2  4  1 -1</clus>
<clus scale="   62.425">  2  3  1 -1</clus>
</clustering>
</event>
<event>
 6    0  0.4945982E+002  0.1776696E+03  0.7546771E-02  0.1170078E+00
          1   -1    0    0  505    0 -0.00000000000E+00  0.00000000000E+00  0.19705128128E+03  0.19705128128E+03  0.00000000000E+00 0. -1.
         21   -1    0    0  504  502  0.00000000000E+00 -0.00000000000E+00 -0.48406328555E+03  0.48406328555E+03  0.00000000000E+00 0.  1.
         21    1    1    2  503  501  0.57598388913E+02  0.10446315460E+03  0.89837952694E+02  0.14933513591E+03  0.00000000000E+00 0. -1.
         21    1    1    2  504  503  0.10974098071E+02 -0.40296681280E+02 -0.21786705611E+03  0.22183396379E+03  0.00000000000E+00 0.  1.
         21    1    1    2  505  502 -0.47074457327E+02 -0.12449331989E+03 -0.19528616781E+03  0.23632875104E+03  0.00000000000E+00 0. -1.
          1    1    1    2  501    0 -0.21498029657E+02  0.60326846574E+02  0.36303266961E+02  0.73616716096E+02  0.00000000000E+00 0. -1.
<scales pt_clust_3="53.03022" pt_clust_4="41.76426" pt_clust_5="161.95534" pt_clust_6="53.03022"></scales>
<clustering>
<clus scale="   41.764">  2  4  1 -1</clus>
<clus scale="   53.030">  3  6 -1 -1</clus>
<clus scale="  161.955">  2  5  1 -1</clus>
<clus scale="   41.764">  2  3  1 -1</clus>
</clustering>
</event>
<event>
 6    0  0.4945982E+002  0.1723148E+03  0.7546771E-02  0.1175455E+00
         21   -1    0    0  503  502  0.00000000000E+00  0.00000000000E+00  0.90941717710E+02  0.90941717710E+02  0.00000000000E+00 0.  1.
          1   -1    0    0  502    0 -0.00000000000E+00 -0.00000000000E+00 -0.45172628052E+03  0.45172628052E+03  0.00000000000E+00 0. -1.
         21    1    1    2  503  505 -0.33379669341E+01  0.49964890194E+02  0.25363917383E+02  0.56133417679E+02  0.00000000000E+00 0.  1.
         21    1    1    2  504  501  0.25712953240E+02  0.43420951124E+02 -0.34703033971E+02  0.61244065245E+02  0.00000000000E+00 0.  1.
         21    1    1    2  505  504 -0.74799619407E+00  0.54688650789E+02 -0.14460692340E+02  0.56573135377E+02  0.00000000000E+00 0.  1.
          1    1    1    2  501    0 -0.21626990112E+02 -0.14807449211E+03 -0.33698475388E+03  0.36871737993E+03  0.00000000000E+00 0. -1.
<scales pt_clust_3="49.81159" pt_clust_4="33.48270" pt_clust_5="49.81159" pt_clust_6="149.64552"></scales>
<clustering>
<clus scale="   33.483">  4  5 -1 -1</clus>
<clus scale="   49.812">  3  4 -1 -1</clus>
<clus scale="  149.646">  2  6  1 -1</clus>
<clus scale="  172.315">  1  3  2 -1</clus>
</clustering>
</event>
<event>
 6    0  0.4945982E+002  0.7349520E+02  0.7546771E-02  0.1348595E+00
         21   -1    0    0  504  502  0.00000000000E+00  0.00000000000E+00  0.17928469641E+03  0.17928469641E+03  0.00000000000E+00 0.  1.
          1   -1    0    0  503    0 -0.00000000000E+00 -0.00000000000E+00 -0.55126614106E+03  0.55126614106E+03  0.00000000000E+00 0.  1.
         21    1    1    2  503  502 -0.11959363235E+02  0.70478251000E+02 -0.81187202495E+02  0.10817380497E+03  0.00000000000E+00 0.  1.
         21    1    1    2  504  505 -0.49843029421E+02  0.19686578113E+02  0.13629265891E+03  0.14644991571E+03  0.00000000000E+00 0.  1.
         21    1    1    2  505  501  0.91638521688E+02 -0.51939939728E+02 -0.99923820253E+02  0.14519003358E+03  0.00000000000E+00 0.  1.
          1    1    1    2  501    0 -0.29836129031E+02 -0.38224889384E+02 -0.32716308081E+03  0.33073708321E+03  0.00000000000E+00 0.  1.
<scales pt_clust_3="73.49520" pt_clust_4="53.91362" pt_clust_5="14000.00000" pt_clust_6="48.49058"></scales>
<clustering>
<clus scale="   48.491">  2  6  1 -1</clus>
<clus scale="   53.914">  1  4  2 -1</clus>
<clus scale="   73.495">  2  3  1 -1</clus>
<clus scale="   53.914">  1  3  2 -1</clus>
</clustering>
</event>
<event>
 6    0  0.4945982E+002  0.1794321E+03  0.7546771E-02  0.1168354E+00
         21   -1    0    0  503  502  0.00000000000E+00  0.00000000000E+00  0.86602667149E+02  0.86602667149E+02  0.00000000000E+00 0.  1.
          2   -1    0    0  505    0 -0.00000000000E+00 -0.00000000000E+00 -0.29892010044E+04  0.29892010044E+04  0.00000000000E+00 0.  1.
         21    1    1    2  503  504 -0.35825700316E+02  0.33978955817E+02  0.31048304887E+02  0.58327073284E+02  0.00000000000E+00 0.  1.
         21    1    1    2  504  501 -0.12901732129E+03  0.54731558036E+02 -0.10204436968E+03  0.17336108566E+03  0.00000000000E+00 0.  1.
         21    1    1    2  505  502 -0.73841748090E+01 -0.39211795551E+02 -0.11722980949E+03  0.12383424075E+03  0.00000000000E+00 0. -1.
          2    1    1    2  501    0  0.17222719642E+03 -0.49498718303E+02 -0.27143724630E+04  0.27202812719E+04  0.00000000000E+00 0.  1.
<scales pt_clust_3="49.27405" pt_clust_4="14000.00000" pt_clust_5="39.90101" pt_clust_6="179.43207"></scales>
<clustering>
<clus scale="   39.901">  2  5  1 -1</clus>
<clus scale="   49.274">  1  3  2 -1</clus>
<clus scale="  179.432">  2  6  1 -1</clus>
<clus scale="   49.274">  1  3  2 -1</clus>
</clustering>
</event>
<event>
 6    0  0.4945982E+002  0.3763643E+03  0.7546771E-02  0.1052286E+00
          2   -1    0    0  503    0 -0.00000000000E+00  0.00000000000E+00  0.18773766816E+04  0.18773766816E+04  0.00000000000E+00 0.  1.
         21   -1    0    0  505  502  0.00000000000E+00 -0.00000000000E+00 -0.82479273899E+03  0.82479273899E+03  0.00000000000E+00 0. -1.
         21    1    1    2  503  504 -0.18294592429E+03 -0.18195822978E+02  0.24412346027E+03  0.30560851271E+03  0.00000000000E+00 0. -1.
         21    1    1    2  504  502  0.35597382700E+03 -0.22698912677E+03 -0.35905069985E+03  0.55421912115E+03  0.00000000000E+00 0. -1.
         21    1    1    2  505  501 -0.85174170548E+01  0.68265148617E+02 -0.32408587768E+03  0.33130700720E+03  0.00000000000E+00 0. -1.
          2    1    1    2  501    0 -0.16451048565E+03  0.17691980113E+03  0.14915970598E+04  0.15110347795E+04  0.00000000000E+00 0.  1.
<scales pt_clust_3="184.00407" pt_clust_4="14000.00000" pt_clust_5="68.79445" pt_clust_6="376.36430"></scales>
<clustering>
<clus scale="   68.794">  2  5  1 -1</clus>
<clus scale="  184.004">  1  3  2 -1</clus>
<clus scale="  376.364">  1  6  2 -1</clus>
<clus scale="   68.794">  2  3  1 -1</clus>
</clustering>
</event>
<event>
 6    0  0.4945982E+002  0.1236495E+03  0.7546771E-02  0.1237195E+00
         21   -1    0    0  503  502  0.00000000000E+00  0.00000000000E+00  0.29278873129E+02  0.29278873129E+02  0.00000000000E+00 0. -1.
          2   -1    0    0  504    0 -0.00000000000E+00 -0.00000000000E+00 -0.15572814128E+04  0.15572814128E+04  0.00000000000E+00 0. -1.
         21    1    1    2  503  501  0.94989196585E+01 -0.47819624237E+02 -0.11058590472E+02  0.49992383020E+02  0.00000000000E+00 0. -1.
         21    1    1    2  504  505 -0.41963101149E+02  0.54628762136E+02 -0.67623902985E+03  0.67973850046E+03  0.00000000000E+00 0. -1.
         21    1    1    2  505  502 -0.34570015910E+02  0.60821571421E+02 -0.38005644906E+03  0.38644178607E+03  0.00000000000E+00 0. -1.
          2    1    1    2  501    0  0.67034197400E+02 -0.67630709320E+02 -0.46064847027E+03  0.47038761636E+03  0.00000000000E+00 0. -1.
<scales pt_clust_3="48.75393" pt_clust_4="42.03116" pt_clust_5="42.03116" pt_clust_6="116.16815"></scales>
<clustering>
<clus scale="   42.031">  4  5 -1 -1</clus>
<clus scale="   48.754">  1  3  2 -1</clus>
<clus scale="  116.168">  1  6  2 -1</clus>
<clus scale="   48.754">  1  3  2 -1</clus>
</clustering>
</event>
<event>
 6    0  0.4945982E+002  0.1993674E+03  0.7546771E-02  0.1150274E+00
         21   -1    0    0  505  502  0.00000000000E+00  0.00000000000E+00  0.11344328086E+03  0.11344328086E+03  0.00000000000E+00 0.  1.
          2   -1    0    0  503    0 -0.00000000000E+00 -0.00000000000E+00 -0.97547186304E+03  0.97547186304E+03  0.00000000000E+00 0. -1.
         21    1    1    2  503  502  0.38161100811E+02 -0.39499478763E+02  0.85098904083E+01  0.55577843359E+02  0.00000000000E+00 0.  1.
         21    1    1    2  504  501  0.36876009354E+02  0.14930028258E+03 -0.71816577450E+02  0.16972929989E+03  0.00000000000E+00 0.  1.
         21    1    1    2  505  504 -0.38627368003E+02  0.63997169364E+02 -0.40795925500E+02  0.85158785706E+02  0.00000000000E+00 0.  1.
          2    1    1    2  501    0 -0.36409742162E+02 -0.17379797318E+03 -0.75792596964E+03  0.77844921495E+03  0.00000000000E+00 0. -1.
<scales pt_clust_3="54.92248" pt_clust_4="54.22921" pt_clust_5="54.22921" pt_clust_6="181.54856"></scales>
<clustering>
<clus scale="   54.922">  1  3  2 -1</clus>
<clus scale="   54.229">  4  5 -1 -1</clus>
<clus scale="  181.549">  2  6  1 -1</clus>
<clus scale="   54.922">  1  3  2 -1</clus>
</clustering>
</event>
<event>
 6    0  0.4945982E+002  0.1207096E+03  0.7546771E-02  0.1241931E+00
         21   -1    0    0  505  502  0.00000000000E+00  0.00000000000E+00  0.59975995189E+02  0.59975995189E+02  0.00000000000E+00 0.  1.
          2   -1    0    0  502    0 -0.00000000000E+00 -0.00000000000E+00 -0.82499602486E+03  0.82499602486E+03  0.00000000000E+00 0.  1.
         21    1    1    2  503  501 -0.48712486214E+02  0.79721357361E+02 -0.14184244167E+03  0.16984604614E+03  0.00000000000E+00 0.  1.
         21    1    1    2  504  503  0.83445765195E+02 -0.18432657209E+02 -0.60209663274E+02  0.10453785024E+03  0.00000000000E+00 0.  1.
         21    1    1    2  505  504  0.27702170603E+02 -0.32903884991E+02  0.44628131350E+00  0.43014823847E+02  0.00000000000E+00 0.  1.
          2    1    1    2  501    0 -0.62435449583E+02 -0.28384815161E+02 -0.56341420604E+03  0.56757329982E+03  0.00000000000E+00 0.  1.
<scales pt_clust_3="106.58320" pt_clust_4="40.20046" pt_clust_5="40.20046" pt_clust_6="68.58486"></scales>
<clustering>
<clus scale="   40.200">  4  5 -1 -1</clus>
<clus scale="   68.585">  2  6  1 -1</clus>
<clus scale="  106.583">  2  3  1 -1</clus>
<clus scale="  120.710">  1  3  2 -1</clus>
</clustering>
</event>
<event>
 6    0  0.4945982E+002  0.4769857E+03  0.7546771E-02  0.1019967E+00
         21   -1    0    0  501  502  0.00000000000E+00  0.00000000000E+00  0.48870850229E+03  0.48870850229E+03  0.00000000000E+00 0.  1.
          3   -1    0    0  504    0 -0.00000000000E+00 -0.00000000000E+00 -0.16965157635E+04  0.16965157635E+04  0.00000000000E+00 0. -1.
         21    1    1    2  503  502 -0.22221026724E+02 -0.41293322884E+02  0.34922476319E+03  0.35235897572E+03  0.00000000000E+00 0.  1.
         21    1    1    2  504  505 -0.14314954780E+03  0.17928237191E+03 -0.34422145708E+03  0.41366940112E+03  0.00000000000E+00 0. -1.
         21    1    1    2  505  503 -0.18255151435E+03  0.17600242074E+03 -0.29770928232E+03  0.39106613799E+03  0.00000000000E+00 0. -1.
          3    1    1    2  501    0  0.34792208888E+03 -0.31399146976E+03 -0.91510128503E+03  0.10281297510E+04  0.00000000000E+00 0. -1.
<scales pt_clust_3="46.89256" pt_clust_4="53.82927" pt_clust_5="53.82927" pt_clust_6="473.60278"></scales>
<clustering>
<clus scale="   46.893">  1  3  2 -1</clus>
<clus scale="   53.829">  4  5 -1 -1</clus>
<clus scale="  473.603">  2  6  1 -1</clus>
<clus scale="   46.893">  1  3  2 -1</clus>
</clustering>
</event>
<event>
 6    0  0.4945982E+002  0.7705774E+02  0.7546771E-02  0.1337615E+00
          2   -1    0    0  503    0 -0.00000000000E+00  0.00000000000E+00  0.30662719415E+03  0.30662719415E+03  0.00000000000E+00 0.  1.
         21   -1    0    0  505  502  0.00000000000E+00 -0.00000000000E+00 -0.61608714981E+02  0.61608714981E+02  0.00000000000E+00 0.  1.
         21    1    1    2  503  504 -0.15611680709E+02 -0.36717972167E+02  0.44721243673E+02  0.59932659630E+02  0.00000000000E+00 0.  1.
         21    1    1    2  504  502  0.39026003135E+02  0.42900971806E+02  0.18035129104E+02  0.60735394824E+02  0.00000000000E+00 0.  1.
         21    1    1    2  505  501  0.52184067816E+02 -0.44587390428E+02  0.33594529807E+02  0.76418615219E+02  0.00000000000E+00 0.  1.
          2    1    1    2  501    0 -0.75598390243E+02  0.38404390788E+02  0.14866757658E+03  0.17114923946E+03  0.00000000000E+00 0.  1.
<scales pt_clust_3="39.89905" pt_clust_4="52.20202" pt_clust_5="14000.00000" pt_clust_6="77.05774"></scales>
<clustering>
<clus scale="   39.899">  1  3  2 -1</clus>
<clus scale="   52.202">  2  4  1 -1</clus>
<clus scale="   77.058">  1  6  2 -1</clus>
<clus scale="   52.202">  2  3  1 -1</clus>
</clustering>
</event>
<event>
 6    0  0.4945982E+002  0.1042307E+03  0.7546771E-02  0.1271643E+00
         21   -1    0    0  503  502  0.00000000000E+00  0.00000000000E+00  0.81435043753E+02  0.81435043753E+02  0.00000000000E+00 0.  1.
          1   -1    0    0  504    0 -0.00000000000E+00 -0.00000000000E+00 -0.19924139428E+04  0.19924139428E+04  0.00000000000E+00 0. -1.
         21    1    1    2  503  501 -0.60776477186E+02 -0.64251910695E+02  0.49684066023E+02  0.10144256811E+03  0.00000000000E+00 0.  1.
         21    1    1    2  504  505  0.57303568722E+02  0.90991832421E+02 -0.11462491987E+04  0.11512820845E+04  0.00000000000E+00 0. -1.
         21    1    1    2  505  502  0.22696922550E+02  0.29602422543E+02 -0.17422212284E+03  0.17817070972E+03  0.00000000000E+00 0.  1.
          1    1    1    2  501    0 -0.19224014086E+02 -0.56342344269E+02 -0.64019164357E+03  0.64295362428E+03  0.00000000000E+00 0. -1.
<scales pt_clust_3="89.48108" pt_clust_4="31.48223" pt_clust_5="31.48223" pt_clust_6="59.53169"></scales>
<clustering>
<clus scale="   31.482">  4  5 -1 -1</clus>
<clus scale="   59.532">  2  6  1 -1</clus>
<clus scale="   89.481">  1  3  2 -1</clus>
<clus scale="   89.481">  1  3  2 -1</clus>
</clustering>
</event>
<event>
 6    0  0.4945982E+002  0.8011438E+02  0.7546771E-02  0.1328727E+00
         -2   -1    0    0    0  501 -0.00000000000E+00  0.00000000000E+00  0.33778602419E+02  0.33778602419E+02  0.00000000000E+00 0. -1.
         21   -1    0    0  504  502  0.00000000000E+00 -0.00000000000E+00 -0.14624413713E+04  0.14624413713E+04  0.00000000000E+00 0. -1.
         21    1    1    2  503  501 -0.23835012679E+01  0.30843076829E+02 -0.82408969986E+02  0.88023944473E+02  0.00000000000E+00 0.  1.
         21    1    1    2  504  505 -0.61445972933E+02 -0.47701452350E+02 -0.10509004079E+04  0.10537754521E+04  0.00000000000E+00 0. -1.
         21    1    1    2  505  503 -0.27016375223E+02 -0.58955645191E+02 -0.17044685041E+03  0.18236716109E+03  0.00000000000E+00 0. -1.
         -2    1    1    2    0  502  0.90845849424E+02  0.75814020712E+02 -0.12490654062E+03  0.17205341608E+03  0.00000000000E+00 0. -1.
<scales pt_clust_3="30.93504" pt_clust_4="80.11438" pt_clust_5="59.71610" pt_clust_6="14000.00000"></scales>
<clustering>
<clus scale="   30.935">  1  3  2 -1</clus>
<clus scale="   59.716">  1  5  2 -1</clus>
<clus scale="   80.114">  2  4  1 -1</clus>
<clus scale="   80.114">  2  3  1 -1</clus>
</clustering>
</event>
<event>
 6    0  0.4945982E+002  0.1295919E+03  0.7546771E-02  0.1228063E+00
          2   -1    0    0  504    0 -0.00000000000E+00  0.00000000000E+00  0.25614850802E+04  0.25614850802E+04  0.00000000000E+00 0. -1.
         21   -1    0    0  505  502  0.00000000000E+00 -0.00000000000E+00 -0.63171194184E+02  0.63171194184E+02  0.00000000000E+00 0. -1.
         21    1    1    2  503  501 -0.26644665124E+02 -0.33568709858E+02  0.72354245243E+02  0.84094787388E+02  0.00000000000E+00 0. -1.
         21    1    1    2  504  502  0.53055058628E+02  0.31433640689E+02  0.64113719818E+01  0.62000150836E+02  0.00000000000E+00 0.  1.
         21    1    1    2  505  503 -0.13377674716E+03 -0.13079686065E+02  0.13182259077E+03  0.18826707547E+03  0.00000000000E+00 0. -1.
          2    1    1    2  501    0  0.10736635366E+03  0.15214755233E+02  0.22877256780E+04  0.22902942606E+04  0.00000000000E+00 0. -1.
<scales pt_clust_3="38.22129" pt_clust_4="61.66776" pt_clust_5="38.22129" pt_clust_6="110.50950"></scales>
<clustering>
<clus scale="   38.221">  3  5 -1 -1</clus>
<clus scale="   61.668">  2  4  1 -1</clus>
<clus scale="  110.509">  1  6  2 -1</clus>
<clus scale="   61.668">  2  3  1 -1</clus>
</clustering>
</event>
<event>
 6    0  0.4945982E+002  0.1258440E+03  0.7546771E-02  0.1233756E+00
          2   -1    0    0  503    0 -0.00000000000E+00  0.00000000000E+00  0.60156477165E+03  0.60156477165E+03  0.00000000000E+00 0. -1.
         21   -1    0    0  505  502  0.00000000000E+00 -0.00000000000E+00 -0.18267546240E+03  0.18267546240E+03  0.00000000000E+00 0.  1.
         21    1    1    2  503  502 -0.73372099471E+02  0.81007916670E+02 -0.89338171496E+02  0.14116322620E+03  0.00000000000E+00 0.  1.
         21    1    1    2  504  501  0.85997352416E+02 -0.71669995758E+02  0.51263466107E+02  0.12312625988E+03  0.00000000000E+00 0.  1.
         21    1    1    2  505  504 -0.10691812135E+02  0.67274960853E+02  0.12909770616E+02  0.69331792000E+02  0.00000000000E+00 0.  1.
          2    1    1    2  501    0 -0.19334408092E+01 -0.76612881765E+02  0.44405424402E+03  0.45061895597E+03  0.00000000000E+00 0. -1.
<scales pt_clust_3="125.84405" pt_clust_4="14000.00000" pt_clust_5="68.11927" pt_clust_6="75.21433"></scales>
<clustering>
<clus scale="   68.119">  2  5  1 -1</clus>
<clus scale="   75.214">  1  6  2 -1</clus>
<clus scale="  125.844">  2  3  1 -1</clus>
<clus scale="   68.119">  2  3  1 -1</clus>
</clustering>
</event>
<event>
 6    0  0.4945982E+002  0.1397741E+03  0.7546771E-02  0.1213633E+00
         21   -1    0    0  503  502  0.00000000000E+00  0.00000000000E+00  0.17857414004E+03  0.17857414004E+03  0.00000000000E+00 0.  1.
          1   -1    0    0  504    0 -0.00000000000E+00 -0.00000000000E+00 -0.27134000318E+03  0.27134000318E+03  0.00000000000E+00 0. -1.
         21    1    1    2  503  501  0.47539088855E+02 -0.68431710682E+01  0.28597275209E+02  0.55898104698E+02  0.00000000000E+00 0.  1.
         21    1    1    2  504  505 -0.85769010067E+02 -0.95102026276E+01  0.66727289841E+01  0.86552252160E+02  0.00000000000E+00 0.  1.
         21    1    1    2  505  502 -0.89554093735E+02  0.36975239499E+01  0.38180648522E+02  0.97423658880E+02  0.00000000000E+00 0.  1.
          1    1    1    2  501    0  0.12778401495E+03  0.12655849746E+02 -0.16621651586E+03  0.21004012748E+03  0.00000000000E+00 0. -1.
<scales pt_clust_3="48.02909" pt_clust_4="31.99623" pt_clust_5="31.99623" pt_clust_6="135.91714"></scales>
<clustering>
<clus scale="   31.996">  4  5 -1 -1</clus>
<clus scale="   48.029">  1  3  2 -1</clus>
<clus scale="  135.917">  2  6  1 -1</clus>
<clus scale="   48.029">  1  3  2 -1</clus>
</clustering>
</event>
<event>
 6    0  0.4945982E+002  0.8475943E+02  0.7546771E-02  0.1316063E+00
         21   -1    0    0  505  502  0.00000000000E+00  0.00000000000E+00  0.10088736510E+04  0.10088736510E+04  0.00000000000E+00 0.  1.
          1   -1    0    0  504    0 -0.00000000000E+00 -0.00000000000E+00 -0.10372310040E+03  0.10372310040E+03  0.00000000000E+00 0. -1.
         21    1    1    2  503  502  0.19075480233E+02  0.80768134388E+02  0.75278903086E+03  0.75734978079E+03  0.00000000000E+00 0.  1.
         21    1    1    2  504  503 -0.66465662146E+02 -0.96088629097E+02  0.75091985495E+02  0.13888669905E+03  0.00000000000E+00 0. -1.
         21    1    1    2  505  501  0.30924106633E+02  0.70234784257E+02  0.12166825724E+03  0.14384849707E+03  0.00000000000E+00 0.  1.
          1    1    1    2  501    0  0.16466075279E+02 -0.54914289549E+02 -0.44398723012E+02  0.72511774470E+02  0.00000000000E+00 0. -1.
<scales pt_clust_3="14000.00000" pt_clust_4="84.75943" pt_clust_5="66.67980" pt_clust_6="57.32984"></scales>
<clustering>
<clus scale="   57.330">  2  6  1 -1</clus>
<clus scale="   66.680">  2  5  1 -1</clus>
<clus scale="   84.759">  2  4  1 -1</clus>
<clus scale="   84.759">  1  3  2 -1</clus>
</clustering>
</event>
<event>
 6    0  0.4945982E+002  0.1000448E+03  0.7546771E-02  0.1280202E+00
          1   -1    0    0  505    0 -0.00000000000E+00  0.00000000000E+00  0.12610883918E+03  0.12610883918E+03  0.00000000000E+00 0. -1.
         21   -1    0    0  503  502  0.00000000000E+00 -0.00000000000E+00 -0.10380127559E+04  0.10380127559E+04  0.00000000000E+00 0. -1.
         21    1    1    2  503  501 -0.72406095040E+02 -0.19174190654E+01 -0.83984637270E+03  0.84296396651E+03  0.00000000000E+00 0. -1.
         21    1    1    2  504  502 -0.30851018300E+02 -0.19229360450E+02 -0.94128424692E+02  0.10090447943E+03  0.00000000000E+00 0.  1.
         21    1    1    2  505  504  0.43190333814E+02 -0.85895139468E+02  0.43902351784E+01  0.96242683275E+02  0.00000000000E+00 0. -1.
          1    1    1    2  501    0  0.60066779525E+02  0.10704191898E+03  0.17680645480E+02  0.12401046588E+03  0.00000000000E+00 0. -1.
<scales pt_clust_3="14000.00000" pt_clust_4="36.35318" pt_clust_5="96.32087" pt_clust_6="100.04477"></scales>
<clustering>
<clus scale="   36.353">  2  4  1 -1</clus>
<clus scale="   96.321">  1  5  2 -1</clus>
<clus scale="  100.045">  1  6  2 -1</clus>
<clus scale="   36.353">  2  3  1 -1</clus>
</clustering>
</event>
<event>
 6    0  0.4945982E+002  0.8017934E+02  0.7546771E-02  0.1328543E+00
         21   -1    0    0  505  502  0.00000000000E+00  0.00000000000E+00  0.16305304100E+02  0.16305304100E+02  0.00000000000E+00 0.  1.
          2   -1    0    0  503    0 -0.00000000000E+00 -0.00000000000E+00 -0.13222089593E+04  0.13222089593E+04  0.00000000000E+00 0.  1.
         21    1    1    2  503  504 -0.38147018686E+02 -0.38670906221E+02 -0.35866873069E+03  0.36275872477E+03  0.00000000000E+00 0.  1.
         21    1    1    2  504  502 -0.55004382693E+02  0.18227538647E+02 -0.21165035711E+03  0.21943928305E+03  0.00000000000E+00 0.  1.
         21    1    1    2  505  501 -0.21152402837E+02  0.30765807212E+02 -0.57299540882E+02  0.68390031616E+02  0.00000000000E+00 0.  1.
          2    1    1    2  501    0  0.11430380422E+03 -0.10322439638E+02 -0.67828502649E+03  0.68792622393E+03  0.00000000000E+00 0.  1.
<scales pt_clust_3="53.43654" pt_clust_4="14000.00000" pt_clust_5="37.33576" pt_clust_6="80.17934"></scales>
<clustering>
<clus scale="   37.336">  1  5  2 -1</clus>
<clus scale="   53.437">  2  3  1 -1</clus>
<clus scale="   80.179">  2  6  1 -1</clus>
<clus scale="   37.336">  1  3  2 -1</clus>
</clustering>
</event>
<event>
 6    0  0.4945982E+002  0.1128101E+03  0.7546771E-02  0.1255453E+00
         21   -1    0    0  505  502  0.00000000000E+00  0.00000000000E+00  0.10985375379E+03  0.10985375379E+03  0.00000000000E+00 0.  1.
         -2   -1    0    0    0  501 -0.00000000000E+00 -0.00000000000E+00 -0.24776766551E+03  0.24776766551E+03  0.00000000000E+00 0.  1.
         21    1    1    2  503  502 -0.43116419260E+02  0.22262961042E+02  0.21734817331E+02  0.53170173298E+02  0.00000000000E+00 0.  1.
         21    1    1    2  504  501  0.37424775533E+02 -0.90938067976E+01  0.12672136509E+01  0.38534620489E+02  0.00000000000E+00 0.  1.
         21    1    1    2  505  504  0.69170488556E+02  0.58514703647E+02 -0.15664643845E+02  0.91945136341E+02  0.00000000000E+00 0.  1.
         -2    1    1    2    0  503 -0.63478844830E+02 -0.71683857891E+02 -0.14525129886E+03  0.17397148916E+03  0.00000000000E+00 0.  1.
<scales pt_clust_3="48.52489" pt_clust_4="35.78657" pt_clust_5="35.78657" pt_clust_6="98.55666"></scales>
<clustering>
<clus scale="   35.787">  4  5 -1 -1</clus>
<clus scale="   48.525">  1  3  2 -1</clus>
<clus scale="   98.557">  2  6  1 -1</clus>
<clus scale="   48.525">  1  3  2 -1</clus>
</clustering>
</event>
<event>
 6    0  0.4945982E+002  0.1456263E+03  0.7546771E-02  0.1205953E+00
         21   -1    0    0  505  502  0.00000000000E+00  0.00000000000E+00  0.28466194131E+03  0.28466194131E+03  0.00000000000E+00 0.  1.
          2   -1    0    0  503    0 -0.00000000000E+00 -0.00000000000E+00 -0.12885083079E+04  0.12885083079E+04  0.00000000000E+00 0.  1.
         21    1    1    2  503  502  0.52295147064E+02  0.25463489181E+02  0.19911266586E+03  0.20743438816E+03  0.00000000000E+00 0.  1.
         21    1    1    2  504  501 -0.12073951257E+02 -0.50050455883E+02  0.24146326910E+02  0.56867156921E+02  0.00000000000E+00 0.  1.
         21    1    1    2  505  504  0.46899713778E+02 -0.72360915618E+02 -0.12314473812E+02  0.87105289890E+02  0.00000000000E+00 0.  1.
          2    1    1    2  501    0 -0.87120909585E+02  0.96947882320E+02 -0.12147908855E+04  0.12217634142E+04  0.00000000000E+00 0.  1.
<scales pt_clust_3="58.16504" pt_clust_4="51.20140" pt_clust_5="51.20140" pt_clust_6="129.67778"></scales>
<clustering>
<clus scale="   51.201">  4  5 -1 -1</clus>
<clus scale="   58.165">  1  3  2 -1</clus>
<clus scale="  129.678">  2  6  1 -1</clus>
<clus scale="   58.165">  1  3  2 -1</clus>
</clustering>
</event>
<event>
 6    0  0.4945982E+002  0.7359645E+02  0.7546771E-02  0.1348273E+00
         21   -1    0    0  504  502  0.00000000000E+00  0.00000000000E+00  0.54210881398E+03  0.54210881398E+03  0.00000000000E+00 0.  1.
          2   -1    0    0  502    0 -0.00000000000E+00 -0.00000000000E+00 -0.58745912188E+03  0.58745912188E+03  0.00000000000E+00 0.  1.
         21    1    1    2  503  501  0.10795032867E+03 -0.86878977886E+01  0.28853774487E+02  0.11207717577E+03  0.00000000000E+00 0.  1.
         21    1    1    2  504  505 -0.39028071125E+02  0.35249694901E+02  0.29196333010E+03  0.29666195821E+03  0.00000000000E+00 0. -1.
         21    1    1    2  505  503 -0.30674197633E+02 -0.62800576638E+02  0.16909999907E+03  0.18297439305E+03  0.00000000000E+00 0.  1.
          2    1    1    2  501    0 -0.38248059908E+02  0.36238779525E+02 -0.53526741155E+03  0.53785440883E+03  0.00000000000E+00 0.  1.
<scales pt_clust_3="73.59645" pt_clust_4="52.59022" pt_clust_5="14000.00000" pt_clust_6="52.96375"></scales>
<clustering>
<clus scale="   52.590">  1  4  2 -1</clus>
<clus scale="   52.964">  2  6  1 -1</clus>
<clus scale="   73.596">  2  3  1 -1</clus>
<clus scale="   52.590">  1  3  2 -1</clus>
</clustering>
</event>
<event>
 6    0  0.4945982E+002  0.2008284E+03  0.7546771E-02  0.1149042E+00
         -3   -1    0    0    0  501 -0.00000000000E+00  0.00000000000E+00  0.67623191121E+03  0.67623191121E+03  0.00000000000E+00 0. -1.
         21   -1    0    0  503  502  0.00000000000E+00 -0.00000000000E+00 -0.27539788637E+03  0.27539788637E+03  0.00000000000E+00 0. -1.
         21    1    1    2  503  505 -0.32052883372E+02  0.23005906010E+02 -0.72149953032E+02  0.82233051545E+02  0.00000000000E+00 0. -1.
         21    1    1    2  504  502 -0.12949107256E+03 -0.86604949138E+02 -0.31049879108E+02  0.15884725393E+03  0.00000000000E+00 0. -1.
         21    1    1    2  505  501  0.74220078257E+01 -0.79116943194E+02 -0.65840116547E+02  0.10319640424E+03  0.00000000000E+00 0. -1.
         -3    1    1    2    0  504  0.15412194811E+03  0.14271598632E+03  0.56987397353E+03  0.60735308787E+03  0.00000000000E+00 0. -1.
<scales pt_clust_3="39.45452" pt_clust_4="200.82839" pt_clust_5="69.58773" pt_clust_6="14000.00000"></scales>
<clustering>
<clus scale="   39.455">  2  3  1 -1</clus>
<clus scale="   69.588">  2  5  1 -1</clus>
<clus scale="  200.828">  2  4  1 -1</clus>
<clus scale="   39.455">  2  3  1 -1</clus>
</clustering>
</event>
<event>
 6    0  0.4945982E+002  0.1255486E+03  0.7546771E-02  0.1234214E+00
          2   -1    0    0  503    0 -0.00000000000E+00  0.00000000000E+00  0.33265967158E+04  0.33265967158E+04  0.00000000000E+00 0. -1.
         21   -1    0    0  501  502  0.00000000000E+00 -0.00000000000E+00 -0.66887903878E+03  0.66887903878E+03  0.00000000000E+00 0.  1.
         21    1    1    2  503  504 -0.32316270609E+02  0.61370786105E+02  0.45987549006E+03  0.46507653251E+03  0.00000000000E+00 0.  1.
         21    1    1    2  504  505 -0.86699920739E+02 -0.38885458417E+02 -0.71507826022E+02  0.11892150485E+03  0.00000000000E+00 0.  1.
         21    1    1    2  505  502 -0.11148672842E+02 -0.42440127814E+02 -0.56869193101E+03  0.57038230140E+03  0.00000000000E+00 0.  1.
          2    1    1    2  501    0  0.13016486419E+03  0.19954800126E+02  0.28380419440E+04  0.28410954159E+04  0.00000000000E+00 0. -1.
<scales pt_clust_3="68.51667" pt_clust_4="14000.00000" pt_clust_5="43.88003" pt_clust_6="125.54863"></scales>
<clustering>
<clus scale="   43.880">  2  5  1 -1</clus>
<clus scale="   68.517">  1  3  2 -1</clus>
<clus scale="  125.549">  1  6  2 -1</clus>
<clus scale="   43.880">  2  3  1 -1</clus>
</clustering>
</event>
<event>
 6    0  0.4945982E+002  0.8728115E+02  0.7546771E-02  0.1309573E+00
          2   -1    0    0  505    0 -0.00000000000E+00  0.00000000000E+00  0.49000190861E+03  0.49000190861E+03  0.00000000000E+00 0.  1.
         21   -1    0    0  504  502  0.00000000000E+00 -0.00000000000E+00 -0.69647718344E+03  0.69647718344E+03  0.00000000000E+00 0.  1.
         21    1    1    2  503  502 -0.39770142811E+02 -0.15069282155E+02 -0.12796964200E+03  0.13485168444E+03  0.00000000000E+00 0.  1.
         21    1    1    2  504  501 -0.33915520677E+02 -0.51129704206E+02 -0.68662278438E+02  0.92081581629E+02  0.00000000000E+00 0.  1.
         21    1    1    2  505  503  0.62585119876E+02  0.10954310445E+03 -0.47539422183E+03  0.49184982984E+03  0.00000000000E+00 0.  1.
          2    1    1    2  501    0  0.11100543611E+02 -0.43344118087E+02  0.46555086743E+03  0.46769599614E+03  0.00000000000E+00 0.  1.
<scales pt_clust_3="42.52937" pt_clust_4="87.28115" pt_clust_5="14000.00000" pt_clust_6="44.75204"></scales>
<clustering>
<clus scale="   42.529">  2  3  1 -1</clus>
<clus scale="   44.752">  1  6  2 -1</clus>
<clus scale="   87.281">  1  4  2 -1</clus>
<clus scale="   42.529">  2  3  1 -1</clus>
</clustering>
</event>
<event>
 6    0  0.4945982E+002  0.2044506E+03  0.7546771E-02  0.1146037E+00
         21   -1    0    0  501  502  0.00000000000E+00  0.00000000000E+00  0.11941447457E+03  0.11941447457E+03  0.00000000000E+00 0. -1.
          2   -1    0    0  503    0 -0.00000000000E+00 -0.00000000000E+00 -0.15324632782E+04  0.15324632782E+04  0.00000000000E+00 0. -1.
         21    1    1    2  503  504 -0.25779570953E+01  0.39057735994E+02 -0.65441308371E+02  0.76254294601E+02  0.00000000000E+00 0. -1.
         21    1    1    2  504  505  0.12654386109E+02  0.11250606260E+03 -0.58151980788E+02  0.12727686545E+03  0.00000000000E+00 0. -1.
         21    1    1    2  505  502 -0.72922360272E+02  0.46339293597E+02  0.45286961151E+02  0.97549523879E+02  0.00000000000E+00 0. -1.
          2    1    1    2  501    0  0.62845931259E+02 -0.19790309219E+03 -0.13347424756E+04  0.13507970689E+04  0.00000000000E+00 0. -1.
<scales pt_clust_3="32.61384" pt_clust_4="32.61384" pt_clust_5="86.40024" pt_clust_6="196.78296"></scales>
<clustering>
<clus scale="   32.614">  3  4 -1 -1</clus>
<clus scale="   86.400">  1  5  2 -1</clus>
<clus scale="  196.783">  2  6  1 -1</clus>
<clus scale="   86.400">  1  3  2 -1</clus>
</clustering>
</event>
<event>
 6    0  0.4945982E+002  0.1049618E+03  0.7546771E-02  0.1270195E+00
          2   -1    0    0  505    0 -0.00000000000E+00  0.00000000000E+00  0.29767078626E+04  0.29767078626E+04  0.00000000000E+00 0. -1.
         21   -1    0    0  504  502  0.00000000000E+00 -0.00000000000E+00 -0.22558444507E+02  0.22558444507E+02  0.00000000000E+00 0.  1.
         21    1    1    2  503  502  0.23593516071E+02 -0.27253218564E+02  0.59309355480E+02  0.69404550068E+02  0.00000000000E+00 0. -1.
         21    1    1    2  504  501 -0.65789311055E+02  0.14972634509E+01  0.34814923918E+03  0.35431393988E+03  0.00000000000E+00 0. -1.
         21    1    1    2  505  503  0.12334213938E+03 -0.65395206181E+00  0.26540239815E+03  0.29266387537E+03  0.00000000000E+00 0.  1.
          2    1    1    2  501    0 -0.81146344394E+02  0.26409907175E+02  0.22812884253E+04  0.22828839418E+04  0.00000000000E+00 0. -1.
<scales pt_clust_3="30.99354" pt_clust_4="65.80635" pt_clust_5="30.99354" pt_clust_6="87.92077"></scales>
<clustering>
<clus scale="   30.994">  3  5 -1 -1</clus>
<clus scale="   65.806">  2  4  1 -1</clus>
<clus scale="   87.921">  1  6  2 -1</clus>
<clus scale="   65.806">  2  3  1 -1</clus>
</clustering>
</event>
<event>
 6    0  0.4945982E+002  0.7307046E+02  0.7546771E-02  0.1349952E+00
         21   -1    0    0  505  502  0.00000000000E+00  0.00000000000E+00  0.79694321258E+02  0.79694321258E+02  0.00000000000E+00 0. -1.
          2   -1    0    0  503    0 -0.00000000000E+00 -0.00000000000E+00 -0.36142794294E+03  0.36142794294E+03  0.00000000000E+00 0. -1.
         21    1    1    2  503  502 -0.19368736783E+02  0.31348357645E+02 -0.43227022368E+02  0.56801786542E+02  0.00000000000E+00 0.  1.
         21    1    1    2  504  501  0.37827408202E+02  0.50458425804E+02 -0.83161244288E+02  0.10436837690E+03  0.00000000000E+00 0. -1.
         21    1    1    2  505  504 -0.54183301911E+02  0.23204060681E+02  0.28318189358E+02  0.65392495644E+02  0.00000000000E+00 0. -1.
          2    1    1    2  501    0  0.35724630491E+02 -0.10501084413E+03 -0.18366354438E+03  0.21455960511E+03  0.00000000000E+00 0. -1.
<scales pt_clust_3="36.84925" pt_clust_4="73.07046" pt_clust_5="60.75039" pt_clust_6="14000.00000"></scales>
<clustering>
<clus scale="   36.849">  2  3  1 -1</clus>
<clus scale="   60.750">  1  5  2 -1</clus>
<clus scale="   73.070">  1  4  2 -1</clus>
<clus scale="   60.750">  1  3  2 -1</clus>
</clustering>
</event>
<event>
 6    0  0.4945982E+002  0.1430264E+03  0.7546771E-02  0.1209314E+00
         21   -1    0    0  501  502  0.00000000000E+00  0.00000000000E+00  0.51998858836E+03  0.51998858836E+03  0.00000000000E+00 0. -1.
         -2   -1    0    0    0  501 -0.00000000000E+00 -0.00000000000E+00 -0.18367339513E+03  0.18367339513E+03  0.00000000000E+00 0. -1.
         21    1    1    2  503  504 -0.65614061659E+02 -0.11988073268E+03  0.25217009608E+03  0.28682111588E+03  0.00000000000E+00 0. -1.
         21    1    1    2  504  502  0.45357154878E+02 -0.29293851397E+01  0.81602047016E+02  0.93406353495E+02  0.00000000000E+00 0.  1.
         21    1    1    2  505  503  0.69429665657E+02  0.17571428352E+03  0.90609361370E+02  0.20953769177E+03  0.00000000000E+00 0. -1.
         -2    1    1    2    0  505 -0.49172758876E+02 -0.52904165698E+02 -0.88066311240E+02  0.11389682234E+03  0.00000000000E+00 0. -1.
<scales pt_clust_3="143.02636" pt_clust_4="45.45165" pt_clust_5="14000.00000" pt_clust_6="71.37717"></scales>
<clustering>
<clus scale="   45.452">  1  4  2 -1</clus>
<clus scale="   71.377">  2  6  1 -1</clus>
<clus scale="  143.026">  1  3  2 -1</clus>
<clus scale="   45.452">  1  3  2 -1</clus>
</clustering>
</event>
<event>
 6    0  0.4945982E+002  0.1762127E+03  0.7546771E-02  0.1171520E+00
         -2   -1    0    0    0  501 -0.00000000000E+00  0.00000000000E+00  0.19325029653E+03  0.19325029653E+03  0.00000000000E+00 0. -1.
         21   -1    0    0  501  502  0.00000000000E+00 -0.00000000000E+00 -0.17875571645E+03  0.17875571645E+03  0.00000000000E+00 0. -1.
         21    1    1    2  503  505  0.28725163613E+02 -0.10634848730E+03  0.20935450389E+02  0.11213130186E+03  0.00000000000E+00 0. -1.
         21    1    1    2  504  502 -0.36840545303E+02  0.76704553414E+02 -0.16440655689E+02  0.86666657095E+02  0.00000000000E+00 0. -1.
         21    1    1    2  505  504 -0.12911342234E+02  0.85321456259E+02 -0.40341601458E+02  0.95257012680E+02  0.00000000000E+00 0. -1.
         -2    1    1    2    0  503  0.21026723924E+02 -0.55677522377E+02  0.50341386836E+02  0.77951041338E+02  0.00000000000E+00 0. -1.
<scales pt_clust_3="35.42832" pt_clust_4="33.59178" pt_clust_5="172.83517" pt_clust_6="35.42832"></scales>
<clustering>
<clus scale="   33.592">  4  5 -1 -1</clus>
<clus scale="   35.428">  3  6 -1 -1</clus>
<clus scale="  172.835">  2  4  1 -1</clus>
<clus scale="  172.835">  2  3  1 -1</clus>
</clustering>
</event>
<event>
 6    0  0.4945982E+002  0.2151748E+03  0.7546771E-02  0.1137532E+00
          2   -1    0    0  504    0 -0.00000000000E+00  0.00000000000E+00  0.52909929180E+04  0.52909929180E+04  0.00000000000E+00 0.  1.
         21   -1    0    0  505  502  0.00000000000E+00 -0.00000000000E+00 -0.43217487325E+03  0.43217487325E+03  0.00000000000E+00 0. -1.
         21    1    1    2  503  502  0.33705804498E+02  0.15595346564E+02 -0.37685638323E+03  0.37868196376E+03  0.00000000000E+00 0. -1.
         21    1    1    2  504  503  0.88477841245E+02 -0.46541021160E+02  0.18320379582E+02  0.10163676180E+03  0.00000000000E+00 0.  1.
         21    1    1    2  505  501  0.71259378748E+02 -0.78083565354E+02  0.26200185862E+03  0.28252418685E+03  0.00000000000E+00 0.  1.
          2    1    1    2  501    0 -0.19344302449E+03  0.10902923995E+03  0.49553521898E+04  0.49603248789E+04  0.00000000000E+00 0.  1.
<scales pt_clust_3="37.13888" pt_clust_4="14000.00000" pt_clust_5="108.03085" pt_clust_6="215.17484"></scales>
<clustering>
<clus scale="   37.139">  2  3  1 -1</clus>
<clus scale="  108.031">  2  5  1 -1</clus>
<clus scale="  215.175">  1  6  2 -1</clus>
<clus scale="   37.139">  2  3  1 -1</clus>
</clustering>
</event>
<event>
 6    0  0.4945982E+002  0.2444507E+03  0.7546771E-02  0.1116863E+00
          3   -1    0    0  505    0 -0.00000000000E+00  0.00000000000E+00  0.34997666065E+03  0.34997666065E+03  0.00000000000E+00 0.  1.
         21   -1    0    0  504  502  0.00000000000E+00 -0.00000000000E+00 -0.19136417908E+04  0.19136417908E+04  0.00000000000E+00 0.  1.
         21    1    1    2  503  502 -0.66824989641E+01  0.12355613139E+03 -0.21524732965E+03  0.24827844513E+03  0.00000000000E+00 0.  1.
         21    1    1    2  504  501 -0.95778432543E+02 -0.22135610832E+03 -0.15826601054E+04  0.16009325544E+04  0.00000000000E+00 0.  1.
         21    1    1    2  505  503  0.98418456370E+00  0.87827308714E+02 -0.57754164475E+02  0.10511968555E+03  0.00000000000E+00 0.  1.
          3    1    1    2  501    0  0.10147674694E+03  0.99726682154E+01  0.29199646934E+03  0.30928776631E+03  0.00000000000E+00 0.  1.
<scales pt_clust_3="63.30104" pt_clust_4="232.61808" pt_clust_5="63.30104" pt_clust_6="101.96560"></scales>
<clustering>
<clus scale="   63.301">  3  5 -1 -1</clus>
<clus scale="  101.966">  1  6  2 -1</clus>
<clus scale="  232.618">  2  4  1 -1</clus>
<clus scale="  232.618">  2  3  1 -1</clus>
</clustering>
</event>
<event>
 6    0  0.4945982E+002  0.2232812E+03  0.7546771E-02  0.1131460E+00
          1   -1    0    0  505    0 -0.00000000000E+00  0.00000000000E+00  0.21861323739E+03  0.21861323739E+03  0.00000000000E+00 0.  1.
         21   -1    0    0  503  502  0.00000000000E+00 -0.00000000000E+00 -0.18320967228E+04  0.18320967228E+04  0.00000000000E+00 0.  1.
         21    1    1    2  503  501  0.52457931582E+01  0.37183074126E+02 -0.74674661616E+02  0.83584714121E+02  0.00000000000E+00 0.  1.
         21    1    1    2  504  502  0.86484553583E+01  0.46841582848E+02 -0.69829311636E+03  0.69991585638E+03  0.00000000000E+00 0. -1.
         21    1    1    2  505  504 -0.35541846988E+02  0.12937606189E+03 -0.99428076786E+03  0.10032923969E+04  0.00000000000E+00 0.  1.
          1    1    1    2  501    0  0.21647598472E+02 -0.21340071886E+03  0.15376506038E+03  0.26391699287E+03  0.00000000000E+00 0.  1.
<scales pt_clust_3="37.55129" pt_clust_4="41.97732" pt_clust_5="41.97732" pt_clust_6="213.35043"></scales>
<clustering>
<clus scale="   37.551">  2  3  1 -1</clus>
<clus scale="   41.977">  4  5 -1 -1</clus>
<clus scale="  213.350">  1  6  2 -1</clus>
<clus scale="   37.551">  2  3  1 -1</clus>
</clustering>
</event>
<event>
 6    0  0.4945982E+002  0.1142761E+03  0.7546771E-02  0.1252850E+00
         21   -1    0    0  505  502  0.00000000000E+00  0.00000000000E+00  0.10457820971E+04  0.10457820971E+04  0.00000000000E+00 0.  1.
          1   -1    0    0  502    0 -0.00000000000E+00 -0.00000000000E+00 -0.78288475482E+03  0.78288475482E+03  0.00000000000E+00 0. -1.
         21    1    1    2  503  501  0.73840421858E+02 -0.11047000862E+03 -0.12947291874E+03  0.18552430405E+03  0.00000000000E+00 0. -1.
         21    1    1    2  504  503 -0.35844641636E+02  0.49923611711E+02  0.58299867770E+03  0.58622919029E+03  0.00000000000E+00 0.  1.
         21    1    1    2  505  504 -0.32285149106E+00  0.52161793629E+02  0.43097131941E+03  0.43411661464E+03  0.00000000000E+00 0.  1.
          1    1    1    2  501    0 -0.37672928731E+02  0.83846032786E+01 -0.62159973609E+03  0.62279674296E+03  0.00000000000E+00 0. -1.
<scales pt_clust_3="108.71122" pt_clust_4="32.45295" pt_clust_5="32.45295" pt_clust_6="38.59470"></scales>
<clustering>
<clus scale="   32.453">  4  5 -1 -1</clus>
<clus scale="   38.595">  2  6  1 -1</clus>
<clus scale="  108.711">  2  3  1 -1</clus>
<clus scale="  114.276">  1  3  2 -1</clus>
</clustering>
</event>
<event>
 6    0  0.4945982E+002  0.1286486E+03  0.7546771E-02  0.1229475E+00
          2   -1    0    0  505    0 -0.00000000000E+00  0.00000000000E+00  0.73458627568E+03  0.73458627568E+03  0.00000000000E+00 0.  1.
         21   -1    0    0  501  502  0.00000000000E+00 -0.00000000000E+00 -0.12252089262E+03  0.12252089262E+03  0.00000000000E+00 0.  1.
         21    1    1    2  503  502  0.26114999224E+02  0.16449332891E+02 -0.55074832973E+02  0.63133279370E+02  0.00000000000E+00 0.  1.
         21    1    1    2  504  503 -0.22829627514E+02  0.11252177724E+03  0.20574056952E+02  0.11664319125E+03  0.00000000000E+00 0.  1.
         21    1    1    2  505  504 -0.34841879054E+02  0.23989335470E+02  0.93282798486E+02  0.10242619414E+03  0.00000000000E+00 0.  1.
          2    1    1    2  501    0  0.31556507344E+02 -0.15296044560E+03  0.55328336060E+03  0.57490450354E+03  0.00000000000E+00 0.  1.
<scales pt_clust_3="30.86379" pt_clust_4="14000.00000" pt_clust_5="41.47411" pt_clust_6="128.64858"></scales>
<clustering>
<clus scale="   30.864">  2  3  1 -1</clus>
<clus scale="   41.474">  1  5  2 -1</clus>
<clus scale="  128.649">  1  6  2 -1</clus>
<clus scale="   30.864">  2  3  1 -1</clus>
</clustering>
</event>
<event>
 6    0  0.4945982E+002  0.2156918E+03  0.7546771E-02  0.1137136E+00
         -1   -1    0    0    0  501 -0.00000000000E+00  0.00000000000E+00  0.64773429090E+03  0.64773429090E+03  0.00000000000E+00 0.  1.
         21   -1    0    0  503  502  0.00000000000E+00 -0.00000000000E+00 -0.50466822127E+03  0.50466822127E+03  0.00000000000E+00 0. -1.
         21    1    1    2  503  501 -0.40318240147E+02  0.38573222784E+02 -0.45486727129E+02  0.71989557224E+02  0.00000000000E+00 0. -1.
         21    1    1    2  504  505 -0.51622853505E+02  0.77415132664E+02 -0.26886170670E+03  0.28450771361E+03  0.00000000000E+00 0. -1.
         21    1    1    2  505  502 -0.73538141375E+02 -0.13240408303E+02 -0.14481683102E+03  0.16295729869E+03  0.00000000000E+00 0. -1.
         -1    1    1    2    0  504  0.16547923503E+03 -0.10274794715E+03  0.60223133449E+03  0.63294794265E+03  0.00000000000E+00 0.  1.
<scales pt_clust_3="55.79833" pt_clust_4="80.05347" pt_clust_5="80.05347" pt_clust_6="192.90319"></scales>
<clustering>
<clus scale="   55.798">  2  3  1 -1</clus>
<clus scale="   80.053">  4  5 -1 -1</clus>
<clus scale="  192.903">  1  6  2 -1</clus>
<clus scale="   55.798">  2  3  1 -1</clus>
</clustering>
</event>
<event>
 6    0  0.4945982E+002  0.1126986E+03  0.7546771E-02  0.1255653E+00
         21   -1    0    0  505  502  0.00000000000E+00  0.00000000000E+00  0.77823070920E+02  0.77823070920E+02  0.00000000000E+00 0. -1.
         -1   -1    0    0    0  501 -0.00000000000E+00 -0.00000000000E+00 -0.56551639597E+03  0.56551639597E+03  0.00000000000E+00 0. -1.
         21    1    1    2  503  502  0.36429380371E+02 -0.55555819950E+02 -0.55784023477E+01  0.66668339242E+02  0.00000000000E+00 0. -1.
         21    1    1    2  504  503  0.43001101332E+02 -0.42819474748E+02 -0.38714238505E+02  0.71981903257E+02  0.00000000000E+00 0. -1.
         21    1    1    2  505  501 -0.82773575133E+02  0.45120266250E+02 -0.48157750343E+02  0.10586062575E+03  0.00000000000E+00 0. -1.
         -1    1    1    2    0  504  0.33430934298E+01  0.53255028448E+02 -0.39524293385E+03  0.39882859863E+03  0.00000000000E+00 0. -1.
<scales pt_clust_3="34.12893" pt_clust_4="34.12893" pt_clust_5="106.89161" pt_clust_6="53.35986"></scales>
<clustering>
<clus scale="   34.129">  3  4 -1 -1</clus>
<clus scale="   53.360">  2  6  1 -1</clus>
<clus scale="  106.892">  1  5  2 -1</clus>
<clus scale="  106.892">  1  3  2 -1</clus>
</clustering>
</event>
<event>
 6    0  0.4945982E+002  0.9026163E+02  0.7546771E-02  0.1302219E+00
         21   -1    0    0  503  502  0.00000000000E+00  0.00000000000E+00  0.22013416048E+03  0.22013416048E+03  0.00000000000E+00 0.  1.
          1   -1    0    0  504    0 -0.00000000000E+00 -0.00000000000E+00 -0.95830171310E+03  0.95830171310E+03  0.00000000000E+00 0. -1.
         21    1    1    2  503  505  0.58239707322E+02 -0.24794496951E+02  0.14276775487E+03  0.15617061958E+03  0.00000000000E+00 0.  1.
         21    1    1    2  504  502 -0.39658214541E+02 -0.29802039450E+02  0.13370225862E+01  0.49625831634E+02  0.00000000000E+00 0.  1.
         21    1    1    2  505  501  0.72300755068E+02  0.43779681057E+02  0.11087284595E+01  0.84529810929E+02  0.00000000000E+00 0. -1.
          1    1    1    2  501    0 -0.90882247848E+02  0.10816855344E+02 -0.88338105854E+03  0.88810961144E+03  0.00000000000E+00 0. -1.
<scales pt_clust_3="55.18504" pt_clust_4="49.60782" pt_clust_5="14000.00000" pt_clust_6="90.26163"></scales>
<clustering>
<clus scale="   49.608">  1  4  2 -1</clus>
<clus scale="   55.185">  1  3  2 -1</clus>
<clus scale="   90.262">  2  6  1 -1</clus>
<clus scale="   49.608">  1  3  2 -1</clus>
</clustering>
</event>
<event>
 6    0  0.4945982E+002  0.1383973E+03  0.7546771E-02  0.1215502E+00
          2   -1    0    0  504    0 -0.00000000000E+00  0.00000000000E+00  0.28423172552E+04  0.28423172552E+04  0.00000000000E+00 0.  1.
         21   -1    0    0  503  502  0.00000000000E+00 -0.00000000000E+00 -0.77762075881E+01  0.77762075881E+01  0.00000000000E+00 0. -1.
         21    1    1    2  503  501 -0.47250640637E+02 -0.13453883346E+02  0.18822600932E+03  0.19453190125E+03  0.00000000000E+00 0. -1.
         21    1    1    2  504  505  0.26338103639E+02  0.16575773234E+02  0.71507677011E+03  0.71575361621E+03  0.00000000000E+00 0.  1.
         21    1    1    2  505  502  0.98517288147E+02 -0.18790594285E+02  0.12403760194E+04  0.12444241287E+04  0.00000000000E+00 0. -1.
          2    1    1    2  501    0 -0.77604751150E+02  0.15668704397E+02  0.69086224876E+03  0.69538381665E+03  0.00000000000E+00 0.  1.
<scales pt_clust_3="47.00165" pt_clust_4="30.03560" pt_clust_5="136.01904" pt_clust_6="47.00165"></scales>
<clustering>
<clus scale="   30.036">  4  5 -1 -1</clus>
<clus scale="   47.002">  3  6 -1 -1</clus>
<clus scale="  136.019">  1  4  2 -1</clus>
<clus scale="  138.397">  2  3  1 -1</clus>
</clustering>
</event>
<event>
 6    0  0.4945982E+002  0.9261252E+02  0.7546771E-02  0.1296646E+00
          1   -1    0    0  505    0 -0.00000000000E+00  0.00000000000E+00  0.24429644038E+04  0.24429644038E+04  0.00000000000E+00 0.  1.
         21   -1    0    0  503  502  0.00000000000E+00 -0.00000000000E+00 -0.28186931737E+03  0.28186931737E+03  0.00000000000E+00 0. -1.
         21    1    1    2  503  504 -0.90369201334E+02 -0.51529608731E+02 -0.65623102406E+02  0.12299709222E+03  0.00000000000E+00 0. -1.
         21    1    1    2  504  501  0.39497831399E+02 -0.10174523663E+03  0.26175747202E+02  0.11223787954E+03  0.00000000000E+00 0. -1.
         21    1    1    2  505  502  0.12148492174E+02  0.10346031247E+03 -0.12527381835E+03  0.16292682923E+03  0.00000000000E+00 0. -1.
          1    1    1    2  501    0  0.38722877760E+02  0.49814532894E+02  0.23258162600E+04  0.23266719202E+04  0.00000000000E+00 0.  1.
<scales pt_clust_3="89.89149" pt_clust_4="14000.00000" pt_clust_5="92.61252" pt_clust_6="63.09476"></scales>
<clustering>
<clus scale="   63.095">  1  6  2 -1</clus>
<clus scale="   89.891">  2  3  1 -1</clus>
<clus scale="   92.613">  2  5  1 -1</clus>
<clus scale="   89.891">  2  3  1 -1</clus>
</clustering>
</event>
<event>
 6    0  0.4945982E+002  0.9180572E+02  0.7546771E-02  0.1298537E+00
         21   -1    0    0  503  502  0.00000000000E+00  0.00000000000E+00  0.90492571260E+01  0.90492571260E+01  0.00000000000E+00 0. -1.
          2   -1    0    0  505    0 -0.00000000000E+00 -0.00000000000E+00 -0.29950437588E+04  0.29950437588E+04  0.00000000000E+00 0. -1.
         21    1    1    2  503  501 -0.73740500556E+02 -0.13749588660E+02 -0.52461975848E+03  0.52995528452E+03  0.00000000000E+00 0. -1.
         21    1    1    2  504  502  0.33561994258E+02  0.46439419286E+02 -0.44333845853E+03  0.44702574415E+03  0.00000000000E+00 0. -1.
         21    1    1    2  505  504  0.68067214548E+02 -0.91819044981E+02 -0.15910114236E+04  0.15951116678E+04  0.00000000000E+00 0. -1.
          2    1    1    2  501    0 -0.27888708249E+02  0.59129214355E+02 -0.42702486102E+03  0.43200031941E+03  0.00000000000E+00 0. -1.
<scales pt_clust_3="61.41135" pt_clust_4="57.29771" pt_clust_5="91.80572" pt_clust_6="14000.00000"></scales>
<clustering>
<clus scale="   57.298">  1  4  2 -1</clus>
<clus scale="   61.411">  1  3  2 -1</clus>
<clus scale="   91.806">  2  5  1 -1</clus>
<clus scale="   57.298">  1  3  2 -1</clus>
</clustering>
</event>
<event>
 6    0  0.4945982E+002  0.1576643E+03  0.7546771E-02  0.1191359E+00
         21   -1    0    0  503  502  0.00000000000E+00  0.00000000000E+00  0.39785936586E+03  0.39785936586E+03  0.00000000000E+00 0. -1.
          2   -1    0    0  505    0 -0.00000000000E+00 -0.00000000000E+00 -0.42602174950E+04  0.42602174950E+04  0.00000000000E+00 0. -1.
         21    1    1    2  503  504  0.11782071517E+02 -0.99103257341E+02 -0.69863735965E+02  0.12182452310E+03  0.00000000000E+00 0.  1.
         21    1    1    2  504  501  0.32602436386E+02 -0.48204964440E+02 -0.26456317580E+02  0.63926318484E+02  0.00000000000E+00 0.  1.
         21    1    1    2  505  502 -0.40616562884E+02 -0.54255964993E+01  0.35053340905E+03  0.35292040624E+03  0.00000000000E+00 0. -1.
          2    1    1    2  501    0 -0.37679450178E+01  0.15273381828E+03 -0.41165714846E+04  0.41194056130E+04  0.00000000000E+00 0. -1.
<scales pt_clust_3="30.12289" pt_clust_4="30.12289" pt_clust_5="40.97734" pt_clust_6="152.64958"></scales>
<clustering>
<clus scale="   30.123">  3  4 -1 -1</clus>
<clus scale="   40.977">  1  5  2 -1</clus>
<clus scale="  152.650">  2  6  1 -1</clus>
<clus scale="   40.977">  1  3  2 -1</clus>
</clustering>
</event>
<event>
 6    0  0.4945982E+002  0.8092729E+02  0.7546771E-02  0.1326440E+00
          2   -1    0    0  505    0 -0.00000000000E+00  0.00000000000E+00  0.13583035448E+04  0.13583035448E+04  0.00000000000E+00 0.  1.
         21   -1    0    0  503  502  0.00000000000E+00 -0.00000000000E+00 -0.21843946497E+03  0.21843946497E+03  0.00000000000E+00 0.  1.
         21    1    1    2  503  501 -0.10509511376E+03 -0.38298088453E+02 -0.16138456636E+03  0.19635861268E+03  0.00000000000E+00 0.  1.
         21    1    1    2  504  502  0.71617736524E+02 -0.37098292986E+02  0.11173226298E+02  0.81426190585E+02  0.00000000000E+00 0. -1.
         21    1    1    2  505  504  0.20054143771E+02  0.24016849188E+02  0.59392286557E+02  0.67129884774E+02  0.00000000000E+00 0. -1.
          2    1    1    2  501    0  0.13423233468E+02  0.51379532252E+02  0.12306831333E+04  0.12318283217E+04  0.00000000000E+00 0.  1.
<scales pt_clust_3="80.92729" pt_clust_4="80.90502" pt_clust_5="31.28862" pt_clust_6="14000.00000"></scales>
<clustering>
<clus scale="   31.289">  1  5  2 -1</clus>
<clus scale="   80.905">  2  4  1 -1</clus>
<clus scale="   80.927">  2  3  1 -1</clus>
<clus scale="   80.905">  2  3  1 -1</clus>
</clustering>
</event>
<event>
 6    0  0.4945982E+002  0.1937006E+03  0.7546771E-02  0.1155165E+00
          1   -1    0    0  503    0 -0.00000000000E+00  0.00000000000E+00  0.51070554969E+03  0.51070554969E+03  0.00000000000E+00 0. -1.
         21   -1    0    0  504  502  0.00000000000E+00 -0.00000000000E+00 -0.22868803921E+03  0.22868803921E+03  0.00000000000E+00 0.  1.
         21    1    1    2  503  502 -0.36597406351E+02 -0.93161948755E+01  0.32694864749E+02  0.49951134317E+02  0.00000000000E+00 0.  1.
         21    1    1    2  504  505 -0.18143893757E+03  0.71936026938E+02 -0.11997866011E+03  0.22910643579E+03  0.00000000000E+00 0.  1.
         21    1    1    2  505  501  0.18628877070E+03 -0.38892260797E+02  0.16393130173E+03  0.25117640360E+03  0.00000000000E+00 0. -1.
          1    1    1    2  501    0  0.31747573219E+02 -0.23727571266E+02  0.20537000410E+03  0.20915961520E+03  0.00000000000E+00 0. -1.
<scales pt_clust_3="37.76456" pt_clust_4="14000.00000" pt_clust_5="193.70062" pt_clust_6="31.90772"></scales>
<clustering>
<clus scale="   37.765">  1  3  2 -1</clus>
<clus scale="   31.908">  1  6  2 -1</clus>
<clus scale="  193.701">  1  5  2 -1</clus>
<clus scale="  193.701">  2  3  1 -1</clus>
</clustering>
</event>
<event>
 6    0  0.4945982E+002  0.1744786E+03  0.7546771E-02  0.1173256E+00
         -2   -1    0    0    0  501 -0.00000000000E+00  0.00000000000E+00  0.13378759880E+03  0.13378759880E+03  0.00000000000E+00 0.  1.
         21   -1    0    0  505  502  0.00000000000E+00 -0.00000000000E+00 -0.94537903770E+03  0.94537903770E+03  0.00000000000E+00 0.  1.
         21    1    1    2  503  502 -0.14112326470E+03 -0.83338518272E+01 -0.24017488661E+03  0.27869195374E+03  0.00000000000E+00 0.  1.
         21    1    1    2  504  501  0.15872271702E+03 -0.41966597806E+02 -0.43502157097E+03  0.46497081999E+03  0.00000000000E+00 0.  1.
         21    1    1    2  505  504  0.99823290188E+02 -0.38644079633E+02 -0.15357519148E+03  0.18719880767E+03  0.00000000000E+00 0.  1.
         -2    1    1    2    0  503 -0.11742274251E+03  0.88944529267E+02  0.17180210162E+02  0.14830505510E+03  0.00000000000E+00 0.  1.
<scales pt_clust_3="141.36912" pt_clust_4="60.07290" pt_clust_5="60.07290" pt_clust_6="157.82212"></scales>
<clustering>
<clus scale="   60.073">  4  5 -1 -1</clus>
<clus scale="  141.369">  2  3  1 -1</clus>
<clus scale="  157.822">  1  6  2 -1</clus>
<clus scale="  141.369">  2  3  1 -1</clus>
</clustering>
</event>
<event>
 6    0  0.4945982E+002  0.1684725E+03  0.7546771E-02  0.1179450E+00
          2   -1    0    0  505    0 -0.00000000000E+00  0.00000000000E+00  0.12122130683E+04  0.12122130683E+04  0.00000000000E+00 0. -1.
         21   -1    0    0  504  502  0.00000000000E+00 -0.00000000000E+00 -0.53774306857E+03  0.53774306857E+03  0.00000000000E+00 0. -1.
         21    1    1    2  503  502  0.49364328688E+02  0.19561940873E+03  0.93805860504E+01  0.20196976361E+03  0.00000000000E+00 0.  1.
         21    1    1    2  504  501 -0.10956872919E+03 -0.16333880974E+02 -0.39091993239E+03  0.40631329738E+03  0.00000000000E+00 0. -1.
         21    1    1    2  505  503  0.76584561294E+02 -0.13516910265E+03  0.10055376688E+03  0.18505929151E+03  0.00000000000E+00 0. -1.
          2    1    1    2  501    0 -0.16380160792E+02 -0.44116425106E+02  0.95545557916E+03  0.95661378433E+03  0.00000000000E+00 0. -1.
<scales pt_clust_3="14000.00000" pt_clust_4="111.46858" pt_clust_5="168.47251" pt_clust_6="47.05920"></scales>
<clustering>
<clus scale="   47.059">  1  6  2 -1</clus>
<clus scale="  111.469">  2  4  1 -1</clus>
<clus scale="  168.473">  1  5  2 -1</clus>
<clus scale="  111.469">  2  3  1 -1</clus>
</clustering>
</event>
<event>
 6    0  0.4945982E+002  0.1881699E+03  0.7546771E-02  0.1160122E+00
          2   -1    0    0  505    0 -0.00000000000E+00  0.00000000000E+00  0.47952661443E+03  0.47952661443E+03  0.00000000000E+00 0. -1.
         21   -1    0    0  503  502  0.00000000000E+00 -0.00000000000E+00 -0.44332498397E+03  0.44332498397E+03  0.00000000000E+00 0. -1.
         21    1    1    2  503  504  0.73361996278E+01 -0.37835697048E+02 -0.29838906142E+02  0.48741359396E+02  0.00000000000E+00 0. -1.
         21    1    1    2  504  501  0.16119292593E+03 -0.68739419795E+02  0.17422002298E+03  0.24710500523E+03  0.00000000000E+00 0. -1.
         21    1    1    2  505  502 -0.19595474925E+03  0.58656307914E+02 -0.33557629971E+03  0.39300162740E+03  0.00000000000E+00 0. -1.
          2    1    1    2  501    0  0.27425623691E+02  0.47918808929E+02  0.22739681333E+03  0.23400360637E+03  0.00000000000E+00 0. -1.
<scales pt_clust_3="38.54037" pt_clust_4="188.16988" pt_clust_5="14000.00000" pt_clust_6="54.97381"></scales>
<clustering>
<clus scale="   38.540">  2  3  1 -1</clus>
<clus scale="   54.974">  1  6  2 -1</clus>
<clus scale="  188.170">  1  4  2 -1</clus>
<clus scale="   38.540">  2  3  1 -1</clus>
</clustering>
</event>
<event>
 6    0  0.4945982E+002  0.1310150E+03  0.7546771E-02  0.1225957E+00
          1   -1    0    0  503    0 -0.00000000000E+00  0.00000000000E+00  0.24044937494E+04  0.24044937494E+04  0.00000000000E+00 0.  1.
         21   -1    0    0  505  502  0.00000000000E+00 -0.00000000000E+00 -0.56390819367E+02  0.56390819367E+02  0.00000000000E+00 0. -1.
         21    1    1    2  503  502 -0.72212195082E+02  0.32747824998E+02  0.25540468159E+03  0.26742956557E+03  0.00000000000E+00 0.  1.
         21    1    1    2  504  501  0.35585850665E+02 -0.36984652566E+02  0.22060070007E+02  0.55864693517E+02  0.00000000000E+00 0. -1.
         21    1    1    2  505  504  0.95721414345E+02 -0.75750033682E+01  0.36755569154E+02  0.10281508500E+03  0.00000000000E+00 0. -1.
          1    1    1    2  501    0 -0.59095069928E+02  0.11811830936E+02  0.20338826093E+04  0.20347752247E+04  0.00000000000E+00 0.  1.
<scales pt_clust_3="121.12840" pt_clust_4="36.50287" pt_clust_5="36.50287" pt_clust_6="60.26397"></scales>
<clustering>
<clus scale="   36.503">  4  5 -1 -1</clus>
<clus scale="   60.264">  1  6  2 -1</clus>
<clus scale="  121.128">  1  3  2 -1</clus>
<clus scale="  131.015">  2  3  1 -1</clus>
</clustering>
</event>
<event>
 6    0  0.5025700E+002  0.8796417E+02  0.7546771E-02  0.1307858E+00
          1   -1    0    0  504    0 -0.00000000000E+00  0.00000000000E+00  0.31810342920E+04  0.31810342920E+04  0.00000000000E+00 0. -1.
         21   -1    0    0  503  502  0.00000000000E+00 -0.00000000000E+00 -0.13925832377E+03  0.13925832377E+03  0.00000000000E+00 0.  1.
         21    1    1    2  503  505  0.72553465601E+02 -0.12223213702E+02 -0.96940144663E+02  0.12169964655E+03  0.00000000000E+00 0.  1.
         21    1    1    2  504  502 -0.52759271507E+02 -0.81031166969E+01  0.38320578397E+02  0.65708964067E+02  0.00000000000E+00 0. -1.
         21    1    1    2  505  501  0.37783131463E+02 -0.47664749969E+02  0.43710061457E+02  0.74900353039E+02  0.00000000000E+00 0.  1.
          1    1    1    2  501    0 -0.57577325557E+02  0.67991080368E+02  0.30566854730E+04  0.30579836521E+04  0.00000000000E+00 0. -1.
<scales pt_clust_3="32.86714" pt_clust_4="53.37791" pt_clust_5="14000.00000" pt_clust_6="87.96417"></scales>
<clustering>
<clus scale="   53.378">  2  4  1 -1</clus>
<clus scale="   32.867">  2  3  1 -1</clus>
<clus scale="   87.964">  1  6  2 -1</clus>
<clus scale="   53.378">  2  3  1 -1</clus>
</clustering>
</event>
<event>
 6    0  0.4945982E+002  0.9737502E+02  0.7546771E-02  0.1285915E+00
          2   -1    0    0  505    0 -0.00000000000E+00  0.00000000000E+00  0.33754281037E+04  0.33754281037E+04  0.00000000000E+00 0.  1.
         21   -1    0    0  504  502  0.00000000000E+00 -0.00000000000E+00 -0.35318695182E+03  0.35318695182E+03  0.00000000000E+00 0. -1.
         21    1    1    2  503  502 -0.92363533243E+02 -0.22589446719E+02 -0.29894254651E+03  0.31370041678E+03  0.00000000000E+00 0. -1.
         21    1    1    2  504  501  0.16856095388E+03  0.30422520787E+02  0.20633565828E+03  0.26816548775E+03  0.00000000000E+00 0.  1.
         21    1    1    2  505  503 -0.47843606907E+02  0.76761653725E+02  0.11851355286E+03  0.14908663393E+03  0.00000000000E+00 0.  1.
          2    1    1    2  501    0 -0.28353813734E+02 -0.84594727793E+02  0.29963344872E+04  0.29976625170E+04  0.00000000000E+00 0.  1.
<scales pt_clust_3="97.37502" pt_clust_4="14000.00000" pt_clust_5="74.45711" pt_clust_6="89.21999"></scales>
<clustering>
<clus scale="   89.220">  1  6  2 -1</clus>
<clus scale="   74.457">  1  5  2 -1</clus>
<clus scale="   97.375">  2  3  1 -1</clus>
<clus scale="   97.375">  2  3  1 -1</clus>
</clustering>
</event>
<event>
 6    0  0.4945982E+002  0.1528510E+03  0.7546771E-02  0.1197013E+00
         -2   -1    0    0    0  501 -0.00000000000E+00  0.00000000000E+00  0.53635160562E+03  0.53635160562E+03  0.00000000000E+00 0.  1.
         21   -1    0    0  504  502  0.00000000000E+00 -0.00000000000E+00 -0.14750204715E+04  0.14750204715E+04  0.00000000000E+00 0. -1.
         21    1    1    2  503  501 -0.47768064074E+02 -0.54698812757E+02  0.99130392523E+02  0.12288442857E+03  0.00000000000E+00 0.  1.
         21    1    1    2  504  505  0.64961421077E+02  0.22111405728E+02 -0.14222802507E+04  0.14239346937E+04  0.00000000000E+00 0. -1.
         21    1    1    2  505  503 -0.78786916997E+01 -0.97848887811E+02  0.60836668796E+02  0.11548843621E+03  0.00000000000E+00 0.  1.
         -2    1    1    2    0  502 -0.93146653035E+01  0.13043629484E+03  0.32364432351E+03  0.34906451860E+03  0.00000000000E+00 0.  1.
<scales pt_clust_3="59.99053" pt_clust_4="68.62143" pt_clust_5="59.99053" pt_clust_6="136.00968"></scales>
<clustering>
<clus scale="   59.991">  3  5 -1 -1</clus>
<clus scale="   68.621">  2  4  1 -1</clus>
<clus scale="  136.010">  1  6  2 -1</clus>
<clus scale="   68.621">  2  3  1 -1</clus>
</clustering>
</event>
<event>
 6    0  0.4945982E+002  0.8701801E+02  0.7546771E-02  0.1310238E+00
         21   -1    0    0  504  502  0.00000000000E+00  0.00000000000E+00  0.39228802658E+03  0.39228802658E+03  0.00000000000E+00 0. -1.
          2   -1    0    0  505    0 -0.00000000000E+00 -0.00000000000E+00 -0.56651915251E+03  0.56651915251E+03  0.00000000000E+00 0.  1.
         21    1    1    2  503  501  0.98520888611E+02 -0.31185323503E+02  0.81115882962E+02  0.13137228156E+03  0.00000000000E+00 0. -1.
         21    1    1    2  504  503 -0.67754562798E+02  0.37865178482E+02  0.56761632087E+02  0.96157867066E+02  0.00000000000E+00 0. -1.
         21    1    1    2  505  502  0.52515209358E+02 -0.29925747047E+02  0.20153646152E+03  0.21040518737E+03  0.00000000000E+00 0. -1.
          2    1    1    2  501    0 -0.83281535171E+02  0.23245892068E+02 -0.51364510250E+03  0.52087184308E+03  0.00000000000E+00 0.  1.
<scales pt_clust_3="87.01801" pt_clust_4="52.81423" pt_clust_5="60.44334" pt_clust_6="14000.00000"></scales>
<clustering>
<clus scale="   60.443">  1  5  2 -1</clus>
<clus scale="   52.814">  1  4  2 -1</clus>
<clus scale="   87.018">  1  3  2 -1</clus>
<clus scale="   60.443">  1  3  2 -1</clus>
</clustering>
</event>
<event>
 6    0  0.4945982E+002  0.1667944E+03  0.7546771E-02  0.1181233E+00
         21   -1    0    0  504  502  0.00000000000E+00  0.00000000000E+00  0.26075911409E+03  0.26075911409E+03  0.00000000000E+00 0. -1.
          3   -1    0    0  503    0 -0.00000000000E+00 -0.00000000000E+00 -0.21546755942E+03  0.21546755942E+03  0.00000000000E+00 0. -1.
         21    1    1    2  503  502 -0.54251042560E+02  0.14392944568E+03  0.46371624972E+02  0.16065238421E+03  0.00000000000E+00 0. -1.
         21    1    1    2  504  505  0.30153980754E+02 -0.57198139123E+02  0.16016010919E+02  0.66613829497E+02  0.00000000000E+00 0. -1.
         21    1    1    2  505  501 -0.16021397946E+02 -0.93880770990E+02  0.92052073674E+02  0.13245326958E+03  0.00000000000E+00 0. -1.
          3    1    1    2  501    0  0.40118459752E+02  0.71494644379E+01 -0.10914815490E+03  0.11650719022E+03  0.00000000000E+00 0. -1.
<scales pt_clust_3="151.31402" pt_clust_4="60.23031" pt_clust_5="60.23031" pt_clust_6="40.75053"></scales>
<clustering>
<clus scale="   40.751">  2  6  1 -1</clus>
<clus scale="   60.230">  4  5 -1 -1</clus>
<clus scale="  151.314">  2  3  1 -1</clus>
<clus scale="  166.794">  1  3  2 -1</clus>
</clustering>
</event>
<event>
 6    0  0.4945982E+002  0.9255565E+02  0.7546771E-02  0.1296778E+00
          2   -1    0    0  505    0 -0.00000000000E+00  0.00000000000E+00  0.33414067843E+04  0.33414067843E+04  0.00000000000E+00 0. -1.
         21   -1    0    0  503  502  0.00000000000E+00 -0.00000000000E+00 -0.48471380107E+02  0.48471380107E+02  0.00000000000E+00 0.  1.
         21    1    1    2  503  504  0.32028325630E+01 -0.91240415488E+02  0.48712899915E+02  0.10347955437E+03  0.00000000000E+00 0.  1.
         21    1    1    2  504  501  0.10155706284E+03  0.56790737071E+02  0.20399431067E+03  0.23484612753E+03  0.00000000000E+00 0. -1.
         21    1    1    2  505  502 -0.49273412874E+02 -0.19950499602E+00  0.10928784978E+03  0.11988220521E+03  0.00000000000E+00 0.  1.
          2    1    1    2  501    0 -0.55486482530E+02  0.34649183413E+02  0.29309403438E+04  0.29316702773E+04  0.00000000000E+00 0. -1.
<scales pt_clust_3="92.55565" pt_clust_4="14000.00000" pt_clust_5="49.27382" pt_clust_6="65.76926"></scales>
<clustering>
<clus scale="   49.274">  2  5  1 -1</clus>
<clus scale="   65.769">  1  6  2 -1</clus>
<clus scale="   92.556">  2  3  1 -1</clus>
<clus scale="   49.274">  2  3  1 -1</clus>
</clustering>
</event>
<event>
 6    0  0.4945982E+002  0.1306558E+03  0.7546771E-02  0.1226486E+00
         21   -1    0    0  503  502  0.00000000000E+00  0.00000000000E+00  0.66207037195E+03  0.66207037195E+03  0.00000000000E+00 0.  1.
          3   -1    0    0  504    0 -0.00000000000E+00 -0.00000000000E+00 -0.53124357715E+02  0.53124357715E+02  0.00000000000E+00 0. -1.
         21    1    1    2  503  505 -0.11878748396E+03  0.29378186457E+02  0.45224825254E+03  0.46851043330E+03  0.00000000000E+00 0.  1.
         21    1    1    2  504  502  0.16938233353E+02  0.30510757082E+02  0.96923901178E+02  0.10301481770E+03  0.00000000000E+00 0.  1.
         21    1    1    2  505  501  0.34151476117E+02 -0.35739953561E+02  0.51389619262E+02  0.71306104713E+02  0.00000000000E+00 0. -1.
          3    1    1    2  501    0  0.67697774492E+02 -0.24148989979E+02  0.83842412577E+01  0.72363373951E+02  0.00000000000E+00 0. -1.
<scales pt_clust_3="118.16463" pt_clust_4="34.89714" pt_clust_5="45.62389" pt_clust_6="45.62389"></scales>
<clustering>
<clus scale="   34.897">  1  4  2 -1</clus>
<clus scale="   45.624">  5  6 -1 -1</clus>
<clus scale="  118.165">  1  3  2 -1</clus>
<clus scale="   34.897">  1  3  2 -1</clus>
</clustering>
</event>
<event>
 6    0  0.4945982E+002  0.1046703E+03  0.7546771E-02  0.1270770E+00
         21   -1    0    0  501  502  0.00000000000E+00  0.00000000000E+00  0.11912859341E+04  0.11912859341E+04  0.00000000000E+00 0.  1.
          1   -1    0    0  503    0 -0.00000000000E+00 -0.00000000000E+00 -0.10365205775E+04  0.10365205775E+04  0.00000000000E+00 0. -1.
         21    1    1    2  503  504 -0.25751582710E+02 -0.83762555518E+02 -0.28261922046E+03  0.29589344956E+03  0.00000000000E+00 0. -1.
         21    1    1    2  504  505  0.10701019204E+03  0.54928458521E+01 -0.32208610173E+01  0.10719947062E+03  0.00000000000E+00 0.  1.
         21    1    1    2  505  502 -0.89480928591E+01  0.65269821081E+02  0.11297472596E+04  0.11316665094E+04  0.00000000000E+00 0.  1.
          1    1    1    2  501    0 -0.72310516468E+02  0.12999888585E+02 -0.68914182149E+03  0.69304708211E+03  0.00000000000E+00 0. -1.
<scales pt_clust_3="14000.00000" pt_clust_4="104.67034" pt_clust_5="65.88033" pt_clust_6="74.15341"></scales>
<clustering>
<clus scale="   65.880">  1  5  2 -1</clus>
<clus scale="   74.153">  2  6  1 -1</clus>
<clus scale="  104.670">  1  4  2 -1</clus>
<clus scale="   65.880">  1  3  2 -1</clus>
</clustering>
</event>
<event>
 6    0  0.4945982E+002  0.1376914E+03  0.7546771E-02  0.1216470E+00
         21   -1    0    0  504  502  0.00000000000E+00  0.00000000000E+00  0.11972925638E+04  0.11972925638E+04  0.00000000000E+00 0. -1.
          1   -1    0    0  503    0 -0.00000000000E+00 -0.00000000000E+00 -0.39438051162E+03  0.39438051162E+03  0.00000000000E+00 0. -1.
         21    1    1    2  503  502 -0.55639527644E+02 -0.13664331693E+02  0.71823545592E+03  0.72051692634E+03  0.00000000000E+00 0. -1.
         21    1    1    2  504  505 -0.76992349575E+02  0.61984125735E+02  0.40996867907E+03  0.42171574734E+03  0.00000000000E+00 0.  1.
         21    1    1    2  505  501  0.17338087532E+03 -0.12709859957E+02 -0.68249757414E+02  0.18676321333E+03  0.00000000000E+00 0. -1.
          1    1    1    2  501    0 -0.40748998100E+02 -0.35609934086E+02 -0.25704232541E+03  0.26267718840E+03  0.00000000000E+00 0. -1.
<scales pt_clust_3="57.70084" pt_clust_4="137.69135" pt_clust_5="14000.00000" pt_clust_6="54.11606"></scales>
<clustering>
<clus scale="   54.116">  2  6  1 -1</clus>
<clus scale="   57.701">  1  3  2 -1</clus>
<clus scale="  137.691">  1  4  2 -1</clus>
<clus scale="   57.701">  1  3  2 -1</clus>
</clustering>
</event>
<event>
 6    0  0.4945982E+002  0.8366939E+02  0.7546771E-02  0.1318949E+00
         21   -1    0    0  503  502  0.00000000000E+00  0.00000000000E+00  0.23276882771E+03  0.23276882771E+03  0.00000000000E+00 0.  1.
          2   -1    0    0  504    0 -0.00000000000E+00 -0.00000000000E+00 -0.21371865577E+04  0.21371865577E+04  0.00000000000E+00 0.  1.
         21    1    1    2  503  501  0.27386044443E+02 -0.22258834520E+02  0.67246522098E+02  0.75944360414E+02  0.00000000000E+00 0. -1.
         21    1    1    2  504  505  0.83220657693E+02  0.20212871100E+02  0.45261386326E+02  0.96865014929E+02  0.00000000000E+00 0.  1.
         21    1    1    2  505  502 -0.81430205542E+02 -0.32809578122E+02  0.68420461192E+02  0.11130456550E+03  0.00000000000E+00 0.  1.
          2    1    1    2  501    0 -0.29176496594E+02  0.34855541543E+02 -0.20853460996E+04  0.20858414445E+04  0.00000000000E+00 0.  1.
<scales pt_clust_3="35.29095" pt_clust_4="14000.00000" pt_clust_5="83.66939" pt_clust_6="45.40198"></scales>
<clustering>
<clus scale="   35.291">  1  3  2 -1</clus>
<clus scale="   45.402">  2  6  1 -1</clus>
<clus scale="   83.669">  1  5  2 -1</clus>
<clus scale="   35.291">  1  3  2 -1</clus>
</clustering>
</event>
<event>
 6    0  0.4945982E+002  0.1738422E+03  0.7546771E-02  0.1173899E+00
         -2   -1    0    0    0  501 -0.00000000000E+00  0.00000000000E+00  0.22843445466E+04  0.22843445466E+04  0.00000000000E+00 0. -1.
         21   -1    0    0  505  502  0.00000000000E+00 -0.00000000000E+00 -0.42978649860E+03  0.42978649860E+03  0.00000000000E+00 0. -1.
         21    1    1    2  503  501  0.15115894977E+03 -0.47505058483E+02  0.37583278145E+03  0.40786767252E+03  0.00000000000E+00 0. -1.
         21    1    1    2  504  502 -0.19191980854E+03 -0.69706929062E+02 -0.35138565329E+03  0.40640392002E+03  0.00000000000E+00 0. -1.
         21    1    1    2  505  503  0.19711691487E+02  0.35969442551E+02 -0.21525757499E+02  0.46321807117E+02  0.00000000000E+00 0. -1.
         -2    1    1    2    0  504  0.21049167279E+02  0.81242544994E+02  0.18516366774E+04  0.18535376456E+04  0.00000000000E+00 0. -1.
<scales pt_clust_3="14000.00000" pt_clust_4="173.84221" pt_clust_5="41.01648" pt_clust_6="84.02055"></scales>
<clustering>
<clus scale="   41.016">  2  5  1 -1</clus>
<clus scale="   84.021">  1  6  2 -1</clus>
<clus scale="  173.842">  2  4  1 -1</clus>
<clus scale="   41.016">  2  3  1 -1</clus>
</clustering>
</event>
<event>
 6    0  0.4945982E+002  0.1823437E+03  0.7546771E-02  0.1165554E+00
         21   -1    0    0  505  502  0.00000000000E+00  0.00000000000E+00  0.11311492001E+03  0.11311492001E+03  0.00000000000E+00 0.  1.
          2   -1    0    0  503    0 -0.00000000000E+00 -0.00000000000E+00 -0.10698372545E+04  0.10698372545E+04  0.00000000000E+00 0.  1.
         21    1    1    2  503  504  0.11311079606E+03 -0.23763158847E+02 -0.20594611362E+03  0.23616210877E+03  0.00000000000E+00 0.  1.
         21    1    1    2  504  502  0.68924022079E+02  0.24816761243E+02 -0.90043338592E+02  0.11607840145E+03  0.00000000000E+00 0.  1.
         21    1    1    2  505  501 -0.16869110199E+03  0.28889965739E+02 -0.19951129252E+01  0.17115869386E+03  0.00000000000E+00 0.  1.
          2    1    1    2  501    0 -0.13343716152E+02 -0.29943568136E+02 -0.65873776937E+03  0.65955297045E+03  0.00000000000E+00 0.  1.
<scales pt_clust_3="44.64064" pt_clust_4="44.64064" pt_clust_5="172.98379" pt_clust_6="32.78219"></scales>
<clustering>
<clus scale="   32.782">  2  6  1 -1</clus>
<clus scale="   44.641">  3  4 -1 -1</clus>
<clus scale="  172.984">  1  5  2 -1</clus>
<clus scale="  172.984">  1  3  2 -1</clus>
</clustering>
</event>
<event>
 6    0  0.4945982E+002  0.1335364E+03  0.7546771E-02  0.1222301E+00
         21   -1    0    0  505  502  0.00000000000E+00  0.00000000000E+00  0.18525289766E+03  0.18525289766E+03  0.00000000000E+00 0. -1.
          1   -1    0    0  504    0 -0.00000000000E+00 -0.00000000000E+00 -0.79901415243E+03  0.79901415243E+03  0.00000000000E+00 0. -1.
         21    1    1    2  503  501  0.29243821898E+02  0.55071191849E+02 -0.40530391740E+02  0.74369011997E+02  0.00000000000E+00 0.  1.
         21    1    1    2  504  502 -0.75989323842E+02 -0.13410326173E+03 -0.76690849390E+02  0.17216140254E+03  0.00000000000E+00 0. -1.
         21    1    1    2  505  503  0.75275013529E+02  0.10362477988E+03  0.85811132550E+02  0.15416865160E+03  0.00000000000E+00 0. -1.
          1    1    1    2  501    0 -0.28529511586E+02 -0.24592710003E+02 -0.58235114620E+03  0.58356798395E+03  0.00000000000E+00 0. -1.
<scales pt_clust_3="53.14511" pt_clust_4="133.53642" pt_clust_5="14000.00000" pt_clust_6="37.66609"></scales>
<clustering>
<clus scale="   37.666">  2  6  1 -1</clus>
<clus scale="   53.145">  2  3  1 -1</clus>
<clus scale="  133.536">  2  4  1 -1</clus>
<clus scale="  133.536">  1  3  2 -1</clus>
</clustering>
</event>
<event>
 6    0  0.4945982E+002  0.1188026E+03  0.7546771E-02  0.1245086E+00
         21   -1    0    0  503  502  0.00000000000E+00  0.00000000000E+00  0.26052950525E+02  0.26052950525E+02  0.00000000000E+00 0. -1.
         -1   -1    0    0    0  501 -0.00000000000E+00 -0.00000000000E+00 -0.14566815156E+04  0.14566815156E+04  0.00000000000E+00 0.  1.
         21    1    1    2  503  501 -0.10190636675E+03  0.24139975923E+01 -0.14521690615E+03  0.17742233456E+03  0.00000000000E+00 0. -1.
         21    1    1    2  504  505  0.17410636339E+02 -0.35133214442E+02 -0.43170662068E+03  0.43348365523E+03  0.00000000000E+00 0.  1.
         21    1    1    2  505  502  0.39593735103E+01  0.44493176882E+02 -0.64615955818E+02  0.78552792273E+02  0.00000000000E+00 0. -1.
         -1    1    1    2    0  504  0.80536356900E+02 -0.11773960032E+02 -0.78908908244E+03  0.79327568407E+03  0.00000000000E+00 0.  1.
<scales pt_clust_3="106.35609" pt_clust_4="36.74323" pt_clust_5="44.66900" pt_clust_6="36.74323"></scales>
<clustering>
<clus scale="   36.743">  4  6 -1 -1</clus>
<clus scale="   44.669">  1  5  2 -1</clus>
<clus scale="  106.356">  1  3  2 -1</clus>
<clus scale="   44.669">  1  3  2 -1</clus>
</clustering>
</event>
<event>
 6    0  0.4945982E+002  0.1455608E+03  0.7546771E-02  0.1206036E+00
         21   -1    0    0  505  502  0.00000000000E+00  0.00000000000E+00  0.12795797490E+03  0.12795797490E+03  0.00000000000E+00 0.  1.
         -1   -1    0    0    0  501 -0.00000000000E+00 -0.00000000000E+00 -0.82764974755E+03  0.82764974755E+03  0.00000000000E+00 0.  1.
         21    1    1    2  503  502  0.74499337066E+02 -0.11630091101E+03 -0.92662586688E+02  0.16632019750E+03  0.00000000000E+00 0.  1.
         21    1    1    2  504  501 -0.10286891278E+03  0.13023002502E+03 -0.11666407785E+03  0.20286049318E+03  0.00000000000E+00 0.  1.
         21    1    1    2  505  504  0.27345191570E+02 -0.56580750508E+02  0.26213012519E+02  0.68090108352E+02  0.00000000000E+00 0.  1.
         -1    1    1    2    0  503  0.10243841417E+01  0.42651636499E+02 -0.51657812062E+03  0.51833692341E+03  0.00000000000E+00 0.  1.
<scales pt_clust_3="14000.00000" pt_clust_4="145.56084" pt_clust_5="60.29442" pt_clust_6="42.66394"></scales>
<clustering>
<clus scale="   42.664">  2  6  1 -1</clus>
<clus scale="   60.294">  1  5  2 -1</clus>
<clus scale="  145.561">  1  4  2 -1</clus>
<clus scale="   60.294">  1  3  2 -1</clus>
</clustering>
</event>
<event>
 6    0  0.4945982E+002  0.1005511E+03  0.7546771E-02  0.1279141E+00
          1   -1    0    0  504    0 -0.00000000000E+00  0.00000000000E+00  0.49062465381E+04  0.49062465381E+04  0.00000000000E+00 0.  1.
         21   -1    0    0  505  502  0.00000000000E+00 -0.00000000000E+00 -0.25012633683E+02  0.25012633683E+02  0.00000000000E+00 0.  1.
         21    1    1    2  503  502  0.21201904349E+02 -0.35762679478E+02  0.13982820706E+03  0.14587809116E+03  0.00000000000E+00 0.  1.
         21    1    1    2  504  503 -0.65683023043E+02 -0.63991097181E+02  0.48083161038E+03  0.48949786269E+03  0.00000000000E+00 0.  1.
         21    1    1    2  505  501  0.35419092842E+02 -0.46935328010E+01  0.17527841569E+01  0.35771687690E+02  0.00000000000E+00 0.  1.
          1    1    1    2  501    0  0.90620258522E+01  0.10444730946E+03  0.42588213028E+04  0.42601115302E+04  0.00000000000E+00 0.  1.
<scales pt_clust_3="51.04325" pt_clust_4="14000.00000" pt_clust_5="35.72872" pt_clust_6="100.55106"></scales>
<clustering>
<clus scale="   35.729">  2  5  1 -1</clus>
<clus scale="   51.043">  2  3  1 -1</clus>
<clus scale="  100.551">  1  6  2 -1</clus>
<clus scale="   35.729">  2  3  1 -1</clus>
</clustering>
</event>
<event>
 6    0  0.4945982E+002  0.8578851E+02  0.7546771E-02  0.1313383E+00
          2   -1    0    0  504    0 -0.00000000000E+00  0.00000000000E+00  0.34098219764E+04  0.34098219764E+04  0.00000000000E+00 0. -1.
         21   -1    0    0  505  502  0.00000000000E+00 -0.00000000000E+00 -0.43967882297E+02  0.43967882297E+02  0.00000000000E+00 0. -1.
         21    1    1    2  503  502 -0.34008116695E+02  0.62997397646E+02  0.99273951122E+02  0.12239502230E+03  0.00000000000E+00 0.  1.
         21    1    1    2  504  503  0.12484220179E+03 -0.59907329733E+02  0.72049909262E+03  0.73368481378E+03  0.00000000000E+00 0.  1.
         21    1    1    2  505  501 -0.31708846006E+02 -0.14064813948E+02 -0.13646677340E+02  0.37276020561E+02  0.00000000000E+00 0. -1.
          2    1    1    2  501    0 -0.59125239092E+02  0.10974746035E+02  0.25597277277E+04  0.25604340021E+04  0.00000000000E+00 0. -1.
<scales pt_clust_3="14000.00000" pt_clust_4="85.78851" pt_clust_5="34.68818" pt_clust_6="60.68225"></scales>
<clustering>
<clus scale="   34.688">  2  5  1 -1</clus>
<clus scale="   60.682">  1  6  2 -1</clus>
<clus scale="   85.789">  1  4  2 -1</clus>
<clus scale="   34.688">  2  3  1 -1</clus>
</clustering>
</event>
<event>
 6    0  0.4945982E+002  0.1403332E+03  0.7546771E-02  0.1212881E+00
          1   -1    0    0  504    0 -0.00000000000E+00  0.00000000000E+00  0.70337966039E+03  0.70337966039E+03  0.00000000000E+00 0. -1.
         21   -1    0    0  505  502  0.00000000000E+00 -0.00000000000E+00 -0.10116266778E+04  0.10116266778E+04  0.00000000000E+00 0.  1.
         21    1    1    2  503  501 -0.71621266538E+02  0.11630280730E+03 -0.54355699744E+03  0.56045531336E+03  0.00000000000E+00 0.  1.
         21    1    1    2  504  502  0.15900229433E+02 -0.28103270237E+02 -0.28674433131E+02  0.43183726210E+02  0.00000000000E+00 0.  1.
         21    1    1    2  505  503  0.19633230618E+02  0.47541722249E+02 -0.41491481985E+03  0.41809088346E+03  0.00000000000E+00 0.  1.
          1    1    1    2  501    0  0.36087806487E+02 -0.13574125932E+03  0.67889923301E+03  0.69327641517E+03  0.00000000000E+00 0. -1.
<scales pt_clust_3="140.33325" pt_clust_4="32.28949" pt_clust_5="44.28888" pt_clust_6="14000.00000"></scales>
<clustering>
<clus scale="   32.289">  2  4  1 -1</clus>
<clus scale="   44.289">  2  5  1 -1</clus>
<clus scale="  140.333">  2  3  1 -1</clus>
<clus scale="   32.289">  2  3  1 -1</clus>
</clustering>
</event>
<event>
 6    0  0.4945982E+002  0.1464572E+03  0.7546771E-02  0.1204895E+00
         21   -1    0    0  504  502  0.00000000000E+00  0.00000000000E+00  0.17938032048E+03  0.17938032048E+03  0.00000000000E+00 0. -1.
          2   -1    0    0  505    0 -0.00000000000E+00 -0.00000000000E+00 -0.17489907764E+04  0.17489907764E+04  0.00000000000E+00 0.  1.
         21    1    1    2  503  501 -0.30983991431E+02  0.97924395434E+02 -0.19414167075E+02  0.10452800978E+03  0.00000000000E+00 0. -1.
         21    1    1    2  504  503 -0.21497834941E+02  0.67191172531E+02  0.59622131955E+02  0.92366710410E+02  0.00000000000E+00 0. -1.
         21    1    1    2  505  502 -0.20610027334E+02 -0.71371459833E+02  0.35174343024E+02  0.82194238925E+02  0.00000000000E+00 0. -1.
          2    1    1    2  501    0  0.73091853706E+02 -0.93744108132E+02 -0.16449927638E+04  0.16492821378E+04  0.00000000000E+00 0.  1.
<scales pt_clust_3="69.99708" pt_clust_4="69.99708" pt_clust_5="74.28767" pt_clust_6="119.65099"></scales>
<clustering>
<clus scale="   69.997">  3  4 -1 -1</clus>
<clus scale="   74.288">  1  5  2 -1</clus>
<clus scale="  119.651">  2  6  1 -1</clus>
<clus scale="   74.288">  1  3  2 -1</clus>
</clustering>
</event>
<event>
 6    0  0.4945982E+002  0.1263049E+03  0.7546771E-02  0.1233044E+00
          1   -1    0    0  505    0 -0.00000000000E+00  0.00000000000E+00  0.56388230450E+02  0.56388230450E+02  0.00000000000E+00 0.  1.
         21   -1    0    0  504  502  0.00000000000E+00 -0.00000000000E+00 -0.91603185485E+03  0.91603185485E+03  0.00000000000E+00 0.  1.
         21    1    1    2  503  501  0.39224703510E+02 -0.13252382952E+02 -0.61761438933E+02  0.74355082937E+02  0.00000000000E+00 0.  1.
         21    1    1    2  504  503  0.42053311897E+02 -0.45862697559E+02 -0.22832327369E+03  0.23665034413E+03  0.00000000000E+00 0.  1.
         21    1    1    2  505  502 -0.13145945544E+03  0.18670114748E+02 -0.58097961941E+03  0.59595929373E+03  0.00000000000E+00 0.  1.
          1    1    1    2  501    0  0.50181440037E+02  0.40444965763E+02  0.11420707632E+02  0.65455364506E+02  0.00000000000E+00 0.  1.
<scales pt_clust_3="40.57715" pt_clust_4="40.57715" pt_clust_5="116.09649" pt_clust_6="64.45132"></scales>
<clustering>
<clus scale="   40.577">  3  4 -1 -1</clus>
<clus scale="   64.451">  1  6  2 -1</clus>
<clus scale="  116.096">  2  5  1 -1</clus>
<clus scale="  116.096">  2  3  1 -1</clus>
</clustering>
</event>
<event>
 6    0  0.4945982E+002  0.2036388E+03  0.7546771E-02  0.1146705E+00
         21   -1    0    0  505  502  0.00000000000E+00  0.00000000000E+00  0.37601303898E+03  0.37601303898E+03  0.00000000000E+00 0. -1.
          2   -1    0    0  503    0 -0.00000000000E+00 -0.00000000000E+00 -0.39742228159E+03  0.39742228159E+03  0.00000000000E+00 0.  1.
         21    1    1    2  503  504 -0.13038170698E+03  0.40600244100E+02  0.24742163686E+03  0.28260438022E+03  0.00000000000E+00 0. -1.
         21    1    1    2  504  502 -0.28414418104E+02  0.45442486583E+02  0.38339931959E+02  0.65896503136E+02  0.00000000000E+00 0. -1.
         21    1    1    2  505  501  0.18372655229E+03 -0.11186531474E+03 -0.14637812347E+03  0.26018426103E+03  0.00000000000E+00 0. -1.
          2    1    1    2  501    0 -0.24930427206E+02  0.25822584053E+02 -0.16079268797E+03  0.16475017618E+03  0.00000000000E+00 0.  1.
<scales pt_clust_3="53.61017" pt_clust_4="53.61017" pt_clust_5="185.18947" pt_clust_6="35.89334"></scales>
<clustering>
<clus scale="   35.893">  2  6  1 -1</clus>
<clus scale="   53.610">  3  4 -1 -1</clus>
<clus scale="  185.189">  2  5  1 -1</clus>
<clus scale="  203.639">  1  3  2 -1</clus>
</clustering>
</event>
<event>
 6    0  0.4945982E+002  0.8761266E+02  0.7546771E-02  0.1308738E+00
         21   -1    0    0  503  502  0.00000000000E+00  0.00000000000E+00  0.21712514526E+03  0.21712514526E+03  0.00000000000E+00 0.  1.
         -2   -1    0    0    0  501 -0.00000000000E+00 -0.00000000000E+00 -0.25771339231E+03  0.25771339231E+03  0.00000000000E+00 0.  1.
         21    1    1    2  503  505 -0.22168478362E+02  0.78281742977E+02  0.12419868693E+03  0.14847486841E+03  0.00000000000E+00 0.  1.
         21    1    1    2  504  502 -0.46680144466E+02 -0.10381859310E+02  0.33459521603E+02  0.58364016963E+02  0.00000000000E+00 0.  1.
         21    1    1    2  505  501  0.96781397749E+02 -0.16900746893E+02 -0.53185230671E+02  0.11171814068E+03  0.00000000000E+00 0.  1.
         -2    1    1    2    0  504 -0.27932774920E+02 -0.50999136774E+02 -0.14506122491E+03  0.15628151151E+03  0.00000000000E+00 0.  1.
<scales pt_clust_3="14000.00000" pt_clust_4="47.82070" pt_clust_5="87.61266" pt_clust_6="59.19253"></scales>
<clustering>
<clus scale="   47.821">  1  4  2 -1</clus>
<clus scale="   59.193">  2  6  1 -1</clus>
<clus scale="   87.613">  2  5  1 -1</clus>
<clus scale="   47.821">  1  3  2 -1</clus>
</clustering>
</event>
<event>
 6    0  0.4945982E+002  0.9025171E+02  0.7546771E-02  0.1302243E+00
         21   -1    0    0  504  502  0.00000000000E+00  0.00000000000E+00  0.28440808094E+03  0.28440808094E+03  0.00000000000E+00 0.  1.
          1   -1    0    0  505    0 -0.00000000000E+00 -0.00000000000E+00 -0.46410714907E+03  0.46410714907E+03  0.00000000000E+00 0. -1.
         21    1    1    2  503  502  0.33970504593E+02  0.32155253355E+02  0.92557991993E+02  0.10370601421E+03  0.00000000000E+00 0.  1.
         21    1    1    2  504  501 -0.41207478170E+02  0.10205242075E+02  0.41415408636E+02  0.59308003638E+02  0.00000000000E+00 0.  1.
         21    1    1    2  505  503  0.85108320840E+02 -0.86076971295E+02  0.10326256834E+03  0.15910948835E+03  0.00000000000E+00 0.  1.
          1    1    1    2  501    0 -0.77871347263E+02  0.43716475865E+02 -0.41693503709E+03  0.42639172382E+03  0.00000000000E+00 0. -1.
<scales pt_clust_3="40.07616" pt_clust_4="42.45236" pt_clust_5="90.25171" pt_clust_6="14000.00000"></scales>
<clustering>
<clus scale="   42.452">  1  4  2 -1</clus>
<clus scale="   40.076">  1  3  2 -1</clus>
<clus scale="   90.252">  1  5  2 -1</clus>
<clus scale="   42.452">  1  3  2 -1</clus>
</clustering>
</event>
<event>
 6    0  0.4945982E+002  0.7158007E+02  0.7546771E-02  0.1354801E+00
         21   -1    0    0  503  502  0.00000000000E+00  0.00000000000E+00  0.30465640675E+03  0.30465640675E+03  0.00000000000E+00 0.  1.
          2   -1    0    0  505    0 -0.00000000000E+00 -0.00000000000E+00 -0.74485047000E+03  0.74485047000E+03  0.00000000000E+00 0. -1.
         21    1    1    2  503  504  0.61287019346E+02  0.19424985384E+02  0.17621708939E+03  0.18757902705E+03  0.00000000000E+00 0.  1.
         21    1    1    2  504  501  0.45816779961E+02  0.22577816976E+02  0.31712049228E+01  0.51176085099E+02  0.00000000000E+00 0. -1.
         21    1    1    2  505  502 -0.12246108760E+03 -0.69182847815E+02  0.43275673523E+02  0.14715898996E+03  0.00000000000E+00 0.  1.
          2    1    1    2  501    0  0.15357288295E+02  0.27180045454E+02 -0.66285803109E+03  0.66359277464E+03  0.00000000000E+00 0. -1.
<scales pt_clust_3="14000.00000" pt_clust_4="58.88909" pt_clust_5="71.58007" pt_clust_6="31.21860"></scales>
<clustering>
<clus scale="   31.219">  2  6  1 -1</clus>
<clus scale="   58.889">  2  4  1 -1</clus>
<clus scale="   71.580">  2  5  1 -1</clus>
<clus scale="   71.580">  1  3  2 -1</clus>
</clustering>
</event>
<event>
 6    0  0.4945982E+002  0.8210396E+02  0.7546771E-02  0.1323185E+00
         -1   -1    0    0    0  501 -0.00000000000E+00  0.00000000000E+00  0.32411380657E+03  0.32411380657E+03  0.00000000000E+00 0.  1.
         21   -1    0    0  504  502  0.00000000000E+00 -0.00000000000E+00 -0.20867594143E+03  0.20867594143E+03  0.00000000000E+00 0.  1.
         21    1    1    2  503  502  0.35295286331E+02  0.76879626206E+01  0.20004411473E+01  0.36178222334E+02  0.00000000000E+00 0.  1.
         21    1    1    2  504  501  0.94248393065E+01  0.41839805154E+02 -0.36890429583E+02  0.56571200147E+02  0.00000000000E+00 0. -1.
         21    1    1    2  505  503  0.27905909796E+02 -0.89117293449E+02 -0.12302137399E+03  0.15445028407E+03  0.00000000000E+00 0.  1.
         -1    1    1    2    0  505 -0.72626035434E+02  0.39589525674E+02  0.27334922756E+03  0.28559004144E+03  0.00000000000E+00 0.  1.
<scales pt_clust_3="36.12287" pt_clust_4="47.28871" pt_clust_5="82.10396" pt_clust_6="14000.00000"></scales>
<clustering>
<clus scale="   36.123">  2  3  1 -1</clus>
<clus scale="   47.289">  2  4  1 -1</clus>
<clus scale="   82.104">  2  5  1 -1</clus>
<clus scale="   36.123">  2  3  1 -1</clus>
</clustering>
</event>
<event>
 6    0  0.4945982E+002  0.8573151E+02  0.7546771E-02  0.1313531E+00
         21   -1    0    0  503  502  0.00000000000E+00  0.00000000000E+00  0.15111424141E+03  0.15111424141E+03  0.00000000000E+00 0. -1.
         -3   -1    0    0    0  501 -0.00000000000E+00 -0.00000000000E+00 -0.34339328456E+03  0.34339328456E+03  0.00000000000E+00 0. -1.
         21    1    1    2  503  501 -0.74966317111E+02 -0.13589123324E+02  0.97044026205E+01  0.76803570256E+02  0.00000000000E+00 0. -1.
         21    1    1    2  504  502  0.92633501642E+02  0.31334039137E+00  0.72969423894E+02  0.11792201080E+03  0.00000000000E+00 0. -1.
         21    1    1    2  505  504 -0.58187469338E+02  0.96523413238E+01 -0.73388848457E+02  0.94153451125E+02  0.00000000000E+00 0. -1.
         -3    1    1    2    0  505  0.40520284806E+02  0.36234416084E+01 -0.20156402121E+03  0.20562849379E+03  0.00000000000E+00 0. -1.
<scales pt_clust_3="85.73151" pt_clust_4="14000.00000" pt_clust_5="35.90874" pt_clust_6="40.68197"></scales>
<clustering>
<clus scale="   40.682">  2  6  1 -1</clus>
<clus scale="   35.909">  2  5  1 -1</clus>
<clus scale="   85.732">  2  3  1 -1</clus>
<clus scale="   85.732">  1  3  2 -1</clus>
</clustering>
</event>
<event>
 6    0  0.4945982E+002  0.1821910E+03  0.7546771E-02  0.1165699E+00
          1   -1    0    0  504    0 -0.00000000000E+00  0.00000000000E+00  0.10573152231E+04  0.10573152231E+04  0.00000000000E+00 0. -1.
         21   -1    0    0  503  502  0.00000000000E+00 -0.00000000000E+00 -0.80968284508E+02  0.80968284508E+02  0.00000000000E+00 0.  1.
         21    1    1    2  503  505 -0.11884622352E+03 -0.29429924683E+02  0.56768033958E+02  0.13495612246E+03  0.00000000000E+00 0.  1.
         21    1    1    2  504  502  0.22300899429E+02 -0.35044369556E+02  0.98005537912E+02  0.10644493137E+03  0.00000000000E+00 0. -1.
         21    1    1    2  505  501 -0.41961705935E+02 -0.37465701896E+02 -0.12614837903E+01  0.56267707656E+02  0.00000000000E+00 0.  1.
          1    1    1    2  501    0  0.13850703002E+03  0.10193999613E+03  0.82283485054E+03  0.84061474615E+03  0.00000000000E+00 0. -1.
<scales pt_clust_3="38.05132" pt_clust_4="41.53839" pt_clust_5="38.05132" pt_clust_6="173.32684"></scales>
<clustering>
<clus scale="   38.051">  3  5 -1 -1</clus>
<clus scale="   41.538">  1  4  2 -1</clus>
<clus scale="  173.327">  1  6  2 -1</clus>
<clus scale="  182.191">  2  3  1 -1</clus>
</clustering>
</event>
<event>
 6    0  0.4945982E+002  0.2431342E+03  0.7546771E-02  0.1117722E+00
          2   -1    0    0  505    0 -0.00000000000E+00  0.00000000000E+00  0.86847419825E+03  0.86847419825E+03  0.00000000000E+00 0. -1.
         21   -1    0    0  501  502  0.00000000000E+00 -0.00000000000E+00 -0.12154581386E+04  0.12154581386E+04  0.00000000000E+00 0. -1.
         21    1    1    2  503  504 -0.53390313628E+02 -0.21122192174E+03 -0.29680941250E+03  0.36818616645E+03  0.00000000000E+00 0. -1.
         21    1    1    2  504  502  0.14059367699E+03  0.22113284145E+03 -0.81181579855E+03  0.85305990783E+03  0.00000000000E+00 0. -1.
         21    1    1    2  505  503 -0.67474585942E+02 -0.35276967051E+02 -0.21317886101E+02  0.79067922827E+02  0.00000000000E+00 0. -1.
          2    1    1    2  501    0 -0.19728777421E+02  0.25366047346E+02  0.78295915684E+03  0.78361833969E+03  0.00000000000E+00 0. -1.
<scales pt_clust_3="14000.00000" pt_clust_4="243.13417" pt_clust_5="78.81468" pt_clust_6="32.13504"></scales>
<clustering>
<clus scale="   32.135">  1  6  2 -1</clus>
<clus scale="   78.815">  1  5  2 -1</clus>
<clus scale="  243.134">  2  4  1 -1</clus>
<clus scale="  243.134">  2  3  1 -1</clus>
</clustering>
</event>
<event>
 6    0  0.4945982E+002  0.2603790E+03  0.7546771E-02  0.1106916E+00
         21   -1    0    0  503  502  0.00000000000E+00  0.00000000000E+00  0.58297586952E+03  0.58297586952E+03  0.00000000000E+00 0. -1.
         -1   -1    0    0    0  501 -0.00000000000E+00 -0.00000000000E+00 -0.82585861505E+03  0.82585861505E+03  0.00000000000E+00 0.  1.
         21    1    1    2  503  505 -0.12882316265E+03  0.28991938879E+03  0.27479279461E+03  0.41971387778E+03  0.00000000000E+00 0. -1.
         21    1    1    2  504  502  0.31639379734E+02 -0.21665796005E+03  0.14695784197E+03  0.26370121221E+03  0.00000000000E+00 0.  1.
         21    1    1    2  505  501  0.10775645417E+03 -0.38465533250E+02 -0.79892617964E+02  0.13954884832E+03  0.00000000000E+00 0. -1.
         -1    1    1    2    0  504 -0.10572671254E+02 -0.34795895486E+02 -0.58474076414E+03  0.58587054626E+03  0.00000000000E+00 0.  1.
<scales pt_clust_3="14000.00000" pt_clust_4="260.37903" pt_clust_5="116.39539" pt_clust_6="36.36668"></scales>
<clustering>
<clus scale="   36.367">  2  6  1 -1</clus>
<clus scale="  116.395">  2  5  1 -1</clus>
<clus scale="  260.379">  1  4  2 -1</clus>
<clus scale="  260.379">  1  3  2 -1</clus>
</clustering>
</event>
<event>
 6    0  0.4945982E+002  0.1519863E+03  0.7546771E-02  0.1198053E+00
         21   -1    0    0  501  502  0.00000000000E+00  0.00000000000E+00  0.47567637915E+03  0.47567637915E+03  0.00000000000E+00 0. -1.
          2   -1    0    0  505    0 -0.00000000000E+00 -0.00000000000E+00 -0.50550148856E+03  0.50550148856E+03  0.00000000000E+00 0. -1.
         21    1    1    2  503  504  0.60826382609E+02 -0.47964439147E+02 -0.38884338253E+01  0.77560016514E+02  0.00000000000E+00 0.  1.
         21    1    1    2  504  502 -0.14817868347E+03  0.14428336615E+01  0.37206063693E+03  0.40048485808E+03  0.00000000000E+00 0. -1.
         21    1    1    2  505  503  0.74801526747E+02 -0.18957093155E+02  0.20109826308E+02  0.79743619800E+02  0.00000000000E+00 0.  1.
          2    1    1    2  501    0  0.12550774115E+02  0.65478698641E+02 -0.41810713882E+03  0.42338937331E+03  0.00000000000E+00 0. -1.
<scales pt_clust_3="40.02164" pt_clust_4="146.60136" pt_clust_5="40.02164" pt_clust_6="66.67070"></scales>
<clustering>
<clus scale="   40.022">  3  5 -1 -1</clus>
<clus scale="   66.671">  2  6  1 -1</clus>
<clus scale="  146.601">  1  4  2 -1</clus>
<clus scale="  146.601">  1  3  2 -1</clus>
</clustering>
</event>
<event>
 6    0  0.4945982E+002  0.1724033E+03  0.7546771E-02  0.1175365E+00
          3   -1    0    0  504    0 -0.00000000000E+00  0.00000000000E+00  0.10735072928E+04  0.10735072928E+04  0.00000000000E+00 0. -1.
         21   -1    0    0  503  502  0.00000000000E+00 -0.00000000000E+00 -0.15549364397E+03  0.15549364397E+03  0.00000000000E+00 0. -1.
         21    1    1    2  503  505  0.49614635529E+02  0.10967690676E+02 -0.54598107581E+02  0.74584553688E+02  0.00000000000E+00 0. -1.
         21    1    1    2  504  502  0.15800585521E+02  0.18032582914E+03  0.80939321853E+02  0.19828826738E+03  0.00000000000E+00 0. -1.
         21    1    1    2  505  501 -0.47780286904E+02 -0.15006199046E+03  0.16507295580E+03  0.22814608814E+03  0.00000000000E+00 0.  1.
          3    1    1    2  501    0 -0.17634934146E+02 -0.41231529358E+02  0.72659947878E+03  0.72798202758E+03  0.00000000000E+00 0. -1.
<scales pt_clust_3="50.06958" pt_clust_4="14000.00000" pt_clust_5="172.40325" pt_clust_6="44.84451"></scales>
<clustering>
<clus scale="   44.845">  1  6  2 -1</clus>
<clus scale="   50.070">  2  3  1 -1</clus>
<clus scale="  172.403">  1  5  2 -1</clus>
<clus scale="   50.070">  2  3  1 -1</clus>
</clustering>
</event>
<event>
 6    0  0.4945982E+002  0.1311079E+03  0.7546771E-02  0.1225821E+00
         21   -1    0    0  505  502  0.00000000000E+00  0.00000000000E+00  0.31858815968E+03  0.31858815968E+03  0.00000000000E+00 0. -1.
          2   -1    0    0  504    0 -0.00000000000E+00 -0.00000000000E+00 -0.44533375767E+03  0.44533375767E+03  0.00000000000E+00 0. -1.
         21    1    1    2  503  501 -0.37587216104E+02  0.27104444430E+02  0.15108478638E+03  0.15803183982E+03  0.00000000000E+00 0. -1.
         21    1    1    2  504  502 -0.34430718379E+00  0.42499318609E+02 -0.30938621229E+02  0.52569087049E+02  0.00000000000E+00 0. -1.
         21    1    1    2  505  503 -0.72493722085E+02  0.29488251618E+02  0.12806057527E+03  0.15008133683E+03  0.00000000000E+00 0. -1.
          2    1    1    2  501    0  0.11042524537E+03 -0.99092014657E+02 -0.37495233842E+03  0.40323965365E+03  0.00000000000E+00 0. -1.
<scales pt_clust_3="31.64349" pt_clust_4="42.50071" pt_clust_5="31.64349" pt_clust_6="124.49188"></scales>
<clustering>
<clus scale="   31.643">  3  5 -1 -1</clus>
<clus scale="   42.501">  2  4  1 -1</clus>
<clus scale="  124.492">  2  6  1 -1</clus>
<clus scale="  131.108">  1  3  2 -1</clus>
</clustering>
</event>
<event>
 6    0  0.4945982E+002  0.1290770E+03  0.7546771E-02  0.1228832E+00
         21   -1    0    0  503  502  0.00000000000E+00  0.00000000000E+00  0.60189914361E+02  0.60189914361E+02  0.00000000000E+00 0.  1.
          2   -1    0    0  505    0 -0.00000000000E+00 -0.00000000000E+00 -0.72527784454E+03  0.72527784454E+03  0.00000000000E+00 0. -1.
         21    1    1    2  503  504 -0.77331979355E+02  0.21154053469E+02 -0.34763592490E+02  0.87385561576E+02  0.00000000000E+00 0. -1.
         21    1    1    2  504  501 -0.45803870698E+02 -0.17223524309E+02  0.30487722378E+01  0.49029984425E+02  0.00000000000E+00 0.  1.
         21    1    1    2  505  502  0.30851464656E+02  0.12263454668E+02 -0.64786932561E+02  0.72798020732E+02  0.00000000000E+00 0. -1.
          2    1    1    2  501    0  0.92284385396E+02 -0.16193983827E+02 -0.56858617736E+03  0.57625419217E+03  0.00000000000E+00 0. -1.
<scales pt_clust_3="38.61006" pt_clust_4="38.61006" pt_clust_5="33.19948" pt_clust_6="119.31209"></scales>
<clustering>
<clus scale="   33.199">  2  5  1 -1</clus>
<clus scale="   38.610">  3  4 -1 -1</clus>
<clus scale="  119.312">  2  6  1 -1</clus>
<clus scale="  129.077">  1  3  2 -1</clus>
</clustering>
</event>
<event>
 6    0  0.4945982E+002  0.7495136E+02  0.7546771E-02  0.1344022E+00
         21   -1    0    0  503  502  0.00000000000E+00  0.00000000000E+00  0.63622600639E+02  0.63622600639E+02  0.00000000000E+00 0. -1.
          1   -1    0    0  505    0 -0.00000000000E+00 -0.00000000000E+00 -0.62318884436E+03  0.62318884436E+03  0.00000000000E+00 0. -1.
         21    1    1    2  503  501  0.22014344349E+02  0.51174973822E+02 -0.64125969949E+02  0.84944978220E+02  0.00000000000E+00 0. -1.
         21    1    1    2  504  502 -0.45633189610E+02 -0.10739733299E+03 -0.32294928255E+02  0.12107657709E+03  0.00000000000E+00 0. -1.
         21    1    1    2  505  504  0.12114565692E+02 -0.33969212516E+02 -0.95915095380E+02  0.10247134049E+03  0.00000000000E+00 0.  1.
          1    1    1    2  501    0  0.11504279570E+02  0.90191571688E+02 -0.36723025014E+03  0.37831854920E+03  0.00000000000E+00 0. -1.
<scales pt_clust_3="52.06870" pt_clust_4="14000.00000" pt_clust_5="36.06480" pt_clust_6="74.95136"></scales>
<clustering>
<clus scale="   36.065">  2  5  1 -1</clus>
<clus scale="   52.069">  1  3  2 -1</clus>
<clus scale="   74.951">  2  6  1 -1</clus>
<clus scale="   52.069">  1  3  2 -1</clus>
</clustering>
</event>
<event>
 6    0  0.4945982E+002  0.9559172E+02  0.7546771E-02  0.1289849E+00
          2   -1    0    0  505    0 -0.00000000000E+00  0.00000000000E+00  0.92152936143E+03  0.92152936143E+03  0.00000000000E+00 0. -1.
         21   -1    0    0  503  502  0.00000000000E+00 -0.00000000000E+00 -0.86140430662E+02  0.86140430662E+02  0.00000000000E+00 0. -1.
         21    1    1    2  503  501 -0.28757332955E+02  0.80167431582E+02  0.12087923813E+03  0.14787018461E+03  0.00000000000E+00 0. -1.
         21    1    1    2  504  502  0.53093377500E+01  0.34146835863E+02 -0.55392777742E+02  0.65288247739E+02  0.00000000000E+00 0. -1.
         21    1    1    2  505  504 -0.64711550820E+02 -0.57108359552E+02  0.26198107612E+03  0.27583153153E+03  0.00000000000E+00 0. -1.
          2    1    1    2  501    0  0.88159546025E+02 -0.57205907892E+02  0.50792139426E+03  0.51867982822E+03  0.00000000000E+00 0. -1.
<scales pt_clust_3="14000.00000" pt_clust_4="34.55713" pt_clust_5="79.39564" pt_clust_6="95.59172"></scales>
<clustering>
<clus scale="   34.557">  2  4  1 -1</clus>
<clus scale="   79.396">  2  5  1 -1</clus>
<clus scale="   95.592">  1  6  2 -1</clus>
<clus scale="   34.557">  2  3  1 -1</clus>
</clustering>
</event>
<event>
 6    0  0.4945982E+002  0.1096660E+03  0.7546771E-02  0.1261190E+00
          2   -1    0    0  505    0 -0.00000000000E+00  0.00000000000E+00  0.56825105969E+03  0.56825105969E+03  0.00000000000E+00 0. -1.
         21   -1    0    0  504  502  0.00000000000E+00 -0.00000000000E+00 -0.98891748507E+02  0.98891748507E+02  0.00000000000E+00 0.  1.
         21    1    1    2  503  501 -0.13325395019E+02  0.16786216567E+03  0.80827494831E+02  0.18678425184E+03  0.00000000000E+00 0.  1.
         21    1    1    2  504  503  0.18886277402E+02 -0.29242610823E+02 -0.10088401948E+02  0.36243587236E+02  0.00000000000E+00 0.  1.
         21    1    1    2  505  502 -0.29828089782E+02 -0.39214064297E+02  0.22208966660E+02  0.54043463794E+02  0.00000000000E+00 0.  1.
          2    1    1    2  501    0  0.24267207399E+02 -0.99405490547E+02  0.37641125164E+03  0.39007150532E+03  0.00000000000E+00 0. -1.
<scales pt_clust_3="109.66602" pt_clust_4="34.81123" pt_clust_5="52.21348" pt_clust_6="14000.00000"></scales>
<clustering>
<clus scale="   34.811">  2  4  1 -1</clus>
<clus scale="   52.213">  2  5  1 -1</clus>
<clus scale="  109.666">  2  3  1 -1</clus>
<clus scale="   34.811">  2  3  1 -1</clus>
</clustering>
</event>
<event>
 6    0  0.4945982E+002  0.6338316E+02  0.7546771E-02  0.1384159E+00
         21   -1    0    0  501  502  0.00000000000E+00  0.00000000000E+00  0.52082186654E+03  0.52082186654E+03  0.00000000000E+00 0.  1.
          2   -1    0    0  503    0 -0.00000000000E+00 -0.00000000000E+00 -0.68480925669E+02  0.68480925669E+02  0.00000000000E+00 0.  1.
         21    1    1    2  503  505  0.53477951304E+02 -0.30195175574E+02  0.31042970757E+02  0.68813559252E+02  0.00000000000E+00 0.  1.
         21    1    1    2  504  502 -0.52667525482E+02  0.50064048548E+02  0.31298103634E+03  0.32130578318E+03  0.00000000000E+00 0.  1.
         21    1    1    2  505  504  0.61401158642E+02  0.66703918833E+01  0.11569280780E+03  0.13114656758E+03  0.00000000000E+00 0.  1.
          2    1    1    2  501    0 -0.62211584463E+02 -0.26539264858E+02 -0.73758740338E+01  0.68036882192E+02  0.00000000000E+00 0.  1.
<scales pt_clust_3="61.41368" pt_clust_4="63.38316" pt_clust_5="14000.00000" pt_clust_6="53.98522"></scales>
<clustering>
<clus scale="   61.414">  2  3  1 -1</clus>
<clus scale="   53.985">  2  6  1 -1</clus>
<clus scale="   63.383">  1  4  2 -1</clus>
<clus scale="   63.383">  1  3  2 -1</clus>
</clustering>
</event>
<event>
 6    0  0.4945982E+002  0.3103333E+03  0.7546771E-02  0.1080186E+00
          2   -1    0    0  503    0 -0.00000000000E+00  0.00000000000E+00  0.22073297193E+04  0.22073297193E+04  0.00000000000E+00 0.  1.
         21   -1    0    0  504  502  0.00000000000E+00 -0.00000000000E+00 -0.14265241837E+03  0.14265241837E+03  0.00000000000E+00 0. -1.
         21    1    1    2  503  505  0.89964187788E+02 -0.28869413300E+03  0.61756508621E+03  0.68762234782E+03  0.00000000000E+00 0. -1.
         21    1    1    2  504  501 -0.31746910735E+03  0.70538656217E+02  0.51587157744E+03  0.60982441780E+03  0.00000000000E+00 0. -1.
         21    1    1    2  505  502  0.28284917292E+02 -0.18438567808E+02 -0.28501273463E+02  0.44185290743E+02  0.00000000000E+00 0. -1.
          2    1    1    2  501    0  0.19922000227E+03  0.23659404459E+03  0.95974191073E+03  0.10083500813E+04  0.00000000000E+00 0.  1.
<scales pt_clust_3="270.65244" pt_clust_4="14000.00000" pt_clust_5="33.76414" pt_clust_6="310.33329"></scales>
<clustering>
<clus scale="   33.764">  2  5  1 -1</clus>
<clus scale="  310.333">  1  6  2 -1</clus>
<clus scale="  270.652">  1  3  2 -1</clus>
<clus scale="   33.764">  2  3  1 -1</clus>
</clustering>
</event>
<event>
 6    0  0.4945982E+002  0.1246446E+03  0.7546771E-02  0.1235626E+00
          1   -1    0    0  504    0 -0.00000000000E+00  0.00000000000E+00  0.81712000294E+02  0.81712000294E+02  0.00000000000E+00 0.  1.
         21   -1    0    0  501  502  0.00000000000E+00 -0.00000000000E+00 -0.26199581792E+04  0.26199581792E+04  0.00000000000E+00 0. -1.
         21    1    1    2  503  502 -0.12675083567E+03 -0.12961738294E+02 -0.23286028497E+04  0.23320859788E+04  0.00000000000E+00 0. -1.
         21    1    1    2  504  505 -0.16879304150E+02 -0.39658907440E+02 -0.87359646257E+02  0.97413795953E+02  0.00000000000E+00 0.  1.
         21    1    1    2  505  503  0.73980973766E+02 -0.54278631767E+02  0.50739211117E+01  0.91897219878E+02  0.00000000000E+00 0.  1.
          1    1    1    2  501    0  0.69649166057E+02  0.10689927750E+03 -0.12735760409E+03  0.18027318487E+03  0.00000000000E+00 0.  1.
<scales pt_clust_3="124.64463" pt_clust_4="43.10151" pt_clust_5="101.51360" pt_clust_6="14000.00000"></scales>
<clustering>
<clus scale="   43.102">  1  4  2 -1</clus>
<clus scale="  101.514">  1  5  2 -1</clus>
<clus scale="  124.645">  2  3  1 -1</clus>
<clus scale="  124.645">  2  3  1 -1</clus>
</clustering>
</event>
<event>
 6    0  0.4945982E+002  0.1644980E+03  0.7546771E-02  0.1183710E+00
         21   -1    0    0  501  502  0.00000000000E+00  0.00000000000E+00  0.63608747905E+03  0.63608747905E+03  0.00000000000E+00 0.  1.
          1   -1    0    0  505    0 -0.00000000000E+00 -0.00000000000E+00 -0.65589059802E+03  0.65589059802E+03  0.00000000000E+00 0. -1.
         21    1    1    2  503  504  0.68201742090E+02  0.15398749195E+03  0.33414203071E+03  0.37418514400E+03  0.00000000000E+00 0.  1.
         21    1    1    2  504  502 -0.46263866390E+02  0.24355668053E+02  0.18169061696E+03  0.18906354538E+03  0.00000000000E+00 0.  1.
         21    1    1    2  505  503 -0.11742199222E+03 -0.10585872745E+03  0.20862396843E+02  0.15946546346E+03  0.00000000000E+00 0.  1.
          1    1    1    2  501    0  0.95484116525E+02 -0.72484432546E+02 -0.55649816349E+03  0.56926392424E+03  0.00000000000E+00 0. -1.
<scales pt_clust_3="164.49803" pt_clust_4="52.28330" pt_clust_5="14000.00000" pt_clust_6="119.14964"></scales>
<clustering>
<clus scale="   52.283">  1  4  2 -1</clus>
<clus scale="  119.150">  2  6  1 -1</clus>
<clus scale="  164.498">  1  3  2 -1</clus>
<clus scale="   52.283">  1  3  2 -1</clus>
</clustering>
</event>
<event>
 6    0  0.4945982E+002  0.1559937E+03  0.7546771E-02  0.1193296E+00
         21   -1    0    0  504  502  0.00000000000E+00  0.00000000000E+00  0.19222756933E+03  0.19222756933E+03  0.00000000000E+00 0.  1.
          2   -1    0    0  505    0 -0.00000000000E+00 -0.00000000000E+00 -0.33245495392E+03  0.33245495392E+03  0.00000000000E+00 0.  1.
         21    1    1    2  503  502 -0.82183986854E+02 -0.11747287576E+01  0.33923315979E+02  0.88917821891E+02  0.00000000000E+00 0.  1.
         21    1    1    2  504  501  0.58454322046E+02 -0.18712260545E+02  0.93702085019E+01  0.62087496873E+02  0.00000000000E+00 0.  1.
         21    1    1    2  505  503 -0.24943587159E+02 -0.13814539640E+03 -0.21214276008E+02  0.14197316152E+03  0.00000000000E+00 0.  1.
          2    1    1    2  501    0  0.48673251967E+02  0.15803238570E+03 -0.16230663306E+03  0.23170404296E+03  0.00000000000E+00 0.  1.
<scales pt_clust_3="59.85193" pt_clust_4="61.37635" pt_clust_5="14000.00000" pt_clust_6="155.99373"></scales>
<clustering>
<clus scale="   61.376">  1  4  2 -1</clus>
<clus scale="   59.852">  1  3  2 -1</clus>
<clus scale="  155.994">  2  6  1 -1</clus>
<clus scale="   61.376">  1  3  2 -1</clus>
</clustering>
</event>
<event>
 6    0  0.4945982E+002  0.2376592E+03  0.7546771E-02  0.1121362E+00
         -2   -1    0    0    0  501 -0.00000000000E+00  0.00000000000E+00  0.66488102908E+03  0.66488102908E+03  0.00000000000E+00 0. -1.
         21   -1    0    0  504  502  0.00000000000E+00 -0.00000000000E+00 -0.40346230305E+03  0.40346230305E+03  0.00000000000E+00 0.  1.
         21    1    1    2  503  505 -0.98418951174E+02 -0.42128785759E+02 -0.10555618910E+03  0.15034371818E+03  0.00000000000E+00 0.  1.
         21    1    1    2  504  501  0.28954658631E+02 -0.18484140670E+02 -0.12117218766E+03  0.12594734921E+03  0.00000000000E+00 0.  1.
         21    1    1    2  505  502 -0.13564445057E+03 -0.50776938865E+02 -0.88655104949E+02  0.16981590657E+03  0.00000000000E+00 0.  1.
         -2    1    1    2    0  503  0.20510874311E+03  0.11138986529E+03  0.57680220773E+03  0.62223635817E+03  0.00000000000E+00 0. -1.
<scales pt_clust_3="31.78725" pt_clust_4="34.35165" pt_clust_5="31.78725" pt_clust_6="234.76555"></scales>
<clustering>
<clus scale="   31.787">  3  5 -1 -1</clus>
<clus scale="   34.352">  2  4  1 -1</clus>
<clus scale="  234.766">  1  6  2 -1</clus>
<clus scale="   34.352">  2  3  1 -1</clus>
</clustering>
</event>
<event>
 6    0  0.4945982E+002  0.2258618E+03  0.7546771E-02  0.1129587E+00
          2   -1    0    0  504    0 -0.00000000000E+00  0.00000000000E+00  0.22639266826E+04  0.22639266826E+04  0.00000000000E+00 0.  1.
         21   -1    0    0  503  502  0.00000000000E+00 -0.00000000000E+00 -0.14186977429E+03  0.14186977429E+03  0.00000000000E+00 0. -1.
         21    1    1    2  503  505 -0.10552578761E+03 -0.91856527252E+02  0.89219662208E+01  0.14018885452E+03  0.00000000000E+00 0. -1.
         21    1    1    2  504  502  0.19766878591E+02  0.51432215120E+02  0.41764867794E+02  0.69139760075E+02  0.00000000000E+00 0. -1.
         21    1    1    2  505  501 -0.79200949308E+02 -0.10699254876E+03  0.21677622551E+02  0.13487073508E+03  0.00000000000E+00 0. -1.
          2    1    1    2  501    0  0.16495985832E+03  0.14741686089E+03  0.20496924518E+04  0.20615971072E+04  0.00000000000E+00 0.  1.
<scales pt_clust_3="31.70590" pt_clust_4="55.09993" pt_clust_5="31.70590" pt_clust_6="223.51068"></scales>
<clustering>
<clus scale="   31.706">  3  5 -1 -1</clus>
<clus scale="   55.100">  2  4  1 -1</clus>
<clus scale="  223.511">  1  6  2 -1</clus>
<clus scale="   55.100">  2  3  1 -1</clus>
</clustering>
</event>
<event>
 6    0  0.4945982E+002  0.1458805E+03  0.7546771E-02  0.1205628E+00
          2   -1    0    0  502    0 -0.00000000000E+00  0.00000000000E+00  0.54897675499E+04  0.54897675499E+04  0.00000000000E+00 0. -1.
         21   -1    0    0  505  502  0.00000000000E+00 -0.00000000000E+00 -0.41880857258E+02  0.41880857258E+02  0.00000000000E+00 0. -1.
         21    1    1    2  503  501  0.60980907081E+02 -0.55314395208E+02  0.70634812505E+03  0.71113010561E+03  0.00000000000E+00 0. -1.
         21    1    1    2  504  503 -0.48154622868E+02  0.55132811813E+02  0.49874101034E+02  0.88577201332E+02  0.00000000000E+00 0. -1.
         21    1    1    2  505  504 -0.83108102088E+02  0.10853910877E+02  0.68540946044E+02  0.10827107323E+03  0.00000000000E+00 0. -1.
          2    1    1    2  501    0  0.70281817875E+02 -0.10672327482E+02  0.46231235205E+04  0.46236700269E+04  0.00000000000E+00 0. -1.
<scales pt_clust_3="134.67797" pt_clust_4="52.39295" pt_clust_5="52.39295" pt_clust_6="71.08750"></scales>
<clustering>
<clus scale="   52.393">  4  5 -1 -1</clus>
<clus scale="   71.087">  1  6  2 -1</clus>
<clus scale="  134.678">  1  3  2 -1</clus>
<clus scale="  145.881">  2  3  1 -1</clus>
</clustering>
</event>
<event>
 6    0  0.4945982E+002  0.1134309E+03  0.7546771E-02  0.1254345E+00
         21   -1    0    0  501  502  0.00000000000E+00  0.00000000000E+00  0.38825800120E+02  0.38825800120E+02  0.00000000000E+00 0. -1.
          2   -1    0    0  505    0 -0.00000000000E+00 -0.00000000000E+00 -0.10230550826E+04  0.10230550826E+04  0.00000000000E+00 0.  1.
         21    1    1    2  503  502  0.10528844562E+03  0.50460145194E+02 -0.86122131192E+02  0.14508240595E+03  0.00000000000E+00 0. -1.
         21    1    1    2  504  503  0.38668801770E+01 -0.38975598515E+02 -0.10122720355E+03  0.10854030026E+03  0.00000000000E+00 0.  1.
         21    1    1    2  505  504 -0.22228063023E+02  0.22502009838E+02 -0.93325607751E+02  0.98539820858E+02  0.00000000000E+00 0. -1.
          2    1    1    2  501    0 -0.86927262779E+02 -0.33986556517E+02 -0.70355434002E+03  0.70971835569E+03  0.00000000000E+00 0.  1.
<scales pt_clust_3="14000.00000" pt_clust_4="36.45507" pt_clust_5="31.62953" pt_clust_6="113.43090"></scales>
<clustering>
<clus scale="   31.630">  2  5  1 -1</clus>
<clus scale="   36.455">  2  4  1 -1</clus>
<clus scale="  113.431">  2  6  1 -1</clus>
<clus scale="  113.431">  1  3  2 -1</clus>
</clustering>
</event>
<event>
 6    0  0.4945982E+002  0.7281960E+02  0.7546771E-02  0.1350759E+00
         21   -1    0    0  501  502  0.00000000000E+00  0.00000000000E+00  0.64632876919E+03  0.64632876919E+03  0.00000000000E+00 0. -1.
          1   -1    0    0  503    0 -0.00000000000E+00 -0.00000000000E+00 -0.23329839080E+03  0.23329839080E+03  0.00000000000E+00 0.  1.
         21    1    1    2  503  505 -0.83065872472E+02  0.12832250843E+03  0.25858022315E+03  0.30038364993E+03  0.00000000000E+00 0. -1.
         21    1    1    2  504  502  0.14647465041E+02 -0.32091146350E+02  0.28125106973E+03  0.28345467738E+03  0.00000000000E+00 0. -1.
         21    1    1    2  505  504  0.24091692911E+02 -0.40686050011E+02  0.71172272260E+02  0.85447391251E+02  0.00000000000E+00 0. -1.
          1    1    1    2  501    0  0.44326714520E+02 -0.55545312073E+02 -0.19797318674E+03  0.21034144143E+03  0.00000000000E+00 0.  1.
<scales pt_clust_3="14000.00000" pt_clust_4="35.27591" pt_clust_5="54.83651" pt_clust_6="72.81960"></scales>
<clustering>
<clus scale="   35.276">  1  4  2 -1</clus>
<clus scale="   54.837">  1  5  2 -1</clus>
<clus scale="   72.820">  2  6  1 -1</clus>
<clus scale="   35.276">  1  3  2 -1</clus>
</clustering>
</event>
<event>
 6    0  0.4945982E+002  0.1270173E+03  0.7546771E-02  0.1231950E+00
         21   -1    0    0  503  502  0.00000000000E+00  0.00000000000E+00  0.27162846973E+03  0.27162846973E+03  0.00000000000E+00 0. -1.
          1   -1    0    0  504    0 -0.00000000000E+00 -0.00000000000E+00 -0.93373117118E+03  0.93373117118E+03  0.00000000000E+00 0. -1.
         21    1    1    2  503  501 -0.60743162396E+02  0.81635405545E+02 -0.84875785342E+02  0.13250649099E+03  0.00000000000E+00 0. -1.
         21    1    1    2  504  505  0.33352951697E+02 -0.78883767783E+01  0.27299501046E+02  0.43816762004E+02  0.00000000000E+00 0. -1.
         21    1    1    2  505  502  0.76103588583E+02 -0.43289597439E+02  0.20216077500E+03  0.22030597902E+03  0.00000000000E+00 0. -1.
          1    1    1    2  501    0 -0.48713377885E+02 -0.30457431327E+02 -0.80668719215E+03  0.80873040890E+03  0.00000000000E+00 0. -1.
<scales pt_clust_3="116.72409" pt_clust_4="31.33852" pt_clust_5="31.33852" pt_clust_6="57.45127"></scales>
<clustering>
<clus scale="   31.339">  4  5 -1 -1</clus>
<clus scale="   57.451">  2  6  1 -1</clus>
<clus scale="  116.724">  2  3  1 -1</clus>
<clus scale="  127.017">  1  3  2 -1</clus>
</clustering>
</event>
<event>
 6    0  0.4945982E+002  0.1162324E+03  0.7546771E-02  0.1249445E+00
          1   -1    0    0  504    0 -0.00000000000E+00  0.00000000000E+00  0.23827273673E+04  0.23827273673E+04  0.00000000000E+00 0.  1.
         21   -1    0    0  505  502  0.00000000000E+00 -0.00000000000E+00 -0.58535026276E+02  0.58535026276E+02  0.00000000000E+00 0.  1.
         21    1    1    2  503  501  0.84025963731E+02  0.11965530900E+02  0.56056775519E+03  0.56695656330E+03  0.00000000000E+00 0.  1.
         21    1    1    2  504  502  0.20355158147E+01 -0.32310694132E+02  0.22761993950E+03  0.22991076778E+03  0.00000000000E+00 0.  1.
         21    1    1    2  505  503 -0.10713968339E+03  0.58312651213E+02  0.15146920901E+02  0.12291747745E+03  0.00000000000E+00 0.  1.
          1    1    1    2  501    0  0.21078203848E+02 -0.37967487980E+02  0.15208577254E+04  0.15214775850E+04  0.00000000000E+00 0.  1.
<scales pt_clust_3="14000.00000" pt_clust_4="32.37475" pt_clust_5="116.23242" pt_clust_6="64.82193"></scales>
<clustering>
<clus scale="   32.375">  1  4  2 -1</clus>
<clus scale="   64.822">  1  6  2 -1</clus>
<clus scale="  116.232">  2  5  1 -1</clus>
<clus scale="  116.232">  2  3  1 -1</clus>
</clustering>
</event>
<event>
 6    0  0.4945982E+002  0.1543470E+03  0.7546771E-02  0.1195231E+00
          2   -1    0    0  505    0 -0.00000000000E+00  0.00000000000E+00  0.20908063964E+03  0.20908063964E+03  0.00000000000E+00 0.  1.
         21   -1    0    0  503  502  0.00000000000E+00 -0.00000000000E+00 -0.49779597336E+03  0.49779597336E+03  0.00000000000E+00 0.  1.
         21    1    1    2  503  501 -0.10399699311E+03 -0.77831927526E+02 -0.25794655861E+03  0.28880722050E+03  0.00000000000E+00 0.  1.
         21    1    1    2  504  502  0.41886606075E+02  0.43991318454E+02 -0.10126473159E+03  0.11808585746E+03  0.00000000000E+00 0.  1.
         21    1    1    2  505  504  0.10601917952E+03  0.32746773752E+02 -0.84124511558E+02  0.13924565006E+03  0.00000000000E+00 0.  1.
          2    1    1    2  501    0 -0.43908792486E+02  0.10938353206E+01  0.15462046803E+03  0.16073788498E+03  0.00000000000E+00 0.  1.
<scales pt_clust_3="140.49023" pt_clust_4="50.79124" pt_clust_5="50.79124" pt_clust_6="43.92241"></scales>
<clustering>
<clus scale="   43.922">  1  6  2 -1</clus>
<clus scale="   50.791">  4  5 -1 -1</clus>
<clus scale="  140.490">  2  3  1 -1</clus>
<clus scale="  140.490">  2  3  1 -1</clus>
</clustering>
</event>
<event>
 6    0  0.4945982E+002  0.8575819E+02  0.7546771E-02  0.1313462E+00
         21   -1    0    0  505  502  0.00000000000E+00  0.00000000000E+00  0.78198557147E+02  0.78198557147E+02  0.00000000000E+00 0. -1.
          2   -1    0    0  504    0 -0.00000000000E+00 -0.00000000000E+00 -0.71813482186E+03  0.71813482186E+03  0.00000000000E+00 0.  1.
         21    1    1    2  503  502  0.15916613727E+02  0.82638151739E+02  0.32569554782E+02  0.90239562355E+02  0.00000000000E+00 0. -1.
         21    1    1    2  504  503  0.84324596273E+01 -0.99556681848E+02 -0.18460669595E+03  0.20991015093E+03  0.00000000000E+00 0. -1.
         21    1    1    2  505  501 -0.33966683962E+02 -0.18461220731E+02 -0.11167372782E+03  0.11817602877E+03  0.00000000000E+00 0. -1.
          2    1    1    2  501    0  0.96176106076E+01  0.35379750840E+02 -0.37622539573E+03  0.37800763696E+03  0.00000000000E+00 0.  1.
<scales pt_clust_3="85.75819" pt_clust_4="14000.00000" pt_clust_5="31.41342" pt_clust_6="36.66368"></scales>
<clustering>
<clus scale="   36.664">  2  6  1 -1</clus>
<clus scale="   31.413">  2  5  1 -1</clus>
<clus scale="   85.758">  1  3  2 -1</clus>
<clus scale="   85.758">  1  3  2 -1</clus>
</clustering>
</event>
<event>
 6    0  0.4945982E+002  0.1213773E+03  0.7546771E-02  0.1240842E+00
          3   -1    0    0  505    0 -0.00000000000E+00  0.00000000000E+00  0.33446568400E+03  0.33446568400E+03  0.00000000000E+00 0. -1.
         21   -1    0    0  501  502  0.00000000000E+00 -0.00000000000E+00 -0.38974710603E+03  0.38974710603E+03  0.00000000000E+00 0. -1.
         21    1    1    2  503  502  0.32629373846E+02  0.18835100761E+02 -0.21884401566E+03  0.22206336990E+03  0.00000000000E+00 0. -1.
         21    1    1    2  504  503  0.91305021648E+02 -0.48795166391E+02 -0.12382013341E+03  0.16139702810E+03  0.00000000000E+00 0. -1.
         21    1    1    2  505  504 -0.71887292710E+01  0.52452907706E+02  0.40243710572E+02  0.66502192414E+02  0.00000000000E+00 0. -1.
          3    1    1    2  501    0 -0.11674566622E+03 -0.22492842076E+02  0.24713901648E+03  0.27425019962E+03  0.00000000000E+00 0. -1.
<scales pt_clust_3="37.67542" pt_clust_4="121.37727" pt_clust_5="54.11449" pt_clust_6="14000.00000"></scales>
<clustering>
<clus scale="   37.675">  2  3  1 -1</clus>
<clus scale="   54.114">  1  5  2 -1</clus>
<clus scale="  121.377">  2  4  1 -1</clus>
<clus scale="   37.675">  2  3  1 -1</clus>
</clustering>
</event>
<event>
 6    0  0.4945982E+002  0.1806811E+03  0.7546771E-02  0.1167145E+00
         21   -1    0    0  503  502  0.00000000000E+00  0.00000000000E+00  0.70251702672E+03  0.70251702672E+03  0.00000000000E+00 0.  1.
          2   -1    0    0  505    0 -0.00000000000E+00 -0.00000000000E+00 -0.32370888853E+04  0.32370888853E+04  0.00000000000E+00 0.  1.
         21    1    1    2  503  504 -0.42223238536E+02 -0.11725180195E+03  0.67651171310E+03  0.68789453036E+03  0.00000000000E+00 0.  1.
         21    1    1    2  504  501 -0.15325835876E+03  0.33649531700E+02 -0.50568280155E+03  0.52946719568E+03  0.00000000000E+00 0. -1.
         21    1    1    2  505  502  0.15483302321E+01  0.91477181051E+02 -0.49860684077E+03  0.50693121195E+03  0.00000000000E+00 0. -1.
          2    1    1    2  501    0  0.19393326707E+03 -0.78749107972E+01 -0.22067939294E+04  0.22153129741E+04  0.00000000000E+00 0.  1.
<scales pt_clust_3="124.44236" pt_clust_4="180.68110" pt_clust_5="91.49028" pt_clust_6="14000.00000"></scales>
<clustering>
<clus scale="   91.490">  2  5  1 -1</clus>
<clus scale="  124.442">  1  3  2 -1</clus>
<clus scale="  180.681">  1  4  2 -1</clus>
<clus scale="  124.442">  1  3  2 -1</clus>
</clustering>
</event>
<event>
 6    0  0.4945982E+002  0.9706183E+02  0.7546771E-02  0.1286599E+00
          2   -1    0    0  502    0 -0.00000000000E+00  0.00000000000E+00  0.19975455068E+04  0.19975455068E+04  0.00000000000E+00 0. -1.
         21   -1    0    0  504  502  0.00000000000E+00 -0.00000000000E+00 -0.22437552749E+02  0.22437552749E+02  0.00000000000E+00 0.  1.
         21    1    1    2  503  505  0.22893986408E+02 -0.42905261510E+02  0.11006679502E+03  0.12033160617E+03  0.00000000000E+00 0.  1.
         21    1    1    2  504  503  0.44262381681E+02 -0.14424116886E+02  0.40357027231E+02  0.61610901852E+02  0.00000000000E+00 0.  1.
         21    1    1    2  505  501  0.53761588278E+02  0.35550619462E+02  0.23694189110E+03  0.24555165379E+03  0.00000000000E+00 0. -1.
          2    1    1    2  501    0 -0.12091795637E+03  0.21778758934E+02  0.15877422407E+04  0.15924888977E+04  0.00000000000E+00 0. -1.
<scales pt_clust_3="64.75214" pt_clust_4="46.55334" pt_clust_5="97.06183" pt_clust_6="14000.00000"></scales>
<clustering>
<clus scale="   46.553">  2  4  1 -1</clus>
<clus scale="   64.752">  2  3  1 -1</clus>
<clus scale="   97.062">  2  5  1 -1</clus>
<clus scale="   46.553">  2  3  1 -1</clus>
</clustering>
</event>
<event>
 6    0  0.4945982E+002  0.1317105E+03  0.7546771E-02  0.1224940E+00
          2   -1    0    0  504    0 -0.00000000000E+00  0.00000000000E+00  0.10286481603E+04  0.10286481603E+04  0.00000000000E+00 0. -1.
         21   -1    0    0  501  502  0.00000000000E+00 -0.00000000000E+00 -0.13155576253E+03  0.13155576253E+03  0.00000000000E+00 0. -1.
         21    1    1    2  503  502 -0.12655440083E+03 -0.29741024940E+02 -0.88351109694E+02  0.15718289830E+03  0.00000000000E+00 0. -1.
         21    1    1    2  504  505  0.27352452136E+02  0.34592889239E+02  0.17620937849E+03  0.18164407419E+03  0.00000000000E+00 0. -1.
         21    1    1    2  505  503  0.55978795070E+02  0.16105970759E+02  0.15837087296E+03  0.16874347749E+03  0.00000000000E+00 0. -1.
          2    1    1    2  501    0  0.43223153622E+02 -0.20957835057E+02  0.65086325604E+03  0.65263347288E+03  0.00000000000E+00 0. -1.
<scales pt_clust_3="126.62795" pt_clust_4="31.52891" pt_clust_5="31.52891" pt_clust_6="48.03615"></scales>
<clustering>
<clus scale="   31.529">  4  5 -1 -1</clus>
<clus scale="   48.036">  1  6  2 -1</clus>
<clus scale="  126.628">  2  3  1 -1</clus>
<clus scale="  126.628">  2  3  1 -1</clus>
</clustering>
</event>
<event>
 6    0  0.4945982E+002  0.7602739E+02  0.7546771E-02  0.1340719E+00
         21   -1    0    0  505  502  0.00000000000E+00  0.00000000000E+00  0.40137416515E+03  0.40137416515E+03  0.00000000000E+00 0.  1.
          1   -1    0    0  504    0 -0.00000000000E+00 -0.00000000000E+00 -0.12330914508E+04  0.12330914508E+04  0.00000000000E+00 0. -1.
         21    1    1    2  503  501 -0.48732294610E+02  0.56140055664E+02  0.48756227990E+02  0.88902824228E+02  0.00000000000E+00 0.  1.
         21    1    1    2  504  502  0.68080112621E+02  0.21988970965E+02  0.92380813254E+02  0.11684447456E+03  0.00000000000E+00 0.  1.
         21    1    1    2  505  503 -0.61490032509E+02 -0.52393253445E+02  0.22024730319E+03  0.23459529336E+03  0.00000000000E+00 0.  1.
          1    1    1    2  501    0  0.42142214498E+02 -0.25735773184E+02 -0.11931016301E+04  0.11941230238E+04  0.00000000000E+00 0. -1.
<scales pt_clust_3="50.98293" pt_clust_4="76.02739" pt_clust_5="14000.00000" pt_clust_6="49.37911"></scales>
<clustering>
<clus scale="   49.379">  2  6  1 -1</clus>
<clus scale="   50.983">  2  3  1 -1</clus>
<clus scale="   76.027">  2  4  1 -1</clus>
<clus scale="   76.027">  1  3  2 -1</clus>
</clustering>
</event>
<event>
 6    0  0.4945982E+002  0.1122647E+03  0.7546771E-02  0.1256433E+00
          2   -1    0    0  505    0 -0.00000000000E+00  0.00000000000E+00  0.84658371201E+03  0.84658371201E+03  0.00000000000E+00 0.  1.
         21   -1    0    0  504  502  0.00000000000E+00 -0.00000000000E+00 -0.51797778701E+02  0.51797778701E+02  0.00000000000E+00 0. -1.
         21    1    1    2  503  501 -0.10285623922E+03  0.59600130115E+02  0.16196053397E+03  0.20090494275E+03  0.00000000000E+00 0. -1.
         21    1    1    2  504  503  0.19419411143E+01 -0.54181988326E+02  0.69044267698E+02  0.87787071350E+02  0.00000000000E+00 0.  1.
         21    1    1    2  505  502  0.11762818692E+03  0.20367086873E+02  0.13663548251E+03  0.18143997262E+03  0.00000000000E+00 0. -1.
          2    1    1    2  501    0 -0.16713888809E+02 -0.25785228661E+02  0.42714564913E+03  0.42824950398E+03  0.00000000000E+00 0.  1.
<scales pt_clust_3="112.26467" pt_clust_4="59.02093" pt_clust_5="14000.00000" pt_clust_6="30.72836"></scales>
<clustering>
<clus scale="   30.728">  1  6  2 -1</clus>
<clus scale="   59.021">  2  4  1 -1</clus>
<clus scale="  112.265">  2  3  1 -1</clus>
<clus scale="   59.021">  2  3  1 -1</clus>
</clustering>
</event>
<event>
 6    0  0.4945982E+002  0.2156685E+03  0.7546771E-02  0.1137154E+00
          2   -1    0    0  505    0 -0.00000000000E+00  0.00000000000E+00  0.77787963762E+03  0.77787963762E+03  0.00000000000E+00 0.  1.
         21   -1    0    0  503  502  0.00000000000E+00 -0.00000000000E+00 -0.13288541113E+03  0.13288541113E+03  0.00000000000E+00 0.  1.
         21    1    1    2  503  501  0.15615502746E+03 -0.97484676712E+02  0.14009688261E+03  0.23133264213E+03  0.00000000000E+00 0.  1.
         21    1    1    2  504  502 -0.84727773592E+02  0.10389248107E+03  0.10950575383E+01  0.13406581366E+03  0.00000000000E+00 0.  1.
         21    1    1    2  505  504 -0.69125474056E+02  0.41723037502E+02  0.64261540838E+02  0.10319248351E+03  0.00000000000E+00 0.  1.
          2    1    1    2  501    0 -0.23017798123E+01 -0.48130841857E+02  0.43954074550E+03  0.44217410947E+03  0.00000000000E+00 0.  1.
<scales pt_clust_3="198.41271" pt_clust_4="65.28935" pt_clust_5="65.28935" pt_clust_6="48.18585"></scales>
<clustering>
<clus scale="   48.186">  1  6  2 -1</clus>
<clus scale="   65.289">  4  5 -1 -1</clus>
<clus scale="  198.413">  1  3  2 -1</clus>
<clus scale="  215.669">  2  3  1 -1</clus>
</clustering>
</event>
<event>
 6    0  0.4945982E+002  0.7808644E+02  0.7546771E-02  0.1334571E+00
         21   -1    0    0  504  502  0.00000000000E+00  0.00000000000E+00  0.79990980281E+03  0.79990980281E+03  0.00000000000E+00 0.  1.
          2   -1    0    0  503    0 -0.00000000000E+00 -0.00000000000E+00 -0.80710030202E+03  0.80710030202E+03  0.00000000000E+00 0.  1.
         21    1    1    2  503  505 -0.30788339823E+02 -0.12079765619E+01 -0.11813631638E+03  0.12208837097E+03  0.00000000000E+00 0.  1.
         21    1    1    2  504  501 -0.21209750147E+02 -0.66664539746E+02  0.77363634977E+03  0.77679290422E+03  0.00000000000E+00 0.  1.
         21    1    1    2  505  502 -0.53714860846E+02  0.72111225091E+02 -0.95557076662E+02  0.13121154660E+03  0.00000000000E+00 0. -1.
          2    1    1    2  501    0  0.10571295082E+03 -0.42387087832E+01 -0.56713345594E+03  0.57691728304E+03  0.00000000000E+00 0.  1.
<scales pt_clust_3="30.81203" pt_clust_4="69.98135" pt_clust_5="78.08644" pt_clust_6="14000.00000"></scales>
<clustering>
<clus scale="   30.812">  2  3  1 -1</clus>
<clus scale="   69.981">  1  4  2 -1</clus>
<clus scale="   78.086">  1  5  2 -1</clus>
<clus scale="   69.981">  1  3  2 -1</clus>
</clustering>
</event>
<event>
 6    0  0.4945982E+002  0.1266218E+03  0.7546771E-02  0.1232556E+00
         21   -1    0    0  503  502  0.00000000000E+00  0.00000000000E+00  0.36155457284E+03  0.36155457284E+03  0.00000000000E+00 0. -1.
         -3   -1    0    0    0  501 -0.00000000000E+00 -0.00000000000E+00 -0.37127161316E+03  0.37127161316E+03  0.00000000000E+00 0. -1.
         21    1    1    2  503  504  0.82087303491E+02  0.49436063869E+02  0.27209386482E+03  0.28847412550E+03  0.00000000000E+00 0. -1.
         21    1    1    2  504  505 -0.41741186608E+02  0.21389096428E+02 -0.41049809464E+01  0.47081535383E+02  0.00000000000E+00 0. -1.
         21    1    1    2  505  501 -0.12151710882E+03 -0.67201781397E+02 -0.37705860035E+02  0.14388960713E+03  0.00000000000E+00 0. -1.
         -3    1    1    2    0  502  0.81170991935E+02 -0.36233788997E+01 -0.24000006417E+03  0.25338091800E+03  0.00000000000E+00 0. -1.
<scales pt_clust_3="100.31607" pt_clust_4="44.90393" pt_clust_5="44.90393" pt_clust_6="81.25182"></scales>
<clustering>
<clus scale="   44.904">  4  5 -1 -1</clus>
<clus scale="   81.252">  2  6  1 -1</clus>
<clus scale="  100.316">  1  3  2 -1</clus>
<clus scale="  100.316">  1  3  2 -1</clus>
</clustering>
</event>
<event>
 6    0  0.4945982E+002  0.1287201E+03  0.7546771E-02  0.1229367E+00
         -1   -1    0    0    0  501 -0.00000000000E+00  0.00000000000E+00  0.33466039674E+03  0.33466039674E+03  0.00000000000E+00 0.  1.
         21   -1    0    0  503  502  0.00000000000E+00 -0.00000000000E+00 -0.39783693611E+03  0.39783693611E+03  0.00000000000E+00 0.  1.
         21    1    1    2  503  501 -0.40195928109E+02 -0.55708470868E+01  0.62238079941E+01  0.41054631404E+02  0.00000000000E+00 0.  1.
         21    1    1    2  504  502  0.34215748592E+02 -0.55315054730E+02 -0.20726815252E+03  0.21723388267E+03  0.00000000000E+00 0.  1.
         21    1    1    2  505  504 -0.13465147734E+03  0.10859706964E+03 -0.95499891160E+02  0.19759699667E+03  0.00000000000E+00 0.  1.
         -1    1    1    2    0  505  0.14063165685E+03 -0.47711167822E+02  0.23336769631E+03  0.27661182210E+03  0.00000000000E+00 0.  1.
<scales pt_clust_3="40.58013" pt_clust_4="64.78195" pt_clust_5="14000.00000" pt_clust_6="128.72007"></scales>
<clustering>
<clus scale="   40.580">  1  3  2 -1</clus>
<clus scale="   64.782">  2  4  1 -1</clus>
<clus scale="  128.720">  1  6  2 -1</clus>
<clus scale="   64.782">  2  3  1 -1</clus>
</clustering>
</event>
<event>
 6    0  0.4945982E+002  0.1886710E+03  0.7546771E-02  0.1159665E+00
          2   -1    0    0  503    0 -0.00000000000E+00  0.00000000000E+00  0.25979233200E+04  0.25979233200E+04  0.00000000000E+00 0. -1.
         21   -1    0    0  504  502  0.00000000000E+00 -0.00000000000E+00 -0.28915014115E+02  0.28915014115E+02  0.00000000000E+00 0. -1.
         21    1    1    2  503  505  0.46505021250E+02  0.64992730524E+02  0.25656332290E+03  0.26872199516E+03  0.00000000000E+00 0. -1.
         21    1    1    2  504  501  0.37704393257E+02 -0.45833099474E+02  0.11554800868E+03  0.12989856269E+03  0.00000000000E+00 0. -1.
         21    1    1    2  505  502  0.85151374747E+02  0.56215644911E+02  0.21844321738E+03  0.24109830894E+03  0.00000000000E+00 0.  1.
          2    1    1    2  501    0 -0.16936078926E+03 -0.75375275962E+02  0.19784537569E+04  0.19871194673E+04  0.00000000000E+00 0. -1.
<scales pt_clust_3="42.07892" pt_clust_4="59.34892" pt_clust_5="42.07892" pt_clust_6="182.58179"></scales>
<clustering>
<clus scale="   42.079">  3  5 -1 -1</clus>
<clus scale="   59.349">  2  4  1 -1</clus>
<clus scale="  182.582">  1  6  2 -1</clus>
<clus scale="   59.349">  2  3  1 -1</clus>
</clustering>
</event>
<event>
 6    0  0.4945982E+002  0.7639258E+02  0.7546771E-02  0.1339612E+00
         21   -1    0    0  504  502  0.00000000000E+00  0.00000000000E+00  0.65114759596E+02  0.65114759596E+02  0.00000000000E+00 0. -1.
         -2   -1    0    0    0  501 -0.00000000000E+00 -0.00000000000E+00 -0.23862231760E+04  0.23862231760E+04  0.00000000000E+00 0.  1.
         21    1    1    2  503  502 -0.52389580497E+02  0.51310346255E+02  0.11328511681E+02  0.74200774621E+02  0.00000000000E+00 0. -1.
         21    1    1    2  504  501 -0.55290540072E+02 -0.62473895002E+02 -0.20738227630E+03  0.22353397930E+03  0.00000000000E+00 0. -1.
         21    1    1    2  505  503  0.95043107105E+02 -0.35433419670E+02 -0.17006336380E+03  0.19801582549E+03  0.00000000000E+00 0. -1.
         -2    1    1    2    0  505  0.12637013464E+02  0.46596968417E+02 -0.19549912880E+04  0.19555873562E+04  0.00000000000E+00 0.  1.
<scales pt_clust_3="14000.00000" pt_clust_4="62.71421" pt_clust_5="76.39258" pt_clust_6="48.28014"></scales>
<clustering>
<clus scale="   48.280">  2  6  1 -1</clus>
<clus scale="   62.714">  2  4  1 -1</clus>
<clus scale="   76.393">  2  5  1 -1</clus>
<clus scale="   76.393">  1  3  2 -1</clus>
</clustering>
</event>
<event>
 6    0  0.4945982E+002  0.1679052E+03  0.7546771E-02  0.1180050E+00
         21   -1    0    0  504  502  0.00000000000E+00  0.00000000000E+00  0.27759196231E+04  0.27759196231E+04  0.00000000000E+00 0.  1.
         -1   -1    0    0    0  501 -0.00000000000E+00 -0.00000000000E+00 -0.35953291634E+03  0.35953291634E+03  0.00000000000E+00 0.  1.
         21    1    1    2  503  502 -0.28924045064E+02 -0.30092782977E+02  0.21036656369E+04  0.21040796772E+04  0.00000000000E+00 0.  1.
         21    1    1    2  504  501  0.65648797145E+02  0.14826940175E+03  0.19955822855E+03  0.25713239128E+03  0.00000000000E+00 0.  1.
         21    1    1    2  505  503  0.10869060443E+03 -0.19919642599E+03  0.38999848912E+03  0.45121135307E+03  0.00000000000E+00 0. -1.
         -1    1    1    2    0  505 -0.14541535652E+03  0.81019807214E+02 -0.27683564786E+03  0.32302911788E+03  0.00000000000E+00 0.  1.
<scales pt_clust_3="41.73938" pt_clust_4="148.90369" pt_clust_5="14000.00000" pt_clust_6="167.90522"></scales>
<clustering>
<clus scale="   41.739">  1  3  2 -1</clus>
<clus scale="  148.904">  1  4  2 -1</clus>
<clus scale="  167.905">  2  6  1 -1</clus>
<clus scale="   41.739">  1  3  2 -1</clus>
</clustering>
</event>
<event>
 6    0  0.4945982E+002  0.1166553E+03  0.7546771E-02  0.1248719E+00
          2   -1    0    0  503    0 -0.00000000000E+00  0.00000000000E+00  0.44824810417E+02  0.44824810417E+02  0.00000000000E+00 0. -1.
         21   -1    0    0  501  502  0.00000000000E+00 -0.00000000000E+00 -0.72504875360E+03  0.72504875360E+03  0.00000000000E+00 0. -1.
         21    1    1    2  503  505  0.42789108446E+02 -0.34917868901E+02 -0.28796728791E+02  0.62284965756E+02  0.00000000000E+00 0. -1.
         21    1    1    2  504  502  0.19589473413E+02  0.39521627712E+02 -0.18467225767E+03  0.18986718853E+03  0.00000000000E+00 0. -1.
         21    1    1    2  505  504 -0.37067676239E+02  0.70847628795E+02 -0.41535716331E+03  0.42298341840E+03  0.00000000000E+00 0. -1.
          2    1    1    2  501    0 -0.25310905619E+02 -0.75451387605E+02 -0.51397793413E+02  0.94737991337E+02  0.00000000000E+00 0. -1.
<scales pt_clust_3="55.22830" pt_clust_4="41.11114" pt_clust_5="41.11114" pt_clust_6="102.68763"></scales>
<clustering>
<clus scale="   41.111">  4  5 -1 -1</clus>
<clus scale="   55.228">  1  3  2 -1</clus>
<clus scale="  102.688">  1  6  2 -1</clus>
<clus scale="  116.655">  2  3  1 -1</clus>
</clustering>
</event>
<event>
 6    0  0.4945982E+002  0.1670314E+03  0.7546771E-02  0.1180979E+00
          1   -1    0    0  503    0 -0.00000000000E+00  0.00000000000E+00  0.20376644560E+04  0.20376644560E+04  0.00000000000E+00 0.  1.
         21   -1    0    0  501  502  0.00000000000E+00 -0.00000000000E+00 -0.56475275422E+02  0.56475275422E+02  0.00000000000E+00 0. -1.
         21    1    1    2  503  505  0.96768346251E+02 -0.13298285197E+03  0.36693050749E+03  0.40210265988E+03  0.00000000000E+00 0.  1.
         21    1    1    2  504  502 -0.49006873817E+02  0.69832317854E+02  0.64298969469E+02  0.10682969518E+03  0.00000000000E+00 0. -1.
         21    1    1    2  505  504 -0.69882394437E+02  0.41801417178E+02  0.77462433963E+02  0.11238921748E+03  0.00000000000E+00 0. -1.
          1    1    1    2  501    0  0.22120922003E+02  0.21349116939E+02  0.14724972696E+04  0.14728181588E+04  0.00000000000E+00 0.  1.
<scales pt_clust_3="162.89753" pt_clust_4="35.63944" pt_clust_5="35.63944" pt_clust_6="30.74280"></scales>
<clustering>
<clus scale="   30.743">  1  6  2 -1</clus>
<clus scale="   35.639">  4  5 -1 -1</clus>
<clus scale="  162.898">  1  3  2 -1</clus>
<clus scale="  167.031">  2  3  1 -1</clus>
</clustering>
</event>
<event>
 6    0  0.4945982E+002  0.1700764E+03  0.7546771E-02  0.1177768E+00
          2   -1    0    0  504    0 -0.00000000000E+00  0.00000000000E+00  0.21428526265E+04  0.21428526265E+04  0.00000000000E+00 0. -1.
         21   -1    0    0  505  502  0.00000000000E+00 -0.00000000000E+00 -0.26092000346E+03  0.26092000346E+03  0.00000000000E+00 0.  1.
         21    1    1    2  503  501 -0.13674888746E+03  0.77071004475E+02 -0.15484730511E+03  0.22049463906E+03  0.00000000000E+00 0.  1.
         21    1    1    2  504  502  0.12333467318E+03 -0.84358907279E+02  0.63214887071E+02  0.16224669116E+03  0.00000000000E+00 0. -1.
         21    1    1    2  505  503 -0.17674725418E+02  0.42807718002E+02 -0.58527362494E+00  0.46316726831E+02  0.00000000000E+00 0.  1.
          2    1    1    2  501    0  0.31088939703E+02 -0.35519815198E+02  0.19741503147E+04  0.19747145729E+04  0.00000000000E+00 0. -1.
<scales pt_clust_3="14000.00000" pt_clust_4="170.07641" pt_clust_5="46.31303" pt_clust_6="47.15150"></scales>
<clustering>
<clus scale="   46.313">  2  5  1 -1</clus>
<clus scale="   47.151">  1  6  2 -1</clus>
<clus scale="  170.076">  1  4  2 -1</clus>
<clus scale="   46.313">  2  3  1 -1</clus>
</clustering>
</event>
<event>
 6    0  0.4945982E+002  0.1152990E+03  0.7546771E-02  0.1251060E+00
          1   -1    0    0  505    0 -0.00000000000E+00  0.00000000000E+00  0.34208015575E+03  0.34208015575E+03  0.00000000000E+00 0. -1.
         21   -1    0    0  501  502  0.00000000000E+00 -0.00000000000E+00 -0.27686130983E+03  0.27686130983E+03  0.00000000000E+00 0.  1.
         21    1    1    2  503  504  0.64747946139E+02  0.16991385816E+02 -0.16074631494E+03  0.17412748631E+03  0.00000000000E+00 0.  1.
         21    1    1    2  504  502  0.42308132525E+02 -0.13033332354E+02 -0.62360157342E+02  0.76476369250E+02  0.00000000000E+00 0.  1.
         21    1    1    2  505  503 -0.11885258107E+03  0.46806652581E+02  0.73696969623E+02  0.14747217393E+03  0.00000000000E+00 0.  1.
          1    1    1    2  501    0  0.11796502404E+02 -0.50764706044E+02  0.21462834857E+03  0.22086543609E+03  0.00000000000E+00 0. -1.
<scales pt_clust_3="32.00772" pt_clust_4="32.00772" pt_clust_5="108.37317" pt_clust_6="52.11730"></scales>
<clustering>
<clus scale="   32.008">  3  4 -1 -1</clus>
<clus scale="   52.117">  1  6  2 -1</clus>
<clus scale="  108.373">  1  5  2 -1</clus>
<clus scale="  115.299">  2  3  1 -1</clus>
</clustering>
</event>
<event>
 6    0  0.4945982E+002  0.7176505E+02  0.7546771E-02  0.1354192E+00
         21   -1    0    0  505  502  0.00000000000E+00  0.00000000000E+00  0.15156371758E+02  0.15156371758E+02  0.00000000000E+00 0.  1.
          2   -1    0    0  503    0 -0.00000000000E+00 -0.00000000000E+00 -0.19448062016E+04  0.19448062016E+04  0.00000000000E+00 0.  1.
         21    1    1    2  503  504  0.32809791483E+02 -0.64854275179E+02 -0.28244861344E+03  0.29165009628E+03  0.00000000000E+00 0.  1.
         21    1    1    2  504  502 -0.85260629511E+01  0.54039625524E+02 -0.11095225747E+03  0.12370682404E+03  0.00000000000E+00 0.  1.
         21    1    1    2  505  501  0.53778367230E+02  0.17487557912E+01 -0.23915430306E+03  0.24513251845E+03  0.00000000000E+00 0.  1.
          2    1    1    2  501    0 -0.78062095761E+02  0.90658938632E+01 -0.12970946559E+04  0.12994731346E+04  0.00000000000E+00 0.  1.
<scales pt_clust_3="71.76505" pt_clust_4="58.36730" pt_clust_5="53.80679" pt_clust_6="14000.00000"></scales>
<clustering>
<clus scale="   53.807">  1  5  2 -1</clus>
<clus scale="   58.367">  1  4  2 -1</clus>
<clus scale="   71.765">  1  3  2 -1</clus>
<clus scale="   53.807">  1  3  2 -1</clus>
</clustering>
</event>
<event>
 6    0  0.4945982E+002  0.7979359E+02  0.7546771E-02  0.1329638E+00
         21   -1    0    0  501  502  0.00000000000E+00  0.00000000000E+00  0.14281348135E+02  0.14281348135E+02  0.00000000000E+00 0. -1.
          2   -1    0    0  503    0 -0.00000000000E+00 -0.00000000000E+00 -0.31648020919E+04  0.31648020919E+04  0.00000000000E+00 0.  1.
         21    1    1    2  503  504 -0.12705359867E+03  0.11994079248E+01 -0.14892729245E+04  0.14946832103E+04  0.00000000000E+00 0. -1.
         21    1    1    2  504  505  0.32901334863E+02 -0.24137618009E+02 -0.32560326216E+03  0.32815028077E+03  0.00000000000E+00 0.  1.
         21    1    1    2  505  502  0.33518623026E+02 -0.64627061533E+01 -0.21422015995E+02  0.40300960655E+02  0.00000000000E+00 0. -1.
          2    1    1    2  501    0  0.60633640784E+02  0.29400916238E+02 -0.13142225411E+04  0.13159489883E+04  0.00000000000E+00 0.  1.
<scales pt_clust_3="14000.00000" pt_clust_4="49.07050" pt_clust_5="34.13597" pt_clust_6="79.79359"></scales>
<clustering>
<clus scale="   34.136">  1  5  2 -1</clus>
<clus scale="   49.071">  1  4  2 -1</clus>
<clus scale="   79.794">  2  6  1 -1</clus>
<clus scale="   34.136">  1  3  2 -1</clus>
</clustering>
</event>
<event>
 6    0  0.4945982E+002  0.8638025E+02  0.7546771E-02  0.1311862E+00
          1   -1    0    0  505    0 -0.00000000000E+00  0.00000000000E+00  0.46050735670E+03  0.46050735670E+03  0.00000000000E+00 0. -1.
         21   -1    0    0  504  502  0.00000000000E+00 -0.00000000000E+00 -0.54805535607E+02  0.54805535607E+02  0.00000000000E+00 0.  1.
         21    1    1    2  503  502 -0.33058679928E+02  0.33157755684E+02  0.13218007050E+02  0.48652120108E+02  0.00000000000E+00 0.  1.
         21    1    1    2  504  501  0.38670965605E+02  0.12027345923E+02  0.44826118604E+02  0.60410938909E+02  0.00000000000E+00 0. -1.
         21    1    1    2  505  503 -0.87107074790E+02 -0.10126474574E+02  0.62703858216E+02  0.10780520303E+03  0.00000000000E+00 0.  1.
          1    1    1    2  501    0  0.81494789113E+02 -0.35058627033E+02  0.28495383723E+03  0.29844463026E+03  0.00000000000E+00 0. -1.
<scales pt_clust_3="41.97938" pt_clust_4="40.49816" pt_clust_5="14000.00000" pt_clust_6="86.38025"></scales>
<clustering>
<clus scale="   40.498">  2  4  1 -1</clus>
<clus scale="   41.979">  2  3  1 -1</clus>
<clus scale="   86.380">  1  6  2 -1</clus>
<clus scale="   40.498">  2  3  1 -1</clus>
</clustering>
</event>
<event>
 6    0  0.4945982E+002  0.1012518E+03  0.7546771E-02  0.1277685E+00
         21   -1    0    0  505  502  0.00000000000E+00  0.00000000000E+00  0.44869695946E+03  0.44869695946E+03  0.00000000000E+00 0. -1.
          1   -1    0    0  503    0 -0.00000000000E+00 -0.00000000000E+00 -0.26530997445E+04  0.26530997445E+04  0.00000000000E+00 0. -1.
         21    1    1    2  503  504 -0.92812815538E+02 -0.13082485363E+03 -0.19387248342E+03  0.25162651069E+03  0.00000000000E+00 0.  1.
         21    1    1    2  504  502  0.80711624258E+02  0.11880007414E+02  0.40418124912E+03  0.41233236958E+03  0.00000000000E+00 0. -1.
         21    1    1    2  505  501 -0.52543383947E+02  0.74710416084E+02 -0.18087422193E+03  0.20262758358E+03  0.00000000000E+00 0.  1.
          1    1    1    2  501    0  0.64644575227E+02  0.44234430132E+02 -0.22338373288E+04  0.22352102401E+04  0.00000000000E+00 0. -1.
<scales pt_clust_3="14000.00000" pt_clust_4="82.26737" pt_clust_5="101.25175" pt_clust_6="78.33011"></scales>
<clustering>
<clus scale="   78.330">  2  6  1 -1</clus>
<clus scale="   82.267">  1  4  2 -1</clus>
<clus scale="  101.252">  2  5  1 -1</clus>
<clus scale="   82.267">  1  3  2 -1</clus>
</clustering>
</event>
<event>
 6    0  0.4945982E+002  0.2157963E+03  0.7546771E-02  0.1137056E+00
          2   -1    0    0  504    0 -0.00000000000E+00  0.00000000000E+00  0.19830250686E+04  0.19830250686E+04  0.00000000000E+00 0.  1.
         21   -1    0    0  505  502  0.00000000000E+00 -0.00000000000E+00 -0.11521444914E+04  0.11521444914E+04  0.00000000000E+00 0. -1.
         21    1    1    2  503  501  0.20021589275E+03 -0.73584410163E+02 -0.16850530541E+03  0.27183654478E+03  0.00000000000E+00 0. -1.
         21    1    1    2  504  502  0.52835305163E+02 -0.94052010210E+02 -0.19350772861E+03  0.22154591201E+03  0.00000000000E+00 0. -1.
         21    1    1    2  505  503 -0.16392977707E+03  0.14729967110E+03 -0.70656097186E+03  0.74013415802E+03  0.00000000000E+00 0. -1.
          2    1    1    2  501    0 -0.89121420834E+02  0.20336749276E+02  0.18994545830E+04  0.19016529452E+04  0.00000000000E+00 0.  1.
<scales pt_clust_3="215.79629" pt_clust_4="98.12072" pt_clust_5="14000.00000" pt_clust_6="91.41231"></scales>
<clustering>
<clus scale="   91.412">  1  6  2 -1</clus>
<clus scale="   98.121">  1  4  2 -1</clus>
<clus scale="  215.796">  1  3  2 -1</clus>
<clus scale="  215.796">  2  3  1 -1</clus>
</clustering>
</event>
<event>
 6    0  0.4945982E+002  0.1731923E+03  0.7546771E-02  0.1174559E+00
          2   -1    0    0  505    0 -0.00000000000E+00  0.00000000000E+00  0.10071143945E+04  0.10071143945E+04  0.00000000000E+00 0.  1.
         21   -1    0    0  501  502  0.00000000000E+00 -0.00000000000E+00 -0.30800753052E+03  0.30800753052E+03  0.00000000000E+00 0.  1.
         21    1    1    2  503  504  0.46718026781E+00  0.38676794137E+02 -0.22018071597E+02  0.44507394206E+02  0.00000000000E+00 0. -1.
         21    1    1    2  504  502 -0.27216238862E+02  0.12002436574E+03 -0.25192447568E+03  0.28037923154E+03  0.00000000000E+00 0.  1.
         21    1    1    2  505  503  0.35275857428E+02 -0.12265690058E+03  0.51076196481E+03  0.52646641495E+03  0.00000000000E+00 0.  1.
          2    1    1    2  501    0 -0.85267988338E+01 -0.36044259305E+02  0.46228744642E+03  0.46376888430E+03  0.00000000000E+00 0.  1.
<scales pt_clust_3="37.80894" pt_clust_4="37.80894" pt_clust_5="159.34344" pt_clust_6="37.03910"></scales>
<clustering>
<clus scale="   37.039">  1  6  2 -1</clus>
<clus scale="   37.809">  3  4 -1 -1</clus>
<clus scale="  159.343">  1  5  2 -1</clus>
<clus scale="  173.192">  2  3  1 -1</clus>
</clustering>
</event>
<event>
 6    0  0.4945982E+002  0.8404494E+02  0.7546771E-02  0.1317949E+00
         21   -1    0    0  505  502  0.00000000000E+00  0.00000000000E+00  0.15846522406E+03  0.15846522406E+03  0.00000000000E+00 0.  1.
          1   -1    0    0  503    0 -0.00000000000E+00 -0.00000000000E+00 -0.10350653566E+04  0.10350653566E+04  0.00000000000E+00 0. -1.
         21    1    1    2  503  504 -0.95841937682E+02 -0.18224563623E+02 -0.73910273708E+02  0.12239501745E+03  0.00000000000E+00 0.  1.
         21    1    1    2  504  502 -0.99507231663E+01  0.53680094608E+02  0.11895364257E+03  0.13088368320E+03  0.00000000000E+00 0.  1.
         21    1    1    2  505  501  0.54783684378E+02 -0.52408549149E+02 -0.16369159678E+03  0.18039636070E+03  0.00000000000E+00 0. -1.
          1    1    1    2  501    0  0.51008976470E+02  0.16953018164E+02 -0.75795190460E+03  0.75985551929E+03  0.00000000000E+00 0. -1.
<scales pt_clust_3="14000.00000" pt_clust_4="54.76590" pt_clust_5="84.04494" pt_clust_6="53.75240"></scales>
<clustering>
<clus scale="   53.752">  2  6  1 -1</clus>
<clus scale="   54.766">  1  4  2 -1</clus>
<clus scale="   84.045">  2  5  1 -1</clus>
<clus scale="   54.766">  1  3  2 -1</clus>
</clustering>
</event>
<event>
 6    0  0.4945982E+002  0.7426382E+02  0.7546771E-02  0.1346166E+00
         21   -1    0    0  504  502  0.00000000000E+00  0.00000000000E+00  0.25218441160E+03  0.25218441160E+03  0.00000000000E+00 0. -1.
         -1   -1    0    0    0  501 -0.00000000000E+00 -0.00000000000E+00 -0.14712798049E+04  0.14712798049E+04  0.00000000000E+00 0.  1.
         21    1    1    2  503  502  0.71703876438E+02  0.19982751758E+02  0.22797555960E+03  0.23981995755E+03  0.00000000000E+00 0. -1.
         21    1    1    2  504  501 -0.33902812248E+02 -0.26404242993E+02 -0.10215920886E+03  0.11082909673E+03  0.00000000000E+00 0.  1.
         21    1    1    2  505  503 -0.60635127179E+02  0.61116712133E+02 -0.12681480918E+03  0.15327709214E+03  0.00000000000E+00 0. -1.
         -1    1    1    2    0  505  0.22834062989E+02 -0.54695220898E+02 -0.12180969349E+04  0.12195380701E+04  0.00000000000E+00 0.  1.
<scales pt_clust_3="74.26382" pt_clust_4="42.97191" pt_clust_5="14000.00000" pt_clust_6="73.80460"></scales>
<clustering>
<clus scale="   42.972">  2  4  1 -1</clus>
<clus scale="   74.264">  1  3  2 -1</clus>
<clus scale="   73.805">  2  6  1 -1</clus>
<clus scale="   74.264">  1  3  2 -1</clus>
</clustering>
</event>
<event>
 6    0  0.4945982E+002  0.1230932E+03  0.7546771E-02  0.1238080E+00
          2   -1    0    0  504    0 -0.00000000000E+00  0.00000000000E+00  0.16923346149E+04  0.16923346149E+04  0.00000000000E+00 0. -1.
         21   -1    0    0  501  502  0.00000000000E+00 -0.00000000000E+00 -0.34793896220E+02  0.34793896220E+02  0.00000000000E+00 0. -1.
         21    1    1    2  503  502 -0.78321141803E+02  0.48774659546E+02  0.17712125283E+03  0.19971256062E+03  0.00000000000E+00 0. -1.
         21    1    1    2  504  505  0.81975234613E+02 -0.34167197547E+02  0.11944314730E+03  0.14884220475E+03  0.00000000000E+00 0. -1.
         21    1    1    2  505  503  0.33799691258E+02 -0.50929533787E+02  0.10486365082E+03  0.12137801203E+03  0.00000000000E+00 0. -1.
          2    1    1    2  501    0 -0.37453784068E+02  0.36322071787E+02  0.12561126677E+04  0.12571957337E+04  0.00000000000E+00 0. -1.
<scales pt_clust_3="114.41936" pt_clust_4="37.65514" pt_clust_5="37.65514" pt_clust_6="52.17355"></scales>
<clustering>
<clus scale="   37.655">  4  5 -1 -1</clus>
<clus scale="   52.174">  1  6  2 -1</clus>
<clus scale="  114.419">  2  3  1 -1</clus>
<clus scale="  114.419">  2  3  1 -1</clus>
</clustering>
</event>
<event>
 6    0  0.4945982E+002  0.1073035E+03  0.7546771E-02  0.1265646E+00
          1   -1    0    0  504    0 -0.00000000000E+00  0.00000000000E+00  0.10734054656E+04  0.10734054656E+04  0.00000000000E+00 0. -1.
         21   -1    0    0  501  502  0.00000000000E+00 -0.00000000000E+00 -0.12772590380E+03  0.12772590380E+03  0.00000000000E+00 0. -1.
         21    1    1    2  503  502 -0.40234464949E+02  0.13617563868E+02 -0.71448761422E+02  0.83121451649E+02  0.00000000000E+00 0. -1.
         21    1    1    2  504  505  0.47179937949E+02  0.33782226035E+02 -0.21049675109E+01  0.58065620026E+02  0.00000000000E+00 0. -1.
         21    1    1    2  505  503  0.36550954293E+02  0.44387766767E+02  0.28787101439E+02  0.64303524846E+02  0.00000000000E+00 0.  1.
          1    1    1    2  501    0 -0.43496427293E+02 -0.91787556670E+02  0.99044618931E+03  0.99564077290E+03  0.00000000000E+00 0. -1.
<scales pt_clust_3="42.47647" pt_clust_4="33.62277" pt_clust_5="33.62277" pt_clust_6="101.84883"></scales>
<clustering>
<clus scale="   33.623">  4  5 -1 -1</clus>
<clus scale="   42.476">  2  3  1 -1</clus>
<clus scale="  101.849">  1  6  2 -1</clus>
<clus scale="   42.476">  2  3  1 -1</clus>
</clustering>
</event>
<event>
 6    0  0.4945982E+002  0.9046622E+02  0.7546771E-02  0.1301727E+00
         21   -1    0    0  503  502  0.00000000000E+00  0.00000000000E+00  0.95668932530E+03  0.95668932530E+03  0.00000000000E+00 0. -1.
          2   -1    0    0  505    0 -0.00000000000E+00 -0.00000000000E+00 -0.17219192112E+03  0.17219192112E+03  0.00000000000E+00 0.  1.
         21    1    1    2  503  504 -0.12271512197E+02 -0.36127167268E+02  0.99551963772E+02  0.10661311231E+03  0.00000000000E+00 0.  1.
         21    1    1    2  504  501 -0.16814397027E+02  0.76960255337E+02  0.12327370373E+03  0.14629426127E+03  0.00000000000E+00 0. -1.
         21    1    1    2  505  502 -0.50409138776E+02 -0.84236389513E+02  0.70206789933E+03  0.70889786701E+03  0.00000000000E+00 0. -1.
          2    1    1    2  501    0  0.79495048000E+02  0.43403301444E+02 -0.14039616265E+03  0.16707600582E+03  0.00000000000E+00 0.  1.
<scales pt_clust_3="38.15445" pt_clust_4="73.68194" pt_clust_5="14000.00000" pt_clust_6="90.46622"></scales>
<clustering>
<clus scale="   38.154">  1  3  2 -1</clus>
<clus scale="   73.682">  1  4  2 -1</clus>
<clus scale="   90.466">  2  6  1 -1</clus>
<clus scale="   38.154">  1  3  2 -1</clus>
</clustering>
</event>
<event>
 6    0  0.4945982E+002  0.1835085E+03  0.7546771E-02  0.1164450E+00
          1   -1    0    0  503    0 -0.00000000000E+00  0.00000000000E+00  0.33304567323E+03  0.33304567323E+03  0.00000000000E+00 0.  1.
         21   -1    0    0  504  502  0.00000000000E+00 -0.00000000000E+00 -0.30476216543E+03  0.30476216543E+03  0.00000000000E+00 0. -1.
         21    1    1    2  503  505  0.96054875896E+02  0.56311625111E+02 -0.22110302229E+02  0.11351829707E+03  0.00000000000E+00 0. -1.
         21    1    1    2  504  501 -0.61768945902E+02 -0.52073665841E+02 -0.73995423121E+02  0.10955542887E+03  0.00000000000E+00 0. -1.
         21    1    1    2  505  502  0.12275513554E+03  0.52938933439E+02 -0.76017755478E+02  0.15378573771E+03  0.00000000000E+00 0. -1.
          1    1    1    2  501    0 -0.15704106554E+03 -0.57176892708E+02  0.20040698863E+03  0.26094837500E+03  0.00000000000E+00 0.  1.
<scales pt_clust_3="40.90399" pt_clust_4="80.79028" pt_clust_5="40.90399" pt_clust_6="177.95100"></scales>
<clustering>
<clus scale="   40.904">  3  5 -1 -1</clus>
<clus scale="   80.790">  2  4  1 -1</clus>
<clus scale="  177.951">  1  6  2 -1</clus>
<clus scale="   80.790">  2  3  1 -1</clus>
</clustering>
</event>
<event>
 6    0  0.4945982E+002  0.1159955E+03  0.7546771E-02  0.1249853E+00
         -4   -1    0    0    0  501 -0.00000000000E+00  0.00000000000E+00  0.25138378702E+03  0.25138378702E+03  0.00000000000E+00 0.  1.
         21   -1    0    0  504  502  0.00000000000E+00 -0.00000000000E+00 -0.42065105491E+03  0.42065105491E+03  0.00000000000E+00 0.  1.
         21    1    1    2  503  501  0.11224678261E+02 -0.12889390493E+03 -0.25007381556E+03  0.28156090879E+03  0.00000000000E+00 0.  1.
         21    1    1    2  504  503  0.60019219066E+02  0.11245952489E+02 -0.11580832752E+03  0.13092114737E+03  0.00000000000E+00 0.  1.
         21    1    1    2  505  502 -0.13471330629E+02  0.72502515569E+02  0.34063127049E+02  0.81230463110E+02  0.00000000000E+00 0.  1.
         -4    1    1    2    0  505 -0.57772566699E+02  0.45145436871E+02  0.16255174815E+03  0.17832232266E+03  0.00000000000E+00 0.  1.
<scales pt_clust_3="14000.00000" pt_clust_4="61.06372" pt_clust_5="115.99554" pt_clust_6="72.25920"></scales>
<clustering>
<clus scale="   61.064">  2  4  1 -1</clus>
<clus scale="   72.259">  1  6  2 -1</clus>
<clus scale="  115.996">  1  5  2 -1</clus>
<clus scale="   61.064">  2  3  1 -1</clus>
</clustering>
</event>
<event>
 6    0  0.4945982E+002  0.2464684E+03  0.7546771E-02  0.1115557E+00
         21   -1    0    0  505  502  0.00000000000E+00  0.00000000000E+00  0.12430491851E+03  0.12430491851E+03  0.00000000000E+00 0.  1.
          2   -1    0    0  503    0 -0.00000000000E+00 -0.00000000000E+00 -0.18759560254E+04  0.18759560254E+04  0.00000000000E+00 0.  1.
         21    1    1    2  503  502  0.20712419441E+03 -0.41705347546E+02 -0.11472893025E+03  0.24042149522E+03  0.00000000000E+00 0.  1.
         21    1    1    2  504  501 -0.19574287178E+03  0.80064359514E+02 -0.25689602264E+03  0.33274786245E+03  0.00000000000E+00 0.  1.
         21    1    1    2  505  504 -0.46641629588E+02  0.40331334252E+02 -0.20713927678E+02  0.65047097806E+02  0.00000000000E+00 0.  1.
          2    1    1    2  501    0  0.35260306959E+02 -0.78690346220E+02 -0.13593122263E+04  0.13620444884E+04  0.00000000000E+00 0.  1.
<scales pt_clust_3="229.82274" pt_clust_4="48.07866" pt_clust_5="48.07866" pt_clust_6="86.22911"></scales>
<clustering>
<clus scale="   48.079">  4  5 -1 -1</clus>
<clus scale="   86.229">  2  6  1 -1</clus>
<clus scale="  229.823">  1  3  2 -1</clus>
<clus scale="  229.823">  1  3  2 -1</clus>
</clustering>
</event>
<event>
 6    0  0.4945982E+002  0.1603628E+03  0.7546771E-02  0.1188288E+00
         21   -1    0    0  503  502  0.00000000000E+00  0.00000000000E+00  0.10513710335E+04  0.10513710335E+04  0.00000000000E+00 0.  1.
          1   -1    0    0  505    0 -0.00000000000E+00 -0.00000000000E+00 -0.65633556900E+03  0.65633556900E+03  0.00000000000E+00 0.  1.
         21    1    1    2  503  501 -0.14861746236E+03 -0.65185354195E+02  0.10166722783E+04  0.10295430064E+04  0.00000000000E+00 0.  1.
         21    1    1    2  504  502  0.10364382236E+03 -0.16847804346E+02 -0.22949612636E+03  0.25237742062E+03  0.00000000000E+00 0.  1.
         21    1    1    2  505  504  0.36424313188E+02  0.32676093166E+02 -0.24454601231E+02  0.54703612103E+02  0.00000000000E+00 0.  1.
          1    1    1    2  501    0  0.85493268122E+01  0.49357065376E+02 -0.36768608619E+03  0.37108256342E+03  0.00000000000E+00 0.  1.
<scales pt_clust_3="14000.00000" pt_clust_4="160.36278" pt_clust_5="48.93320" pt_clust_6="75.31906"></scales>
<clustering>
<clus scale="   48.933">  2  5  1 -1</clus>
<clus scale="   75.319">  2  6  1 -1</clus>
<clus scale="  160.363">  2  4  1 -1</clus>
<clus scale="  160.363">  1  3  2 -1</clus>
</clustering>
</event>
<event>
 6    0  0.1357889E+003  0.1418984E+03  0.7546771E-02  0.1210797E+00
          2   -1    0    0  505    0 -0.00000000000E+00  0.00000000000E+00  0.48302323581E+04  0.48302323581E+04  0.00000000000E+00 0.  1.
         21   -1    0    0  504  502  0.00000000000E+00 -0.00000000000E+00 -0.46437268707E+03  0.46437268707E+03  0.00000000000E+00 0.  1.
         21    1    1    2  503  501 -0.53603891694E+02 -0.65596073074E+02 -0.40347650763E+03  0.41227359146E+03  0.00000000000E+00 0.  1.
         21    1    1    2  504  503 -0.35806444817E+02 -0.92713184584E+01 -0.33290034853E+02  0.49762287497E+02  0.00000000000E+00 0. -1.
         21    1    1    2  505  502 -0.37753554468E+02  0.11527714431E+02  0.14071216982E+02  0.41907257394E+02  0.00000000000E+00 0. -1.
          2    1    1    2  501    0  0.12716389098E+03  0.63339677102E+02  0.47885549965E+04  0.47906619088E+04  0.00000000000E+00 0.  1.
<scales pt_clust_3="14000.00000" pt_clust_4="36.98728" pt_clust_5="40.51735" pt_clust_6="141.89837"></scales>
<clustering>
<clus scale="   36.987">  2  4  1 -1</clus>
<clus scale="   40.517">  2  5  1 -1</clus>
<clus scale="  141.898">  1  6  2 -1</clus>
<clus scale="   36.987">  2  3  1 -1</clus>
</clustering>
</event>
<event>
 6    0  0.4945982E+002  0.1476416E+03  0.7546771E-02  0.1203401E+00
         -3   -1    0    0    0  501 -0.00000000000E+00  0.00000000000E+00  0.59450449920E+03  0.59450449920E+03  0.00000000000E+00 0.  1.
         21   -1    0    0  501  502  0.00000000000E+00 -0.00000000000E+00 -0.78860100559E+02  0.78860100559E+02  0.00000000000E+00 0.  1.
         21    1    1    2  503  505 -0.52913810713E+02 -0.11710366042E+03  0.87914603812E+02  0.15569879964E+03  0.00000000000E+00 0.  1.
         21    1    1    2  504  503 -0.31734455729E+01  0.79505333544E+02  0.16474077285E+03  0.18294996873E+03  0.00000000000E+00 0.  1.
         21    1    1    2  505  502  0.38342754053E+02 -0.23125288161E+02 -0.16829549704E+02  0.47834919088E+02  0.00000000000E+00 0.  1.
         -3    1    1    2    0  504  0.17744502233E+02  0.60723615032E+02  0.27981857169E+03  0.28688091230E+03  0.00000000000E+00 0.  1.
<scales pt_clust_3="136.25879" pt_clust_4="51.84978" pt_clust_5="44.77662" pt_clust_6="51.84978"></scales>
<clustering>
<clus scale="   44.777">  2  5  1 -1</clus>
<clus scale="   51.850">  4  6 -1 -1</clus>
<clus scale="  136.259">  2  3  1 -1</clus>
<clus scale="   44.777">  2  3  1 -1</clus>
</clustering>
</event>
<event>
 6    0  0.4945982E+002  0.1113393E+03  0.7546771E-02  0.1258110E+00
         21   -1    0    0  505  502  0.00000000000E+00  0.00000000000E+00  0.53350642527E+03  0.53350642527E+03  0.00000000000E+00 0. -1.
          3   -1    0    0  504    0 -0.00000000000E+00 -0.00000000000E+00 -0.26735510562E+03  0.26735510562E+03  0.00000000000E+00 0.  1.
         21    1    1    2  503  502 -0.60880607743E+02  0.24298808713E+02  0.11755783531E+02  0.66596388419E+02  0.00000000000E+00 0. -1.
         21    1    1    2  504  503 -0.15776840843E+02 -0.27556450931E+02  0.85086634345E+01  0.32873455071E+02  0.00000000000E+00 0.  1.
         21    1    1    2  505  501  0.12446701184E+03 -0.18645884946E+02  0.46207047553E+03  0.47890377991E+03  0.00000000000E+00 0. -1.
          3    1    1    2  501    0 -0.47809563253E+02  0.21903527164E+02 -0.21618360285E+03  0.22248790749E+03  0.00000000000E+00 0.  1.
<scales pt_clust_3="111.33934" pt_clust_4="31.75322" pt_clust_5="14000.00000" pt_clust_6="61.39656"></scales>
<clustering>
<clus scale="   31.753">  2  4  1 -1</clus>
<clus scale="   61.397">  2  6  1 -1</clus>
<clus scale="  111.339">  2  3  1 -1</clus>
<clus scale="  111.339">  1  3  2 -1</clus>
</clustering>
</event>
<event>
 6    0  0.4945982E+002  0.6767829E+02  0.7546771E-02  0.1368171E+00
         21   -1    0    0  504  502  0.00000000000E+00  0.00000000000E+00  0.86235020148E+02  0.86235020148E+02  0.00000000000E+00 0. -1.
          2   -1    0    0  505    0 -0.00000000000E+00 -0.00000000000E+00 -0.77929520631E+03  0.77929520631E+03  0.00000000000E+00 0. -1.
         21    1    1    2  503  502  0.39522409084E+02 -0.10396168058E+03 -0.97254323131E+02  0.14774456070E+03  0.00000000000E+00 0. -1.
         21    1    1    2  504  501 -0.42460181129E+02  0.45565579777E+02  0.36384531092E+02  0.72131291023E+02  0.00000000000E+00 0. -1.
         21    1    1    2  505  503 -0.26861102929E+02  0.47912609908E+02 -0.11442287135E+03  0.12692411326E+03  0.00000000000E+00 0.  1.
          2    1    1    2  501    0  0.29798874974E+02  0.10483490895E+02 -0.51776752277E+03  0.51873026147E+03  0.00000000000E+00 0. -1.
<scales pt_clust_3="67.67829" pt_clust_4="14000.00000" pt_clust_5="54.35747" pt_clust_6="31.58918"></scales>
<clustering>
<clus scale="   31.589">  2  6  1 -1</clus>
<clus scale="   54.357">  2  5  1 -1</clus>
<clus scale="   67.678">  2  3  1 -1</clus>
<clus scale="   67.678">  1  3  2 -1</clus>
</clustering>
</event>
<event>
 6    0  0.4945982E+002  0.8460425E+02  0.7546771E-02  0.1316471E+00
          2   -1    0    0  505    0 -0.00000000000E+00  0.00000000000E+00  0.34089162314E+04  0.34089162314E+04  0.00000000000E+00 0.  1.
         21   -1    0    0  501  502  0.00000000000E+00 -0.00000000000E+00 -0.48577433080E+02  0.48577433080E+02  0.00000000000E+00 0. -1.
         21    1    1    2  503  502 -0.76216910196E+01 -0.55228705138E+02 -0.94652890568E+01  0.56549904882E+02  0.00000000000E+00 0. -1.
         21    1    1    2  504  503  0.28758403409E+02 -0.50200185227E+02  0.10158376598E+03  0.11690323295E+03  0.00000000000E+00 0. -1.
         21    1    1    2  505  504 -0.95890268057E+02  0.60444253154E+02  0.43653097467E+03  0.45100747565E+03  0.00000000000E+00 0. -1.
          2    1    1    2  501    0  0.74753555668E+02  0.44984637212E+02  0.28316893468E+04  0.28330330510E+04  0.00000000000E+00 0.  1.
<scales pt_clust_3="55.75213" pt_clust_4="81.31196" pt_clust_5="14000.00000" pt_clust_6="84.60425"></scales>
<clustering>
<clus scale="   55.752">  2  3  1 -1</clus>
<clus scale="   81.312">  2  4  1 -1</clus>
<clus scale="   84.604">  1  6  2 -1</clus>
<clus scale="   55.752">  2  3  1 -1</clus>
</clustering>
</event>
<event>
 6    0  0.4945982E+002  0.1773844E+03  0.7546771E-02  0.1170359E+00
         21   -1    0    0  503  502  0.00000000000E+00  0.00000000000E+00  0.20304133801E+04  0.20304133801E+04  0.00000000000E+00 0. -1.
          2   -1    0    0  505    0 -0.00000000000E+00 -0.00000000000E+00 -0.16951736126E+03  0.16951736126E+03  0.00000000000E+00 0. -1.
         21    1    1    2  503  501 -0.18017890010E+03  0.10832253727E+03 -0.30827425466E+02  0.21248185401E+03  0.00000000000E+00 0. -1.
         21    1    1    2  504  502  0.14350805191E+03 -0.10241322618E+03  0.19008776057E+04  0.19090360661E+04  0.00000000000E+00 0. -1.
         21    1    1    2  505  504  0.42016422555E+01 -0.34401034214E+02 -0.50105074243E+01  0.35016997834E+02  0.00000000000E+00 0. -1.
          2    1    1    2  501    0  0.32469205940E+02  0.28491723126E+02 -0.41436539722E+01  0.43395823408E+02  0.00000000000E+00 0. -1.
<scales pt_clust_3="14000.00000" pt_clust_4="177.38439" pt_clust_5="34.65667" pt_clust_6="40.34973"></scales>
<clustering>
<clus scale="   34.657">  2  5  1 -1</clus>
<clus scale="   40.350">  2  6  1 -1</clus>
<clus scale="  177.384">  1  4  2 -1</clus>
<clus scale="  177.384">  1  3  2 -1</clus>
</clustering>
</event>
<event>
 6    0  0.4945982E+002  0.1913185E+03  0.7546771E-02  0.1157277E+00
         21   -1    0    0  503  502  0.00000000000E+00  0.00000000000E+00  0.45607821306E+03  0.45607821306E+03  0.00000000000E+00 0.  1.
          2   -1    0    0  504    0 -0.00000000000E+00 -0.00000000000E+00 -0.33831950340E+03  0.33831950340E+03  0.00000000000E+00 0. -1.
         21    1    1    2  503  505 -0.11793263989E+03 -0.42045220636E+02 -0.66722983826E+02  0.14187270598E+03  0.00000000000E+00 0. -1.
         21    1    1    2  504  502  0.16918082035E+03  0.78997669429E+02  0.38891150770E+03  0.43141041083E+03  0.00000000000E+00 0.  1.
         21    1    1    2  505  501 -0.11686304465E+02 -0.29403345529E+02 -0.35964243338E+02  0.47901495167E+02  0.00000000000E+00 0.  1.
          2    1    1    2  501    0 -0.39561875995E+02 -0.75491032638E+01 -0.16846557088E+03  0.17321310448E+03  0.00000000000E+00 0. -1.
<scales pt_clust_3="30.00954" pt_clust_4="181.76676" pt_clust_5="30.00954" pt_clust_6="40.27569"></scales>
<clustering>
<clus scale="   30.010">  3  5 -1 -1</clus>
<clus scale="   40.276">  2  6  1 -1</clus>
<clus scale="  181.767">  1  4  2 -1</clus>
<clus scale="  181.767">  1  3  2 -1</clus>
</clustering>
</event>
<event>
 6    0  0.4945982E+002  0.2677733E+03  0.7546771E-02  0.1102561E+00
         21   -1    0    0  505  502  0.00000000000E+00  0.00000000000E+00  0.17801267850E+03  0.17801267850E+03  0.00000000000E+00 0.  1.
          1   -1    0    0  503    0 -0.00000000000E+00 -0.00000000000E+00 -0.14870386155E+04  0.14870386155E+04  0.00000000000E+00 0.  1.
         21    1    1    2  503  504 -0.12133922919E+03  0.21349344115E+03 -0.26059817939E+03  0.35806992202E+03  0.00000000000E+00 0. -1.
         21    1    1    2  504  502  0.25719823053E+02  0.20759434857E+02  0.11139171515E+03  0.11619198612E+03  0.00000000000E+00 0.  1.
         21    1    1    2  505  501  0.11347124800E+03 -0.18777466437E+03 -0.91209115886E+03  0.93810731303E+03  0.00000000000E+00 0.  1.
          1    1    1    2  501    0 -0.17851841871E+02 -0.46478211644E+02 -0.24772831387E+03  0.25268207279E+03  0.00000000000E+00 0.  1.
<scales pt_clust_3="250.84230" pt_clust_4="33.05243" pt_clust_5="44.22465" pt_clust_6="44.22465"></scales>
<clustering>
<clus scale="   33.052">  1  4  2 -1</clus>
<clus scale="   44.225">  5  6 -1 -1</clus>
<clus scale="  250.842">  1  3  2 -1</clus>
<clus scale="   33.052">  1  3  2 -1</clus>
</clustering>
</event>
<event>
 6    0  0.4945982E+002  0.9083448E+02  0.7546771E-02  0.1300843E+00
         21   -1    0    0  504  502  0.00000000000E+00  0.00000000000E+00  0.17101746652E+03  0.17101746652E+03  0.00000000000E+00 0.  1.
          1   -1    0    0  505    0 -0.00000000000E+00 -0.00000000000E+00 -0.13819150915E+04  0.13819150915E+04  0.00000000000E+00 0. -1.
         21    1    1    2  503  502  0.87274469012E+02 -0.43265086094E+02  0.12395107233E+03  0.15764697570E+03  0.00000000000E+00 0.  1.
         21    1    1    2  504  501 -0.13813150518E+02 -0.44643739659E+02 -0.43426550960E+02  0.63794450748E+02  0.00000000000E+00 0.  1.
         21    1    1    2  505  503 -0.31023662250E+02  0.66810774247E+02 -0.49690641237E+02  0.88855540072E+02  0.00000000000E+00 0.  1.
          1    1    1    2  501    0 -0.42437656244E+02  0.21098051507E+02 -0.12417315051E+04  0.12426355915E+04  0.00000000000E+00 0. -1.
<scales pt_clust_3="90.83448" pt_clust_4="46.73186" pt_clust_5="14000.00000" pt_clust_6="47.37194"></scales>
<clustering>
<clus scale="   46.732">  1  4  2 -1</clus>
<clus scale="   47.372">  2  6  1 -1</clus>
<clus scale="   90.834">  1  3  2 -1</clus>
<clus scale="   46.732">  1  3  2 -1</clus>
</clustering>
</event>
<event>
 6    0  0.1155325E+003  0.9518955E+02  0.7546771E-02  0.1290750E+00
         21   -1    0    0  505  502  0.00000000000E+00  0.00000000000E+00  0.67014349281E+03  0.67014349281E+03  0.00000000000E+00 0. -1.
          2   -1    0    0  504    0 -0.00000000000E+00 -0.00000000000E+00 -0.10503314307E+04  0.10503314307E+04  0.00000000000E+00 0. -1.
         21    1    1    2  503  502  0.35595174707E+02 -0.12336937953E+02  0.51271629077E+03  0.51409844516E+03  0.00000000000E+00 0. -1.
         21    1    1    2  504  503  0.10437855876E+03 -0.19617850873E+01  0.76462857328E+02  0.12940363473E+03  0.00000000000E+00 0. -1.
         21    1    1    2  505  501 -0.45060117748E+02  0.18207302244E+02  0.40123653924E+02  0.63022437835E+02  0.00000000000E+00 0.  1.
          2    1    1    2  501    0 -0.94913615719E+02 -0.39085792036E+01 -0.10094907399E+04  0.10139504057E+04  0.00000000000E+00 0. -1.
<scales pt_clust_3="37.67249" pt_clust_4="14000.00000" pt_clust_5="36.22479" pt_clust_6="95.18955"></scales>
<clustering>
<clus scale="   37.672">  1  3  2 -1</clus>
<clus scale="   36.225">  1  5  2 -1</clus>
<clus scale="   95.190">  2  6  1 -1</clus>
<clus scale="   37.672">  1  3  2 -1</clus>
</clustering>
</event>
<event>
 6    0  0.4945982E+002  0.1007725E+03  0.7546771E-02  0.1278680E+00
         21   -1    0    0  505  502  0.00000000000E+00  0.00000000000E+00  0.24821839667E+03  0.24821839667E+03  0.00000000000E+00 0. -1.
          2   -1    0    0  503    0 -0.00000000000E+00 -0.00000000000E+00 -0.11277466548E+04  0.11277466548E+04  0.00000000000E+00 0. -1.
         21    1    1    2  503  504  0.71114745932E+02 -0.46940679340E+02 -0.39754349805E+02  0.94027351309E+02  0.00000000000E+00 0. -1.
         21    1    1    2  504  502  0.73245927994E+01 -0.10122434866E+03  0.19817323179E+03  0.22264915948E+03  0.00000000000E+00 0. -1.
         21    1    1    2  505  501 -0.38248437310E+02  0.83977873255E+02 -0.23031274465E+03  0.24811123816E+03  0.00000000000E+00 0. -1.
          2    1    1    2  501    0 -0.40190901421E+02  0.64187154745E+02 -0.80763439542E+03  0.81117730248E+03  0.00000000000E+00 0. -1.
<scales pt_clust_3="71.03960" pt_clust_4="100.77254" pt_clust_5="14000.00000" pt_clust_6="75.73176"></scales>
<clustering>
<clus scale="   75.732">  2  6  1 -1</clus>
<clus scale="   71.040">  2  3  1 -1</clus>
<clus scale="  100.773">  1  4  2 -1</clus>
<clus scale="  100.773">  1  3  2 -1</clus>
</clustering>
</event>
<event>
 6    0  0.4945982E+002  0.6198775E+03  0.7546771E-02  0.9865004E-01
         21   -1    0    0  505  502  0.00000000000E+00  0.00000000000E+00  0.32028555205E+03  0.32028555205E+03  0.00000000000E+00 0.  1.
          2   -1    0    0  503    0 -0.00000000000E+00 -0.00000000000E+00 -0.26885013932E+04  0.26885013932E+04  0.00000000000E+00 0.  1.
         21    1    1    2  503  504 -0.42334703063E+02 -0.59627562307E+01 -0.70518412995E+02  0.82465920941E+02  0.00000000000E+00 0. -1.
         21    1    1    2  504  502 -0.60557771486E+03 -0.15422848125E+03 -0.14372135463E+03  0.64122275454E+03  0.00000000000E+00 0.  1.
         21    1    1    2  505  501  0.23547007087E+02 -0.32225742613E+02 -0.65025213582E+01  0.40438135636E+02  0.00000000000E+00 0.  1.
          2    1    1    2  501    0  0.62436541084E+03  0.19241698009E+03 -0.21474735522E+04  0.22446601342E+04  0.00000000000E+00 0.  1.
<scales pt_clust_3="42.38753" pt_clust_4="619.87755" pt_clust_5="39.91190" pt_clust_6="14000.00000"></scales>
<clustering>
<clus scale="   39.912">  1  5  2 -1</clus>
<clus scale="   42.388">  2  3  1 -1</clus>
<clus scale="  619.878">  1  4  2 -1</clus>
<clus scale="   39.912">  1  3  2 -1</clus>
</clustering>
</event>
<event>
 6    0  0.4945982E+002  0.2181740E+03  0.7546771E-02  0.1135252E+00
          2   -1    0    0  505    0 -0.00000000000E+00  0.00000000000E+00  0.72262526758E+02  0.72262526758E+02  0.00000000000E+00 0.  1.
         21   -1    0    0  501  502  0.00000000000E+00 -0.00000000000E+00 -0.16211320877E+04  0.16211320877E+04  0.00000000000E+00 0. -1.
         21    1    1    2  503  502 -0.96099022995E+02 -0.42709198474E+01 -0.60018852309E+03  0.60784827566E+03  0.00000000000E+00 0. -1.
         21    1    1    2  504  503 -0.10088981477E+03 -0.57393828984E+02 -0.67302908015E+03  0.68296482271E+03  0.00000000000E+00 0. -1.
         21    1    1    2  505  504 -0.41169188073E+02 -0.13246944417E+02 -0.49357296694E+02  0.65624129099E+02  0.00000000000E+00 0.  1.
          2    1    1    2  501    0  0.23815802584E+03  0.74911693248E+02 -0.22629466106E+03  0.33695738704E+03  0.00000000000E+00 0.  1.
<scales pt_clust_3="45.54054" pt_clust_4="45.54054" pt_clust_5="43.24793" pt_clust_6="212.34790"></scales>
<clustering>
<clus scale="   43.248">  1  5  2 -1</clus>
<clus scale="   45.541">  3  4 -1 -1</clus>
<clus scale="  212.348">  1  6  2 -1</clus>
<clus scale="  218.174">  2  3  1 -1</clus>
</clustering>
</event>
<event>
 6    0  0.4945982E+002  0.1596703E+03  0.7546771E-02  0.1189069E+00
          2   -1    0    0  505    0 -0.00000000000E+00  0.00000000000E+00  0.35123832607E+03  0.35123832607E+03  0.00000000000E+00 0.  1.
         21   -1    0    0  504  502  0.00000000000E+00 -0.00000000000E+00 -0.13121484820E+04  0.13121484820E+04  0.00000000000E+00 0. -1.
         21    1    1    2  503  502 -0.43869640896E+02 -0.51525146350E+02 -0.78317921925E+03  0.78609737028E+03  0.00000000000E+00 0. -1.
         21    1    1    2  504  501 -0.55348324703E+02  0.90451825112E+02 -0.19637713314E+03  0.22317918392E+03  0.00000000000E+00 0. -1.
         21    1    1    2  505  503 -0.66869138127E+02 -0.31072570391E+02 -0.29232314470E+03  0.30147936445E+03  0.00000000000E+00 0.  1.
          2    1    1    2  501    0  0.16608710373E+03 -0.78541083703E+01  0.31096934115E+03  0.35263088943E+03  0.00000000000E+00 0.  1.
<scales pt_clust_3="67.67116" pt_clust_4="100.96342" pt_clust_5="14000.00000" pt_clust_6="159.67035"></scales>
<clustering>
<clus scale="   67.671">  2  3  1 -1</clus>
<clus scale="  100.963">  2  4  1 -1</clus>
<clus scale="  159.670">  1  6  2 -1</clus>
<clus scale="   67.671">  2  3  1 -1</clus>
</clustering>
</event>
<event>
 6    0  0.4945982E+002  0.1017063E+03  0.7546771E-02  0.1276748E+00
          2   -1    0    0  503    0 -0.00000000000E+00  0.00000000000E+00  0.20799845196E+04  0.20799845196E+04  0.00000000000E+00 0.  1.
         21   -1    0    0  501  502  0.00000000000E+00 -0.00000000000E+00 -0.43047754105E+02  0.43047754105E+02  0.00000000000E+00 0.  1.
         21    1    1    2  503  504  0.31102130876E+02 -0.38708493109E+02  0.28799872136E+03  0.29224810263E+03  0.00000000000E+00 0. -1.
         21    1    1    2  504  505  0.64538446180E+02  0.72093659254E+01  0.45835488269E+03  0.46293237570E+03  0.00000000000E+00 0.  1.
         21    1    1    2  505  502 -0.56184070020E+02  0.63584891609E+02  0.90749443748E+01  0.85334886068E+02  0.00000000000E+00 0.  1.
          2    1    1    2  501    0 -0.39456507037E+02 -0.32085764425E+02  0.12815082171E+04  0.12825169093E+04  0.00000000000E+00 0.  1.
<scales pt_clust_3="48.80066" pt_clust_4="48.80066" pt_clust_5="85.02729" pt_clust_6="50.85580"></scales>
<clustering>
<clus scale="   48.801">  3  4 -1 -1</clus>
<clus scale="   50.856">  1  6  2 -1</clus>
<clus scale="   85.027">  2  5  1 -1</clus>
<clus scale="   85.027">  2  3  1 -1</clus>
</clustering>
</event>
<event>
 6    0  0.4945982E+002  0.1114878E+03  0.7546771E-02  0.1257839E+00
         21   -1    0    0  503  502  0.00000000000E+00  0.00000000000E+00  0.32081342363E+03  0.32081342363E+03  0.00000000000E+00 0. -1.
         -2   -1    0    0    0  501 -0.00000000000E+00 -0.00000000000E+00 -0.16932556835E+03  0.16932556835E+03  0.00000000000E+00 0.  1.
         21    1    1    2  503  501 -0.12994720962E+02 -0.91813649643E+02  0.13549725860E+02  0.93713414753E+02  0.00000000000E+00 0. -1.
         21    1    1    2  504  502 -0.92656416969E+01  0.59408447335E+02  0.16104679824E+03  0.17190487763E+03  0.00000000000E+00 0. -1.
         21    1    1    2  505  504 -0.40691342810E+02  0.36204405220E+02  0.84065580655E+02  0.10016769034E+03  0.00000000000E+00 0. -1.
         -2    1    1    2    0  505  0.62951705469E+02 -0.37992029116E+01 -0.10717424947E+03  0.12435300927E+03  0.00000000000E+00 0.  1.
<scales pt_clust_3="100.61629" pt_clust_4="45.70335" pt_clust_5="45.70335" pt_clust_6="63.06624"></scales>
<clustering>
<clus scale="   45.703">  4  5 -1 -1</clus>
<clus scale="   63.066">  2  6  1 -1</clus>
<clus scale="  100.616">  2  3  1 -1</clus>
<clus scale="  111.488">  1  3  2 -1</clus>
</clustering>
</event>
<event>
 6    0  0.4945982E+002  0.1359896E+03  0.7546771E-02  0.1218829E+00
         21   -1    0    0  504  502  0.00000000000E+00  0.00000000000E+00  0.35794491421E+03  0.35794491421E+03  0.00000000000E+00 0. -1.
          1   -1    0    0  505    0 -0.00000000000E+00 -0.00000000000E+00 -0.38713542791E+03  0.38713542791E+03  0.00000000000E+00 0. -1.
         21    1    1    2  503  502 -0.39742937850E+02 -0.14239173524E+02  0.40547536752E+02  0.58535099797E+02  0.00000000000E+00 0.  1.
         21    1    1    2  504  501  0.71064535570E+02  0.28415122159E+02  0.18715496897E+03  0.20219933184E+03  0.00000000000E+00 0. -1.
         21    1    1    2  505  503 -0.59754842032E+02 -0.12543020700E+03  0.56949791438E+02  0.15015544186E+03  0.00000000000E+00 0. -1.
          1    1    1    2  501    0  0.28433244313E+02  0.11125425837E+03 -0.31384281086E+03  0.33419046862E+03  0.00000000000E+00 0. -1.
<scales pt_clust_3="37.54316" pt_clust_4="76.53488" pt_clust_5="37.54316" pt_clust_6="117.70519"></scales>
<clustering>
<clus scale="   37.543">  3  5 -1 -1</clus>
<clus scale="   76.535">  1  4  2 -1</clus>
<clus scale="  117.705">  2  6  1 -1</clus>
<clus scale="   76.535">  1  3  2 -1</clus>
</clustering>
</event>
<event>
 6    0  0.4945982E+002  0.1838325E+03  0.7546771E-02  0.1164145E+00
         21   -1    0    0  505  502  0.00000000000E+00  0.00000000000E+00  0.34139735276E+03  0.34139735276E+03  0.00000000000E+00 0. -1.
          2   -1    0    0  503    0 -0.00000000000E+00 -0.00000000000E+00 -0.89286327801E+03  0.89286327801E+03  0.00000000000E+00 0. -1.
         21    1    1    2  503  504  0.12527563078E+03  0.92732020212E+01  0.11073806853E+03  0.16746013187E+03  0.00000000000E+00 0. -1.
         21    1    1    2  504  502  0.69801034427E+02  0.34677337856E+02  0.14427928829E+03  0.16398541154E+03  0.00000000000E+00 0. -1.
         21    1    1    2  505  501 -0.25665481638E+02 -0.48556060643E+02  0.20516726785E+02  0.58628867044E+02  0.00000000000E+00 0. -1.
          2    1    1    2  501    0 -0.16941118357E+03  0.46055207657E+01 -0.82700000886E+03  0.84418622033E+03  0.00000000000E+00 0. -1.
<scales pt_clust_3="54.77548" pt_clust_4="54.77548" pt_clust_5="54.92184" pt_clust_6="170.17242"></scales>
<clustering>
<clus scale="   54.775">  3  4 -1 -1</clus>
<clus scale="   54.922">  1  5  2 -1</clus>
<clus scale="  170.172">  2  6  1 -1</clus>
<clus scale="   54.922">  1  3  2 -1</clus>
</clustering>
</event>
<event>
 6    0  0.4945982E+002  0.1094418E+03  0.7546771E-02  0.1261607E+00
         -1   -1    0    0    0  501 -0.00000000000E+00  0.00000000000E+00  0.89742677336E+02  0.89742677336E+02  0.00000000000E+00 0.  1.
         21   -1    0    0  504  502  0.00000000000E+00 -0.00000000000E+00 -0.27792161537E+03  0.27792161537E+03  0.00000000000E+00 0.  1.
         21    1    1    2  503  505 -0.49065128222E+02  0.31739167616E+02 -0.12512513221E+03  0.13809800968E+03  0.00000000000E+00 0.  1.
         21    1    1    2  504  501  0.50922249867E+02  0.14875271550E+02 -0.20583986211E+02  0.56903863872E+02  0.00000000000E+00 0. -1.
         21    1    1    2  505  502 -0.40059367567E+02  0.35510246770E+02 -0.59996347225E+02  0.80407040960E+02  0.00000000000E+00 0. -1.
         -1    1    1    2    0  503  0.38202245922E+02 -0.82124685937E+02  0.17526527616E+02  0.92255378185E+02  0.00000000000E+00 0.  1.
<scales pt_clust_3="30.40037" pt_clust_4="53.05044" pt_clust_5="30.40037" pt_clust_6="104.73138"></scales>
<clustering>
<clus scale="   30.400">  3  5 -1 -1</clus>
<clus scale="   53.050">  1  4  2 -1</clus>
<clus scale="  104.731">  1  6  2 -1</clus>
<clus scale="  109.442">  2  3  1 -1</clus>
</clustering>
</event>
<event>
 6    0  0.4945982E+002  0.7704945E+02  0.7546771E-02  0.1337639E+00
          2   -1    0    0  505    0 -0.00000000000E+00  0.00000000000E+00  0.21631959773E+04  0.21631959773E+04  0.00000000000E+00 0. -1.
         21   -1    0    0  504  502  0.00000000000E+00 -0.00000000000E+00 -0.10859151330E+03  0.10859151330E+03  0.00000000000E+00 0. -1.
         21    1    1    2  503  502 -0.93397503093E+02 -0.39723662398E+02 -0.13651505687E+02  0.10240813711E+03  0.00000000000E+00 0. -1.
         21    1    1    2  504  501 -0.37449858400E+01  0.46932611022E+02 -0.65485663017E+01  0.47535025159E+02  0.00000000000E+00 0. -1.
         21    1    1    2  505  503  0.52244719847E+02  0.25148672387E+02  0.13160038485E+02  0.59457153376E+02  0.00000000000E+00 0. -1.
          2    1    1    2  501    0  0.44897769086E+02 -0.32357621012E+02  0.20616444975E+04  0.20623871749E+04  0.00000000000E+00 0. -1.
<scales pt_clust_3="14000.00000" pt_clust_4="47.08179" pt_clust_5="77.04945" pt_clust_6="55.20426"></scales>
<clustering>
<clus scale="   47.082">  2  4  1 -1</clus>
<clus scale="   55.204">  1  6  2 -1</clus>
<clus scale="   77.049">  1  5  2 -1</clus>
<clus scale="   47.082">  2  3  1 -1</clus>
</clustering>
</event>
<event>
 6    0  0.4945982E+002  0.1221798E+03  0.7546771E-02  0.1239544E+00
         21   -1    0    0  504  502  0.00000000000E+00  0.00000000000E+00  0.21771875932E+03  0.21771875932E+03  0.00000000000E+00 0.  1.
          2   -1    0    0  505    0 -0.00000000000E+00 -0.00000000000E+00 -0.11443682328E+04  0.11443682328E+04  0.00000000000E+00 0. -1.
         21    1    1    2  503  501 -0.64922139005E+02  0.10518132190E+03  0.13711682931E+03  0.18460503647E+03  0.00000000000E+00 0.  1.
         21    1    1    2  504  503 -0.54357703811E+02  0.18840040081E+01  0.29148700766E+01  0.54468393609E+02  0.00000000000E+00 0.  1.
         21    1    1    2  505  502  0.32571980446E+02 -0.20927334045E+02  0.95408602470E+01  0.39873741167E+02  0.00000000000E+00 0.  1.
          2    1    1    2  501    0  0.86707862370E+02 -0.86137991867E+02 -0.10762220331E+04  0.10831398209E+04  0.00000000000E+00 0. -1.
<scales pt_clust_3="14000.00000" pt_clust_4="49.53100" pt_clust_5="38.71546" pt_clust_6="122.17983"></scales>
<clustering>
<clus scale="   38.715">  1  5  2 -1</clus>
<clus scale="   49.531">  1  4  2 -1</clus>
<clus scale="  122.180">  2  6  1 -1</clus>
<clus scale="   38.715">  1  3  2 -1</clus>
</clustering>
</event>
<event>
 6    0  0.4945982E+002  0.1022358E+03  0.7546771E-02  0.1275663E+00
         21   -1    0    0  504  502  0.00000000000E+00  0.00000000000E+00  0.29040304622E+03  0.29040304622E+03  0.00000000000E+00 0.  1.
          3   -1    0    0  503    0 -0.00000000000E+00 -0.00000000000E+00 -0.11554153461E+04  0.11554153461E+04  0.00000000000E+00 0. -1.
         21    1    1    2  503  502 -0.55221223564E+02 -0.44890589267E+02 -0.69490860868E+01  0.71504114106E+02  0.00000000000E+00 0. -1.
         21    1    1    2  504  505  0.37346929759E+02 -0.26971727351E+02  0.72371258499E+02  0.85789663103E+02  0.00000000000E+00 0.  1.
         21    1    1    2  505  501  0.35908843615E+02 -0.19934570471E+02  0.17468714651E+03  0.17945035889E+03  0.00000000000E+00 0.  1.
          3    1    1    2  501    0 -0.18034549810E+02  0.91796887089E+02 -0.11051216188E+04  0.11090742562E+04  0.00000000000E+00 0. -1.
<scales pt_clust_3="71.16564" pt_clust_4="39.47430" pt_clust_5="39.47430" pt_clust_6="93.29715"></scales>
<clustering>
<clus scale="   39.474">  4  5 -1 -1</clus>
<clus scale="   71.166">  1  3  2 -1</clus>
<clus scale="   93.297">  2  6  1 -1</clus>
<clus scale="   71.166">  1  3  2 -1</clus>
</clustering>
</event>
<event>
 6    0  0.4945982E+002  0.1739546E+03  0.7546771E-02  0.1173785E+00
          2   -1    0    0  504    0 -0.00000000000E+00  0.00000000000E+00  0.69289384673E+02  0.69289384673E+02  0.00000000000E+00 0. -1.
         21   -1    0    0  503  502  0.00000000000E+00 -0.00000000000E+00 -0.10481006747E+04  0.10481006747E+04  0.00000000000E+00 0. -1.
         21    1    1    2  503  501  0.30325235803E+02  0.49959390097E+01 -0.93001886133E+02  0.97948609777E+02  0.00000000000E+00 0. -1.
         21    1    1    2  504  505 -0.43195819916E+02  0.44185274362E+02 -0.29973366605E+03  0.30603674271E+03  0.00000000000E+00 0. -1.
         21    1    1    2  505  502 -0.13012483723E+03  0.25739222638E+02 -0.52386753987E+03  0.54040001867E+03  0.00000000000E+00 0. -1.
          2    1    1    2  501    0  0.14299542134E+03 -0.74920436009E+02 -0.62208198014E+02  0.17300468825E+03  0.00000000000E+00 0. -1.
<scales pt_clust_3="30.73401" pt_clust_4="39.48674" pt_clust_5="39.48674" pt_clust_6="164.47928"></scales>
<clustering>
<clus scale="   30.734">  2  3  1 -1</clus>
<clus scale="   39.487">  4  5 -1 -1</clus>
<clus scale="  164.479">  1  6  2 -1</clus>
<clus scale="   30.734">  2  3  1 -1</clus>
</clustering>
</event>
<event>
 6    0  0.4945982E+002  0.3568303E+03  0.7546771E-02  0.1059846E+00
          2   -1    0    0  504    0 -0.00000000000E+00  0.00000000000E+00  0.26967878926E+04  0.26967878926E+04  0.00000000000E+00 0. -1.
         21   -1    0    0  501  502  0.00000000000E+00 -0.00000000000E+00 -0.81543906882E+03  0.81543906882E+03  0.00000000000E+00 0.  1.
         21    1    1    2  503  502 -0.91571775934E+02 -0.75584558675E+02 -0.67033146639E+03  0.68076625246E+03  0.00000000000E+00 0.  1.
         21    1    1    2  504  505  0.13772757472E+03  0.80594165542E+02  0.84745874573E+03  0.86235180180E+03  0.00000000000E+00 0.  1.
         21    1    1    2  505  503  0.25347201561E+03 -0.24651086569E+03  0.17942040237E+03  0.39649382137E+03  0.00000000000E+00 0.  1.
          2    1    1    2  501    0 -0.29962781440E+03  0.24150125882E+03  0.15248011420E+04  0.15726150858E+04  0.00000000000E+00 0. -1.
<scales pt_clust_3="118.73675" pt_clust_4="153.33955" pt_clust_5="356.83034" pt_clust_6="14000.00000"></scales>
<clustering>
<clus scale="  118.737">  2  3  1 -1</clus>
<clus scale="  153.340">  1  4  2 -1</clus>
<clus scale="  356.830">  2  5  1 -1</clus>
<clus scale="  118.737">  2  3  1 -1</clus>
</clustering>
</event>
<event>
 6    0  0.4945982E+002  0.8956708E+02  0.7546771E-02  0.1303903E+00
         21   -1    0    0  505  502  0.00000000000E+00  0.00000000000E+00  0.58331935151E+03  0.58331935151E+03  0.00000000000E+00 0. -1.
         -2   -1    0    0    0  501 -0.00000000000E+00 -0.00000000000E+00 -0.66878157918E+02  0.66878157918E+02  0.00000000000E+00 0. -1.
         21    1    1    2  503  502 -0.20522835734E+02 -0.23188497039E+02  0.43667958753E+02  0.53533016011E+02  0.00000000000E+00 0. -1.
         21    1    1    2  504  501  0.31312882020E+02 -0.40359993153E+01  0.24933814484E+02  0.40230348937E+02  0.00000000000E+00 0. -1.
         21    1    1    2  505  504  0.25209650823E+02  0.10950059281E+03  0.45275737098E+03  0.46649238289E+03  0.00000000000E+00 0. -1.
         -2    1    1    2    0  503 -0.35999697109E+02 -0.82276096455E+02 -0.49179506234E+01  0.89941761591E+02  0.00000000000E+00 0. -1.
<scales pt_clust_3="30.96600" pt_clust_4="30.55220" pt_clust_5="89.56708" pt_clust_6="14000.00000"></scales>
<clustering>
<clus scale="   30.966">  1  3  2 -1</clus>
<clus scale="   30.552">  2  4  1 -1</clus>
<clus scale="   89.567">  1  5  2 -1</clus>
<clus scale="   30.966">  1  3  2 -1</clus>
</clustering>
</event>
<event>
 6    0  0.4945982E+002  0.2566729E+03  0.7546771E-02  0.1109159E+00
          2   -1    0    0  505    0 -0.00000000000E+00  0.00000000000E+00  0.22526391422E+04  0.22526391422E+04  0.00000000000E+00 0. -1.
         21   -1    0    0  504  502  0.00000000000E+00 -0.00000000000E+00 -0.14798412514E+03  0.14798412514E+03  0.00000000000E+00 0. -1.
         21    1    1    2  503  502 -0.30749368684E+03  0.70956908144E+01  0.20749657664E+03  0.37102229797E+03  0.00000000000E+00 0. -1.
         21    1    1    2  504  501  0.68758700168E+02  0.55223502425E+02 -0.11621451168E+02  0.88951965668E+02  0.00000000000E+00 0. -1.
         21    1    1    2  505  503 -0.26345723928E+02 -0.75315239239E+02  0.31651579843E+03  0.32641803425E+03  0.00000000000E+00 0.  1.
          2    1    1    2  501    0  0.26508071060E+03  0.12996045999E+02  0.15922640932E+04  0.16142309695E+04  0.00000000000E+00 0. -1.
<scales pt_clust_3="14000.00000" pt_clust_4="86.83813" pt_clust_5="79.79024" pt_clust_6="256.67286"></scales>
<clustering>
<clus scale="   79.790">  1  5  2 -1</clus>
<clus scale="   86.838">  2  4  1 -1</clus>
<clus scale="  256.673">  1  6  2 -1</clus>
<clus scale="   86.838">  2  3  1 -1</clus>
</clustering>
</event>
<event>
 6    0  0.4945982E+002  0.2774527E+03  0.7546771E-02  0.1097088E+00
          2   -1    0    0  503    0 -0.00000000000E+00  0.00000000000E+00  0.25452032340E+04  0.25452032340E+04  0.00000000000E+00 0. -1.
         21   -1    0    0  501  502  0.00000000000E+00 -0.00000000000E+00 -0.17655548720E+03  0.17655548720E+03  0.00000000000E+00 0. -1.
         21    1    1    2  503  505 -0.30209773657E+02 -0.11107434333E+03  0.26065209386E+03  0.28493798308E+03  0.00000000000E+00 0.  1.
         21    1    1    2  504  502 -0.22500812592E+03  0.83540622167E+02 -0.27682981036E+02  0.24160720130E+03  0.00000000000E+00 0. -1.
         21    1    1    2  505  504 -0.86135536961E+01  0.37651447276E+02 -0.44323694718E+01  0.38877637382E+02  0.00000000000E+00 0. -1.
          2    1    1    2  501    0  0.26383145327E+03 -0.10117726109E+02  0.21401110035E+04  0.21563358995E+04  0.00000000000E+00 0. -1.
<scales pt_clust_3="115.10925" pt_clust_4="36.70871" pt_clust_5="36.70871" pt_clust_6="261.92799"></scales>
<clustering>
<clus scale="   36.709">  4  5 -1 -1</clus>
<clus scale="  115.109">  1  3  2 -1</clus>
<clus scale="  261.928">  1  6  2 -1</clus>
<clus scale="  277.453">  2  3  1 -1</clus>
</clustering>
</event>
<event>
 6    0  0.4945982E+002  0.9632412E+02  0.7546771E-02  0.1288221E+00
         21   -1    0    0  505  502  0.00000000000E+00  0.00000000000E+00  0.89282157077E+02  0.89282157077E+02  0.00000000000E+00 0.  1.
          2   -1    0    0  504    0 -0.00000000000E+00 -0.00000000000E+00 -0.21503656760E+04  0.21503656760E+04  0.00000000000E+00 0.  1.
         21    1    1    2  503  502  0.26810094952E+02  0.32740228536E+02  0.65897356113E+02  0.78314528017E+02  0.00000000000E+00 0.  1.
         21    1    1    2  504  503 -0.51819797636E+02 -0.78011854894E+02 -0.14425024390E+04  0.14455394936E+04  0.00000000000E+00 0.  1.
         21    1    1    2  505  501  0.91298453881E+02 -0.26720992144E+02 -0.19923621430E+03  0.22078153951E+03  0.00000000000E+00 0.  1.
          2    1    1    2  501    0 -0.66288751197E+02  0.71992618502E+02 -0.48524222165E+03  0.49501227190E+03  0.00000000000E+00 0.  1.
<scales pt_clust_3="42.31671" pt_clust_4="89.93260" pt_clust_5="14000.00000" pt_clust_6="96.32412"></scales>
<clustering>
<clus scale="   42.317">  1  3  2 -1</clus>
<clus scale="   89.933">  2  4  1 -1</clus>
<clus scale="   96.324">  2  6  1 -1</clus>
<clus scale="   42.317">  1  3  2 -1</clus>
</clustering>
</event>
<event>
 6    0  0.4945982E+002  0.1230855E+03  0.7546771E-02  0.1238092E+00
          2   -1    0    0  504    0 -0.00000000000E+00  0.00000000000E+00  0.40920481752E+03  0.40920481752E+03  0.00000000000E+00 0.  1.
         21   -1    0    0  503  502  0.00000000000E+00 -0.00000000000E+00 -0.12006298085E+04  0.12006298085E+04  0.00000000000E+00 0. -1.
         21    1    1    2  503  501  0.19820404579E+02 -0.11131008418E+03 -0.11395652971E+04  0.11451601851E+04  0.00000000000E+00 0. -1.
         21    1    1    2  504  505 -0.74023972208E+02  0.28945187760E+02  0.32789317328E+02  0.85979716717E+02  0.00000000000E+00 0.  1.
         21    1    1    2  505  502 -0.25402160354E+02  0.45555362260E+02  0.82061976340E+00  0.52165450233E+02  0.00000000000E+00 0.  1.
          2    1    1    2  501    0  0.79605727983E+02  0.36809534163E+02  0.31453036900E+03  0.32652927396E+03  0.00000000000E+00 0.  1.
<scales pt_clust_3="112.38984" pt_clust_4="40.65441" pt_clust_5="40.65441" pt_clust_6="87.70413"></scales>
<clustering>
<clus scale="   40.654">  4  5 -1 -1</clus>
<clus scale="   87.704">  1  6  2 -1</clus>
<clus scale="  112.390">  2  3  1 -1</clus>
<clus scale="  112.390">  2  3  1 -1</clus>
</clustering>
</event>
<event>
 6    0  0.4945982E+002  0.1443350E+03  0.7546771E-02  0.1207612E+00
         21   -1    0    0  503  502  0.00000000000E+00  0.00000000000E+00  0.23785268171E+03  0.23785268171E+03  0.00000000000E+00 0.  1.
          2   -1    0    0  504    0 -0.00000000000E+00 -0.00000000000E+00 -0.23902126086E+04  0.23902126086E+04  0.00000000000E+00 0.  1.
         21    1    1    2  503  501 -0.30916844400E+02  0.20007427346E+03 -0.53698788715E+02  0.20944957885E+03  0.00000000000E+00 0. -1.
         21    1    1    2  504  505 -0.36365070390E+02 -0.15371304999E+03 -0.20690277764E+03  0.26030535814E+03  0.00000000000E+00 0.  1.
         21    1    1    2  505  502 -0.67441154308E+02 -0.10914457415E+03  0.98972623109E+02  0.16203835190E+03  0.00000000000E+00 0.  1.
          2    1    1    2  501    0  0.13472306910E+03  0.62783350671E+02 -0.19907309836E+04  0.19962720014E+04  0.00000000000E+00 0.  1.
<scales pt_clust_3="144.88057" pt_clust_4="144.33500" pt_clust_5="128.29983" pt_clust_6="14000.00000"></scales>
<clustering>
<clus scale="  128.300">  1  5  2 -1</clus>
<clus scale="  144.881">  1  3  2 -1</clus>
<clus scale="  144.335">  1  4  2 -1</clus>
<clus scale="  128.300">  1  3  2 -1</clus>
</clustering>
</event>
<event>
 6    0  0.4945982E+002  0.9422169E+02  0.7546771E-02  0.1292939E+00
          1   -1    0    0  503    0 -0.00000000000E+00  0.00000000000E+00  0.20565730839E+04  0.20565730839E+04  0.00000000000E+00 0. -1.
         21   -1    0    0  504  502  0.00000000000E+00 -0.00000000000E+00 -0.19826083921E+03  0.19826083921E+03  0.00000000000E+00 0. -1.
         21    1    1    2  503  502 -0.35988347198E+02  0.48567485044E+02 -0.18725406058E+03  0.19676901418E+03  0.00000000000E+00 0. -1.
         21    1    1    2  504  505  0.31740068291E+02 -0.66066262818E+02  0.40881592686E+03  0.41533437742E+03  0.00000000000E+00 0.  1.
         21    1    1    2  505  501 -0.57879008620E+01 -0.57216807141E+02  0.46231511281E+03  0.46587823125E+03  0.00000000000E+00 0.  1.
          1    1    1    2  501    0  0.10036179769E+02  0.74715584915E+02  0.11744352657E+04  0.11768523003E+04  0.00000000000E+00 0. -1.
<scales pt_clust_3="60.44801" pt_clust_4="37.51958" pt_clust_5="37.51958" pt_clust_6="84.16403"></scales>
<clustering>
<clus scale="   37.520">  4  5 -1 -1</clus>
<clus scale="   60.448">  2  3  1 -1</clus>
<clus scale="   84.164">  1  6  2 -1</clus>
<clus scale="   60.448">  2  3  1 -1</clus>
</clustering>
</event>
<event>
 6    0  0.4945982E+002  0.3115284E+03  0.7546771E-02  0.1079616E+00
          1   -1    0    0  505    0 -0.00000000000E+00  0.00000000000E+00  0.27183789140E+04  0.27183789140E+04  0.00000000000E+00 0. -1.
         21   -1    0    0  503  502  0.00000000000E+00 -0.00000000000E+00 -0.10534268437E+04  0.10534268437E+04  0.00000000000E+00 0. -1.
         21    1    1    2  503  504  0.52922346007E+01  0.64719168640E+02  0.29107265409E+03  0.29822788015E+03  0.00000000000E+00 0. -1.
         21    1    1    2  504  501 -0.14372730814E+02  0.28375094829E+03  0.79130820058E+03  0.84076741395E+03  0.00000000000E+00 0. -1.
         21    1    1    2  505  502 -0.51988796034E+02 -0.68465222467E+02 -0.10105082725E+04  0.10141584149E+04  0.00000000000E+00 0. -1.
          1    1    1    2  501    0  0.61069292247E+02 -0.28000489446E+03  0.15930794882E+04  0.16186520488E+04  0.00000000000E+00 0. -1.
<scales pt_clust_3="31.15946" pt_clust_4="31.15946" pt_clust_5="85.96698" pt_clust_6="304.63393"></scales>
<clustering>
<clus scale="   31.159">  3  4 -1 -1</clus>
<clus scale="   85.967">  2  5  1 -1</clus>
<clus scale="  304.634">  1  6  2 -1</clus>
<clus scale="   85.967">  2  3  1 -1</clus>
</clustering>
</event>
<event>
 6    0  0.4945982E+002  0.9376406E+02  0.7546771E-02  0.1293984E+00
         21   -1    0    0  505  502  0.00000000000E+00  0.00000000000E+00  0.38171376416E+02  0.38171376416E+02  0.00000000000E+00 0.  1.
          2   -1    0    0  503    0 -0.00000000000E+00 -0.00000000000E+00 -0.82685249182E+03  0.82685249182E+03  0.00000000000E+00 0.  1.
         21    1    1    2  503  504 -0.34536807299E+02 -0.53737516526E+02 -0.46431155853E+02  0.78970652616E+02  0.00000000000E+00 0.  1.
         21    1    1    2  504  502 -0.22465728435E+02  0.53229374185E+02 -0.71796155970E+02  0.92156189387E+02  0.00000000000E+00 0.  1.
         21    1    1    2  505  501 -0.53256645761E+02 -0.98230370972E+01 -0.11001382455E+03  0.12262056910E+03  0.00000000000E+00 0.  1.
          2    1    1    2  501    0  0.11025918150E+03  0.10331179438E+02 -0.56043997904E+03  0.57127645713E+03  0.00000000000E+00 0.  1.
<scales pt_clust_3="93.76406" pt_clust_4="63.77840" pt_clust_5="54.15498" pt_clust_6="14000.00000"></scales>
<clustering>
<clus scale="   54.155">  1  5  2 -1</clus>
<clus scale="   63.778">  1  4  2 -1</clus>
<clus scale="   93.764">  1  3  2 -1</clus>
<clus scale="   54.155">  1  3  2 -1</clus>
</clustering>
</event>
<event>
 6    0  0.4945982E+002  0.2454036E+03  0.7546771E-02  0.1116245E+00
         21   -1    0    0  504  502  0.00000000000E+00  0.00000000000E+00  0.48938876705E+02  0.48938876705E+02  0.00000000000E+00 0.  1.
          2   -1    0    0  502    0 -0.00000000000E+00 -0.00000000000E+00 -0.20270668859E+04  0.20270668859E+04  0.00000000000E+00 0.  1.
         21    1    1    2  503  505  0.80751286409E+02 -0.17748783095E+02 -0.15621742945E+03  0.17674748887E+03  0.00000000000E+00 0. -1.
         21    1    1    2  504  503  0.12369506235E+03  0.98057747436E+02 -0.17829667563E+03  0.23812915576E+03  0.00000000000E+00 0.  1.
         21    1    1    2  505  501 -0.76100681846E+02 -0.40799766363E+02 -0.34709942294E+03  0.35767854858E+03  0.00000000000E+00 0.  1.
          2    1    1    2  501    0 -0.12834566692E+03 -0.39509197977E+02 -0.12965144812E+04  0.13034505694E+04  0.00000000000E+00 0.  1.
<scales pt_clust_3="79.19872" pt_clust_4="79.19872" pt_clust_5="78.71197" pt_clust_6="240.58944"></scales>
<clustering>
<clus scale="   78.712">  5  6 -1 -1</clus>
<clus scale="   79.199">  3  4 -1 -1</clus>
<clus scale="  240.589">  2  5  1 -1</clus>
<clus scale="  245.404">  1  3  2 -1</clus>
</clustering>
</event>
<event>
 6    0  0.4945982E+002  0.3431935E+03  0.7546771E-02  0.1065444E+00
         21   -1    0    0  505  502  0.00000000000E+00  0.00000000000E+00  0.69570320431E+03  0.69570320431E+03  0.00000000000E+00 0. -1.
          3   -1    0    0  504    0 -0.00000000000E+00 -0.00000000000E+00 -0.12188467982E+04  0.12188467982E+04  0.00000000000E+00 0. -1.
         21    1    1    2  503  502  0.60800669165E+02 -0.22158387465E+03  0.45508312671E+03  0.50980073273E+03  0.00000000000E+00 0. -1.
         21    1    1    2  504  503 -0.36108313003E+02 -0.10500011631E+03  0.11406616933E+03  0.15918519302E+03  0.00000000000E+00 0. -1.
         21    1    1    2  505  501  0.12258050872E+00  0.27427364064E+03 -0.17262665922E+03  0.32407716435E+03  0.00000000000E+00 0. -1.
          3    1    1    2  501    0 -0.24814936672E+02  0.52310350311E+02 -0.91966623068E+03  0.92148691238E+03  0.00000000000E+00 0. -1.
<scales pt_clust_3="88.64174" pt_clust_4="88.64174" pt_clust_5="318.49234" pt_clust_6="57.89779"></scales>
<clustering>
<clus scale="   57.898">  2  6  1 -1</clus>
<clus scale="   88.642">  3  4 -1 -1</clus>
<clus scale="  318.492">  2  5  1 -1</clus>
<clus scale="  343.194">  1  3  2 -1</clus>
</clustering>
</event>
<event>
 6    0  0.4945982E+002  0.6735802E+02  0.7546771E-02  0.1369315E+00
         21   -1    0    0  505  502  0.00000000000E+00  0.00000000000E+00  0.33784777350E+03  0.33784777350E+03  0.00000000000E+00 0. -1.
          2   -1    0    0  504    0 -0.00000000000E+00 -0.00000000000E+00 -0.11507556491E+04  0.11507556491E+04  0.00000000000E+00 0. -1.
         21    1    1    2  503  502  0.28758617147E+01  0.66518726386E+02  0.30851511718E+03  0.31561778954E+03  0.00000000000E+00 0. -1.
         21    1    1    2  504  503  0.43011407733E+02 -0.11363001678E+03 -0.18569819997E+03  0.22191345922E+03  0.00000000000E+00 0. -1.
         21    1    1    2  505  501 -0.14171851345E+02  0.42763991120E+02 -0.61365314423E+02  0.76126881726E+02  0.00000000000E+00 0. -1.
          2    1    1    2  501    0 -0.31715418103E+02  0.43472992751E+01 -0.87435947837E+03  0.87494529210E+03  0.00000000000E+00 0. -1.
<scales pt_clust_3="67.35802" pt_clust_4="14000.00000" pt_clust_5="49.08696" pt_clust_6="32.01198"></scales>
<clustering>
<clus scale="   32.012">  2  6  1 -1</clus>
<clus scale="   49.087">  2  5  1 -1</clus>
<clus scale="   67.358">  1  3  2 -1</clus>
<clus scale="   67.358">  1  3  2 -1</clus>
</clustering>
</event>
<event>
 6    0  0.4945982E+002  0.6975841E+02  0.7546771E-02  0.1360917E+00
         21   -1    0    0  503  502  0.00000000000E+00  0.00000000000E+00  0.13858363011E+04  0.13858363011E+04  0.00000000000E+00 0. -1.
          1   -1    0    0  505    0 -0.00000000000E+00 -0.00000000000E+00 -0.30569248538E+02  0.30569248538E+02  0.00000000000E+00 0. -1.
         21    1    1    2  503  501 -0.38949232750E+02  0.43093284729E+01  0.17750865757E+03  0.18178266297E+03  0.00000000000E+00 0. -1.
         21    1    1    2  504  502 -0.40223535926E+02  0.26460525048E+02  0.72921211180E+03  0.73079983322E+03  0.00000000000E+00 0. -1.
         21    1    1    2  505  504  0.37048624015E+02 -0.86119773788E+02  0.41706887816E+03  0.42747592343E+03  0.00000000000E+00 0.  1.
          1    1    1    2  501    0  0.42124144661E+02  0.55349920267E+02  0.31477405040E+02  0.76347130038E+02  0.00000000000E+00 0. -1.
<scales pt_clust_3="39.18690" pt_clust_4="69.75841" pt_clust_5="14000.00000" pt_clust_6="68.67154"></scales>
<clustering>
<clus scale="   39.187">  1  3  2 -1</clus>
<clus scale="   68.672">  2  6  1 -1</clus>
<clus scale="   69.758">  1  4  2 -1</clus>
<clus scale="   39.187">  1  3  2 -1</clus>
</clustering>
</event>
<event>
 6    0  0.4945982E+002  0.1369656E+03  0.7546771E-02  0.1217471E+00
          2   -1    0    0  503    0 -0.00000000000E+00  0.00000000000E+00  0.32334964198E+04  0.32334964198E+04  0.00000000000E+00 0. -1.
         21   -1    0    0  505  502  0.00000000000E+00 -0.00000000000E+00 -0.18036438006E+03  0.18036438006E+03  0.00000000000E+00 0.  1.
         21    1    1    2  503  502  0.29484280683E+02 -0.32029080425E+02  0.11260656219E+03  0.12072871509E+03  0.00000000000E+00 0. -1.
         21    1    1    2  504  501 -0.60943145769E+02 -0.17245065726E+02 -0.87012329196E+02  0.10762251038E+03  0.00000000000E+00 0.  1.
         21    1    1    2  505  504 -0.58152261536E+02 -0.41899299179E+02 -0.61126836719E+02  0.94200461574E+02  0.00000000000E+00 0.  1.
          2    1    1    2  501    0  0.89611126622E+02  0.91173445330E+02  0.30886646435E+04  0.30913091129E+04  0.00000000000E+00 0. -1.
<scales pt_clust_3="43.53372" pt_clust_4="31.25561" pt_clust_5="31.25561" pt_clust_6="132.86858"></scales>
<clustering>
<clus scale="   31.256">  4  5 -1 -1</clus>
<clus scale="   43.534">  1  3  2 -1</clus>
<clus scale="  132.869">  1  6  2 -1</clus>
<clus scale="  136.966">  2  3  1 -1</clus>
</clustering>
</event>
<event>
 6    0  0.4945982E+002  0.8698444E+02  0.7546771E-02  0.1310323E+00
          2   -1    0    0  504    0 -0.00000000000E+00  0.00000000000E+00  0.23573494619E+04  0.23573494619E+04  0.00000000000E+00 0.  1.
         21   -1    0    0  505  502  0.00000000000E+00 -0.00000000000E+00 -0.49843257922E+03  0.49843257922E+03  0.00000000000E+00 0. -1.
         21    1    1    2  503  501 -0.62478282207E+02 -0.59543793500E+02 -0.14641715122E+03  0.16996170528E+03  0.00000000000E+00 0. -1.
         21    1    1    2  504  502  0.17410820960E+01  0.10472510729E+03 -0.12373351036E+03  0.16211218662E+03  0.00000000000E+00 0. -1.
         21    1    1    2  505  503  0.25792283613E+02 -0.15481732094E+02 -0.19594633952E+03  0.19824200840E+03  0.00000000000E+00 0. -1.
          2    1    1    2  501    0  0.34944916498E+02 -0.29699581697E+02  0.23250138837E+04  0.23254661408E+04  0.00000000000E+00 0.  1.
<scales pt_clust_3="14000.00000" pt_clust_4="86.98444" pt_clust_5="30.08199" pt_clust_6="45.88306"></scales>
<clustering>
<clus scale="   30.082">  2  5  1 -1</clus>
<clus scale="   45.883">  1  6  2 -1</clus>
<clus scale="   86.984">  1  4  2 -1</clus>
<clus scale="   30.082">  2  3  1 -1</clus>
</clustering>
</event>
<event>
 6    0  0.4945982E+002  0.3088370E+03  0.7546771E-02  0.1080905E+00
         21   -1    0    0  504  502  0.00000000000E+00  0.00000000000E+00  0.49637686092E+03  0.49637686092E+03  0.00000000000E+00 0. -1.
          2   -1    0    0  505    0 -0.00000000000E+00 -0.00000000000E+00 -0.17302475606E+04  0.17302475606E+04  0.00000000000E+00 0.  1.
         21    1    1    2  503  501 -0.23471976658E+03  0.14443959385E+03  0.13955615209E+03  0.30892083885E+03  0.00000000000E+00 0. -1.
         21    1    1    2  504  503 -0.37441506887E+02  0.36664693911E+02  0.22785657229E+03  0.23380501225E+03  0.00000000000E+00 0. -1.
         21    1    1    2  505  502  0.27691001847E+03 -0.70950406685E+02 -0.49096658992E+03  0.56812085946E+03  0.00000000000E+00 0. -1.
          2    1    1    2  501    0 -0.47487450085E+01 -0.11015388107E+03 -0.11103168341E+04  0.11157777109E+04  0.00000000000E+00 0.  1.
<scales pt_clust_3="308.83699" pt_clust_4="52.40388" pt_clust_5="14000.00000" pt_clust_6="109.89686"></scales>
<clustering>
<clus scale="   52.404">  1  4  2 -1</clus>
<clus scale="  109.897">  2  6  1 -1</clus>
<clus scale="  308.837">  1  3  2 -1</clus>
<clus scale="   52.404">  1  3  2 -1</clus>
</clustering>
</event>
<event>
 6    0  0.4945982E+002  0.1228618E+03  0.7546771E-02  0.1238449E+00
         21   -1    0    0  503  502  0.00000000000E+00  0.00000000000E+00  0.13801004064E+04  0.13801004064E+04  0.00000000000E+00 0. -1.
          1   -1    0    0  504    0 -0.00000000000E+00 -0.00000000000E+00 -0.14993069351E+03  0.14993069351E+03  0.00000000000E+00 0.  1.
         21    1    1    2  503  505  0.10713532723E+02  0.88369343125E+02 -0.29415776449E+00  0.89016892310E+02  0.00000000000E+00 0.  1.
         21    1    1    2  504  502  0.40843009552E+02 -0.11889929682E+03  0.13095469339E+04  0.13155676974E+04  0.00000000000E+00 0. -1.
         21    1    1    2  505  501 -0.50012137389E+02 -0.56601966452E+01 -0.16195895254E+02  0.52873043561E+02  0.00000000000E+00 0. -1.
          1    1    1    2  501    0 -0.15444048863E+01  0.36190150345E+02 -0.62887168000E+02  0.72573466691E+02  0.00000000000E+00 0.  1.
<scales pt_clust_3="122.86182" pt_clust_4="14000.00000" pt_clust_5="51.55218" pt_clust_6="36.22309"></scales>
<clustering>
<clus scale="   36.223">  2  6  1 -1</clus>
<clus scale="   51.552">  2  5  1 -1</clus>
<clus scale="  122.862">  2  3  1 -1</clus>
<clus scale="  122.862">  1  3  2 -1</clus>
</clustering>
</event>
<event>
 6    0  0.4945982E+002  0.7187725E+02  0.7546771E-02  0.1353823E+00
          1   -1    0    0  505    0 -0.00000000000E+00  0.00000000000E+00  0.97642649570E+03  0.97642649570E+03  0.00000000000E+00 0.  1.
         21   -1    0    0  503  502  0.00000000000E+00 -0.00000000000E+00 -0.39329658562E+02  0.39329658562E+02  0.00000000000E+00 0.  1.
         21    1    1    2  503  501  0.26651687678E+02 -0.26082555818E+02  0.49135979179E+02  0.61684330457E+02  0.00000000000E+00 0. -1.
         21    1    1    2  504  502  0.43906044606E+02  0.95101433775E+01  0.27857149397E+00  0.44925061848E+02  0.00000000000E+00 0.  1.
         21    1    1    2  505  504 -0.97256391316E+02 -0.46166030121E+02  0.32542478244E+03  0.34277018105E+03  0.00000000000E+00 0. -1.
          1    1    1    2  501    0  0.26698659032E+02  0.62738442562E+02  0.56225750402E+03  0.56637658091E+03  0.00000000000E+00 0.  1.
<scales pt_clust_3="37.29091" pt_clust_4="62.43285" pt_clust_5="71.87725" pt_clust_6="14000.00000"></scales>
<clustering>
<clus scale="   37.291">  2  3  1 -1</clus>
<clus scale="   62.433">  2  4  1 -1</clus>
<clus scale="   71.877">  2  5  1 -1</clus>
<clus scale="   37.291">  2  3  1 -1</clus>
</clustering>
</event>
<event>
 6    0  0.4945982E+002  0.1109319E+03  0.7546771E-02  0.1258854E+00
         -1   -1    0    0    0  501 -0.00000000000E+00  0.00000000000E+00  0.73835768968E+03  0.73835768968E+03  0.00000000000E+00 0. -1.
         21   -1    0    0  504  502  0.00000000000E+00 -0.00000000000E+00 -0.52758082206E+02  0.52758082206E+02  0.00000000000E+00 0. -1.
         21    1    1    2  503  501 -0.14389472276E+03  0.32201003250E+02  0.19465192476E+03  0.24419657586E+03  0.00000000000E+00 0. -1.
         21    1    1    2  504  503  0.34741286347E+02  0.46266986081E+02  0.48609322192E+02  0.75567566999E+02  0.00000000000E+00 0. -1.
         21    1    1    2  505  502  0.31000530300E+02 -0.83149340720E+01  0.24120792039E+02  0.40149515764E+02  0.00000000000E+00 0. -1.
         -1    1    1    2    0  505  0.78152906113E+02 -0.70153055259E+02  0.41821756848E+03  0.43120211326E+03  0.00000000000E+00 0. -1.
<scales pt_clust_3="110.93193" pt_clust_4="62.11433" pt_clust_5="32.09628" pt_clust_6="14000.00000"></scales>
<clustering>
<clus scale="   32.096">  2  5  1 -1</clus>
<clus scale="   62.114">  2  4  1 -1</clus>
<clus scale="  110.932">  2  3  1 -1</clus>
<clus scale="   32.096">  2  3  1 -1</clus>
</clustering>
</event>
<event>
 6    0  0.4945982E+002  0.1115614E+03  0.7546771E-02  0.1257705E+00
         21   -1    0    0  505  502  0.00000000000E+00  0.00000000000E+00  0.56784980521E+02  0.56784980521E+02  0.00000000000E+00 0.  1.
          2   -1    0    0  503    0 -0.00000000000E+00 -0.00000000000E+00 -0.11404961153E+04  0.11404961153E+04  0.00000000000E+00 0. -1.
         21    1    1    2  503  502 -0.53854141368E+02  0.81162457242E+02 -0.14771387690E+03  0.17693784908E+03  0.00000000000E+00 0. -1.
         21    1    1    2  504  501 -0.20529456803E+02 -0.33340470161E+02 -0.17169491830E+03  0.17610278396E+03  0.00000000000E+00 0. -1.
         21    1    1    2  505  504  0.10124332651E+03 -0.69372621280E+02 -0.55660249601E+02  0.13476214280E+03  0.00000000000E+00 0.  1.
          2    1    1    2  501    0 -0.26859728340E+02  0.21550634199E+02 -0.70864208994E+03  0.70947831994E+03  0.00000000000E+00 0. -1.
<scales pt_clust_3="111.56140" pt_clust_4="39.88746" pt_clust_5="14000.00000" pt_clust_6="34.43653"></scales>
<clustering>
<clus scale="   34.437">  2  6  1 -1</clus>
<clus scale="   39.887">  2  4  1 -1</clus>
<clus scale="  111.561">  2  3  1 -1</clus>
<clus scale="  111.561">  1  3  2 -1</clus>
</clustering>
</event>
<event>
 6    0  0.4945982E+002  0.4904419E+03  0.7546771E-02  0.1016304E+00
         21   -1    0    0  503  502  0.00000000000E+00  0.00000000000E+00  0.40188576016E+03  0.40188576016E+03  0.00000000000E+00 0.  1.
          2   -1    0    0  502    0 -0.00000000000E+00 -0.00000000000E+00 -0.16585752576E+04  0.16585752576E+04  0.00000000000E+00 0.  1.
         21    1    1    2  503  504 -0.14656412155E+03  0.24586398496E+03  0.10463457116E+03  0.30475979772E+03  0.00000000000E+00 0.  1.
         21    1    1    2  504  505  0.44833304968E+00  0.22483212561E+03  0.25391590744E+02  0.22626183635E+03  0.00000000000E+00 0.  1.
         21    1    1    2  505  501  0.95103588620E+02 -0.38352862641E+03 -0.50143754587E+03  0.63841875933E+03  0.00000000000E+00 0.  1.
          2    1    1    2  501    0  0.51012199881E+02 -0.87167484159E+02 -0.88527811343E+03  0.89102062431E+03  0.00000000000E+00 0.  1.
<scales pt_clust_3="131.68004" pt_clust_4="131.68004" pt_clust_5="467.29086" pt_clust_6="100.99710"></scales>
<clustering>
<clus scale="  100.997">  2  6  1 -1</clus>
<clus scale="  131.680">  3  4 -1 -1</clus>
<clus scale="  467.291">  2  5  1 -1</clus>
<clus scale="  490.442">  1  3  2 -1</clus>
</clustering>
</event>
<event>
 6    0  0.4945982E+002  0.1092887E+03  0.7546771E-02  0.1261893E+00
         21   -1    0    0  505  502  0.00000000000E+00  0.00000000000E+00  0.88332836378E+02  0.88332836378E+02  0.00000000000E+00 0.  1.
          1   -1    0    0  504    0 -0.00000000000E+00 -0.00000000000E+00 -0.53147962513E+03  0.53147962513E+03  0.00000000000E+00 0.  1.
         21    1    1    2  503  501 -0.36206879998E+02 -0.76238795434E+02 -0.41154859439E+01  0.84499877591E+02  0.00000000000E+00 0.  1.
         21    1    1    2  504  502 -0.15352094219E+01  0.40719966803E+02  0.11416153836E+02  0.42317858320E+02  0.00000000000E+00 0.  1.
         21    1    1    2  505  503  0.36144153607E+01 -0.53630506555E+02 -0.29410530748E+02  0.61272135189E+02  0.00000000000E+00 0.  1.
          1    1    1    2  501    0  0.34127674059E+02  0.89149335186E+02 -0.42103692590E+03  0.43172259041E+03  0.00000000000E+00 0.  1.
<scales pt_clust_3="37.40768" pt_clust_4="40.74890" pt_clust_5="37.40768" pt_clust_6="98.72605"></scales>
<clustering>
<clus scale="   37.408">  3  5 -1 -1</clus>
<clus scale="   40.749">  1  4  2 -1</clus>
<clus scale="   98.726">  2  6  1 -1</clus>
<clus scale="   40.749">  1  3  2 -1</clus>
</clustering>
</event>
<event>
 6    0  0.4945982E+002  0.2312042E+03  0.7546771E-02  0.1125795E+00
         21   -1    0    0  504  502  0.00000000000E+00  0.00000000000E+00  0.52093042875E+03  0.52093042875E+03  0.00000000000E+00 0. -1.
          1   -1    0    0  503    0 -0.00000000000E+00 -0.00000000000E+00 -0.27901908022E+04  0.27901908022E+04  0.00000000000E+00 0. -1.
         21    1    1    2  503  505 -0.19077665115E+03 -0.48434489171E+02 -0.40820418879E+02  0.20101725538E+03  0.00000000000E+00 0. -1.
         21    1    1    2  504  501 -0.47208562169E+02 -0.21821770818E+02 -0.13255857125E+03  0.14239597198E+03  0.00000000000E+00 0. -1.
         21    1    1    2  505  502  0.77742584691E+01  0.30871527190E+02  0.42993721728E+03  0.43111425526E+03  0.00000000000E+00 0. -1.
          1    1    1    2  501    0  0.23021095485E+03  0.39384732799E+02 -0.25258186006E+04  0.25365937484E+04  0.00000000000E+00 0. -1.
<scales pt_clust_3="231.20424" pt_clust_4="50.93718" pt_clust_5="31.83536" pt_clust_6="14000.00000"></scales>
<clustering>
<clus scale="   31.835">  1  5  2 -1</clus>
<clus scale="   50.937">  1  4  2 -1</clus>
<clus scale="  231.204">  1  3  2 -1</clus>
<clus scale="   31.835">  1  3  2 -1</clus>
</clustering>
</event>
<event>
 6    0  0.4945982E+002  0.1052093E+03  0.7546771E-02  0.1269708E+00
         21   -1    0    0  505  502  0.00000000000E+00  0.00000000000E+00  0.27846762221E+03  0.27846762221E+03  0.00000000000E+00 0. -1.
          2   -1    0    0  504    0 -0.00000000000E+00 -0.00000000000E+00 -0.44562449763E+03  0.44562449763E+03  0.00000000000E+00 0. -1.
         21    1    1    2  503  502 -0.98118750698E+01  0.40432809338E+02  0.59293114053E+02  0.72434510680E+02  0.00000000000E+00 0.  1.
         21    1    1    2  504  503  0.62451644392E+02  0.61468113776E+02  0.17060174821E+03  0.19179023278E+03  0.00000000000E+00 0. -1.
         21    1    1    2  505  501 -0.34611158268E+02  0.30337662569E+01  0.12329741340E+02  0.36866767364E+02  0.00000000000E+00 0.  1.
          2    1    1    2  501    0 -0.18028611054E+02 -0.10493468937E+03 -0.40938147903E+03  0.42300060901E+03  0.00000000000E+00 0. -1.
<scales pt_clust_3="45.30116" pt_clust_4="105.20928" pt_clust_5="34.74386" pt_clust_6="14000.00000"></scales>
<clustering>
<clus scale="   34.744">  1  5  2 -1</clus>
<clus scale="   45.301">  1  3  2 -1</clus>
<clus scale="  105.209">  1  4  2 -1</clus>
<clus scale="   34.744">  1  3  2 -1</clus>
</clustering>
</event>
<event>
 6    0  0.4945982E+002  0.1536862E+03  0.7546771E-02  0.1196015E+00
          2   -1    0    0  505    0 -0.00000000000E+00  0.00000000000E+00  0.36172356628E+04  0.36172356628E+04  0.00000000000E+00 0. -1.
         21   -1    0    0  503  502  0.00000000000E+00 -0.00000000000E+00 -0.75107355807E+03  0.75107355807E+03  0.00000000000E+00 0. -1.
         21    1    1    2  503  504 -0.75290855379E+02  0.58392308632E+02 -0.38833447106E+03  0.39985251785E+03  0.00000000000E+00 0. -1.
         21    1    1    2  504  501 -0.60933571847E+02  0.69981688784E+01 -0.33327789128E+03  0.33887464845E+03  0.00000000000E+00 0. -1.
         21    1    1    2  505  502  0.48023417600E+02  0.51601119187E+02  0.44676524254E+02  0.83456072030E+02  0.00000000000E+00 0. -1.
          2    1    1    2  501    0  0.88201009627E+02 -0.11699159670E+03  0.35430979429E+04  0.35461259826E+04  0.00000000000E+00 0. -1.
<scales pt_clust_3="37.29217" pt_clust_4="37.29217" pt_clust_5="70.49060" pt_clust_6="146.48897"></scales>
<clustering>
<clus scale="   37.292">  3  4 -1 -1</clus>
<clus scale="   70.491">  2  5  1 -1</clus>
<clus scale="  146.489">  1  6  2 -1</clus>
<clus scale="   70.491">  2  3  1 -1</clus>
</clustering>
</event>
<event>
 6    0  0.4945982E+002  0.1632674E+03  0.7546771E-02  0.1185056E+00
         21   -1    0    0  504  502  0.00000000000E+00  0.00000000000E+00  0.51719287326E+03  0.51719287326E+03  0.00000000000E+00 0.  1.
          2   -1    0    0  503    0 -0.00000000000E+00 -0.00000000000E+00 -0.13687815249E+04  0.13687815249E+04  0.00000000000E+00 0.  1.
         21    1    1    2  503  505  0.25306071420E+02  0.20968625565E+02 -0.56568929415E+03  0.56664314875E+03  0.00000000000E+00 0.  1.
         21    1    1    2  504  501  0.73250421496E+02  0.99293271836E+01 -0.43787743609E+03  0.44407303996E+03  0.00000000000E+00 0.  1.
         21    1    1    2  505  502 -0.13424061718E+03 -0.78494771765E+02  0.49926040799E+03  0.52291770622E+03  0.00000000000E+00 0.  1.
          2    1    1    2  501    0  0.35684124267E+02  0.47596819017E+02 -0.34728232934E+03  0.35234050318E+03  0.00000000000E+00 0.  1.
<scales pt_clust_3="32.86458" pt_clust_4="46.34087" pt_clust_5="155.02762" pt_clust_6="46.34087"></scales>
<clustering>
<clus scale="   32.865">  2  3  1 -1</clus>
<clus scale="   46.341">  4  6 -1 -1</clus>
<clus scale="  155.028">  1  5  2 -1</clus>
<clus scale="  155.028">  1  3  2 -1</clus>
</clustering>
</event>
<event>
 6    0  0.4945982E+002  0.1283184E+03  0.7546771E-02  0.1229973E+00
          1   -1    0    0  504    0 -0.00000000000E+00  0.00000000000E+00  0.15569320724E+04  0.15569320724E+04  0.00000000000E+00 0.  1.
         21   -1    0    0  505  502  0.00000000000E+00 -0.00000000000E+00 -0.17742351933E+03  0.17742351933E+03  0.00000000000E+00 0. -1.
         21    1    1    2  503  501  0.66660164173E+02 -0.14222908836E+02  0.27367142349E+02  0.73449500364E+02  0.00000000000E+00 0. -1.
         21    1    1    2  504  502 -0.40972017859E+02  0.32252273953E+02 -0.89252032259E+02  0.10336750304E+03  0.00000000000E+00 0. -1.
         21    1    1    2  505  503  0.92726638921E+02 -0.31889451962E+02 -0.12423890112E+02  0.98840881003E+02  0.00000000000E+00 0. -1.
          1    1    1    2  501    0 -0.11841478523E+03  0.13860086846E+02  0.14538173330E+04  0.14586977073E+04  0.00000000000E+00 0.  1.
<scales pt_clust_3="36.62904" pt_clust_4="52.14322" pt_clust_5="36.62904" pt_clust_6="120.56298"></scales>
<clustering>
<clus scale="   36.629">  3  5 -1 -1</clus>
<clus scale="   52.143">  2  4  1 -1</clus>
<clus scale="  120.563">  1  6  2 -1</clus>
<clus scale="   52.143">  2  3  1 -1</clus>
</clustering>
</event>
<event>
 6    0  0.4945982E+002  0.1680550E+03  0.7546771E-02  0.1179891E+00
          1   -1    0    0  504    0 -0.00000000000E+00  0.00000000000E+00  0.10352857621E+03  0.10352857621E+03  0.00000000000E+00 0. -1.
         21   -1    0    0  503  502  0.00000000000E+00 -0.00000000000E+00 -0.13867761857E+04  0.13867761857E+04  0.00000000000E+00 0.  1.
         21    1    1    2  503  505  0.13277071028E+02  0.34705698601E+02 -0.49788433895E+03  0.49926904681E+03  0.00000000000E+00 0.  1.
         21    1    1    2  504  502  0.44404259500E+02 -0.65208267446E+02 -0.55750751918E+02  0.96602291611E+02  0.00000000000E+00 0. -1.
         21    1    1    2  505  501  0.63009024269E+02  0.10660788522E+03 -0.74101982254E+03  0.75129605066E+03  0.00000000000E+00 0.  1.
          1    1    1    2  501    0 -0.12069035480E+03 -0.76105316376E+02  0.11407303904E+02  0.14313737284E+03  0.00000000000E+00 0. -1.
<scales pt_clust_3="31.18234" pt_clust_4="78.89142" pt_clust_5="31.18234" pt_clust_6="158.12033"></scales>
<clustering>
<clus scale="   31.182">  3  5 -1 -1</clus>
<clus scale="   78.891">  1  4  2 -1</clus>
<clus scale="  158.120">  1  6  2 -1</clus>
<clus scale="  168.055">  2  3  1 -1</clus>
</clustering>
</event>
<event>
 6    0  0.4945982E+002  0.2110115E+03  0.7546771E-02  0.1140767E+00
         21   -1    0    0  501  502  0.00000000000E+00  0.00000000000E+00  0.53961204364E+03  0.53961204364E+03  0.00000000000E+00 0.  1.
         -3   -1    0    0    0  501 -0.00000000000E+00 -0.00000000000E+00 -0.20605288740E+03  0.20605288740E+03  0.00000000000E+00 0.  1.
         21    1    1    2  503  504 -0.60961035076E+02  0.12353918330E+03  0.14186515551E+02  0.13848983656E+03  0.00000000000E+00 0.  1.
         21    1    1    2  504  502  0.42345254131E+01 -0.18952647661E+03  0.37584344946E+03  0.42094716419E+03  0.00000000000E+00 0.  1.
         21    1    1    2  505  503  0.25759470783E+02  0.75697245386E+02  0.36395934536E+02  0.87853783896E+02  0.00000000000E+00 0.  1.
         -3    1    1    2    0  505  0.30967038880E+02 -0.97099520795E+01 -0.92866743303E+02  0.98374146391E+02  0.00000000000E+00 0.  1.
<scales pt_clust_3="70.35704" pt_clust_4="191.80022" pt_clust_5="70.35704" pt_clust_6="32.45367"></scales>
<clustering>
<clus scale="   32.454">  2  6  1 -1</clus>
<clus scale="   70.357">  3  5 -1 -1</clus>
<clus scale="  191.800">  1  4  2 -1</clus>
<clus scale="  191.800">  1  3  2 -1</clus>
</clustering>
</event>
<event>
 6    0  0.4945982E+002  0.1381654E+03  0.7546771E-02  0.1215819E+00
         21   -1    0    0  503  502  0.00000000000E+00  0.00000000000E+00  0.41269744227E+02  0.41269744227E+02  0.00000000000E+00 0. -1.
          2   -1    0    0  505    0 -0.00000000000E+00 -0.00000000000E+00 -0.27060893844E+04  0.27060893844E+04  0.00000000000E+00 0. -1.
         21    1    1    2  503  504  0.57731681967E+02 -0.14598085251E+02 -0.97999428522E+02  0.11467318425E+03  0.00000000000E+00 0. -1.
         21    1    1    2  504  501  0.11858680097E+03  0.52944020781E+02 -0.13347352532E+03  0.18622857102E+03  0.00000000000E+00 0. -1.
         21    1    1    2  505  502 -0.57809780877E+02 -0.33821484051E+02 -0.22080365417E+03  0.23073820066E+03  0.00000000000E+00 0. -1.
          2    1    1    2  501    0 -0.11850870206E+03 -0.45244514793E+01 -0.22125430322E+04  0.22157191727E+04  0.00000000000E+00 0. -1.
<scales pt_clust_3="44.93491" pt_clust_4="44.93491" pt_clust_5="66.97659" pt_clust_6="121.18644"></scales>
<clustering>
<clus scale="   44.935">  3  4 -1 -1</clus>
<clus scale="   66.977">  1  5  2 -1</clus>
<clus scale="  121.186">  2  6  1 -1</clus>
<clus scale="   66.977">  1  3  2 -1</clus>
</clustering>
</event>
<event>
 6    0  0.4945982E+002  0.8500120E+02  0.7546771E-02  0.1315429E+00
         -4   -1    0    0    0  501 -0.00000000000E+00  0.00000000000E+00  0.14363936002E+04  0.14363936002E+04  0.00000000000E+00 0.  1.
         21   -1    0    0  504  502  0.00000000000E+00 -0.00000000000E+00 -0.24171632806E+02  0.24171632806E+02  0.00000000000E+00 0.  1.
         21    1    1    2  503  501 -0.10784394727E+03 -0.32414465441E+02  0.29745699604E+03  0.31805923823E+03  0.00000000000E+00 0.  1.
         21    1    1    2  504  505 -0.80968920666E+01 -0.31348789731E+02  0.28307757809E+02  0.43007388097E+02  0.00000000000E+00 0.  1.
         21    1    1    2  505  503  0.58018639213E+02  0.41127917968E+02  0.22898983576E+03  0.23977909211E+03  0.00000000000E+00 0.  1.
         -4    1    1    2    0  502  0.57922200123E+02  0.22635337205E+02  0.85746737777E+03  0.85971951455E+03  0.00000000000E+00 0.  1.
<scales pt_clust_3="14000.00000" pt_clust_4="32.37756" pt_clust_5="85.00120" pt_clust_6="60.94462"></scales>
<clustering>
<clus scale="   32.378">  2  4  1 -1</clus>
<clus scale="   60.945">  1  6  2 -1</clus>
<clus scale="   85.001">  2  5  1 -1</clus>
<clus scale="   32.378">  2  3  1 -1</clus>
</clustering>
</event>
<event>
 6    0  0.4945982E+002  0.1062895E+03  0.7546771E-02  0.1267600E+00
         21   -1    0    0  505  502  0.00000000000E+00  0.00000000000E+00  0.80105429293E+03  0.80105429293E+03  0.00000000000E+00 0. -1.
          2   -1    0    0  502    0 -0.00000000000E+00 -0.00000000000E+00 -0.14622478725E+03  0.14622478725E+03  0.00000000000E+00 0. -1.
         21    1    1    2  503  504  0.72337952962E+02  0.10711387782E+02  0.25415077644E+02  0.77417307100E+02  0.00000000000E+00 0.  1.
         21    1    1    2  504  501  0.36387964205E+02 -0.31397248948E+02 -0.74412312931E+01  0.48633765058E+02  0.00000000000E+00 0.  1.
         21    1    1    2  505  503 -0.11040434082E+03 -0.17527162263E+02  0.72056979670E+03  0.72918937993E+03  0.00000000000E+00 0. -1.
          2    1    1    2  501    0  0.16784236558E+01  0.38213023429E+02 -0.83714137366E+02  0.92038628089E+02  0.00000000000E+00 0. -1.
<scales pt_clust_3="106.28948" pt_clust_4="39.41250" pt_clust_5="14000.00000" pt_clust_6="38.24987"></scales>
<clustering>
<clus scale="   38.250">  2  6  1 -1</clus>
<clus scale="   39.412">  2  4  1 -1</clus>
<clus scale="  106.289">  2  3  1 -1</clus>
<clus scale="  106.289">  1  3  2 -1</clus>
</clustering>
</event>
<event>
 6    0  0.4945982E+002  0.4173689E+03  0.7546771E-02  0.1037926E+00
         21   -1    0    0  503  502  0.00000000000E+00  0.00000000000E+00  0.52887455384E+03  0.52887455384E+03  0.00000000000E+00 0. -1.
          2   -1    0    0  504    0 -0.00000000000E+00 -0.00000000000E+00 -0.72120376817E+03  0.72120376817E+03  0.00000000000E+00 0. -1.
         21    1    1    2  503  505 -0.12488951214E+01 -0.33493432870E+03  0.23568123758E+03  0.40954634662E+03  0.00000000000E+00 0. -1.
         21    1    1    2  504  502  0.65776879759E+02  0.41882327908E+03 -0.11567487675E+03  0.43945445057E+03  0.00000000000E+00 0. -1.
         21    1    1    2  505  501  0.11212012863E+02 -0.69018595553E+02  0.90922945175E+01  0.70512024394E+02  0.00000000000E+00 0. -1.
          2    1    1    2  501    0 -0.75739997501E+02 -0.14870354828E+02 -0.32142786967E+03  0.33056550043E+03  0.00000000000E+00 0. -1.
<scales pt_clust_3="38.94390" pt_clust_4="408.57322" pt_clust_5="38.94390" pt_clust_6="77.18597"></scales>
<clustering>
<clus scale="   38.944">  3  5 -1 -1</clus>
<clus scale="   77.186">  2  6  1 -1</clus>
<clus scale="  408.573">  2  4  1 -1</clus>
<clus scale="  417.369">  1  3  2 -1</clus>
</clustering>
</event>
<event>
 6    0  0.4945982E+002  0.6632769E+02  0.7546771E-02  0.1373046E+00
          1   -1    0    0  503    0 -0.00000000000E+00  0.00000000000E+00  0.63061109550E+03  0.63061109550E+03  0.00000000000E+00 0. -1.
         21   -1    0    0  504  502  0.00000000000E+00 -0.00000000000E+00 -0.14572715909E+03  0.14572715909E+03  0.00000000000E+00 0.  1.
         21    1    1    2  503  505 -0.62055655448E+02  0.65203513549E+02  0.10895379272E+03  0.14132703740E+03  0.00000000000E+00 0.  1.
         21    1    1    2  504  501 -0.12076090309E+02 -0.51978937391E+02  0.67975260501E+01  0.53794500182E+02  0.00000000000E+00 0. -1.
         21    1    1    2  505  502  0.70965164358E+02  0.31104251740E+02 -0.90672573445E+02  0.11926879141E+03  0.00000000000E+00 0.  1.
          1    1    1    2  501    0  0.31665813983E+01 -0.44328827898E+02  0.45980519108E+03  0.46194792560E+03  0.00000000000E+00 0. -1.
<scales pt_clust_3="14000.00000" pt_clust_4="60.98736" pt_clust_5="66.32769" pt_clust_6="44.44178"></scales>
<clustering>
<clus scale="   44.442">  1  6  2 -1</clus>
<clus scale="   60.987">  2  4  1 -1</clus>
<clus scale="   66.328">  2  5  1 -1</clus>
<clus scale="   60.987">  2  3  1 -1</clus>
</clustering>
</event>
<event>
 6    0  0.4945982E+002  0.2037734E+03  0.7546771E-02  0.1146594E+00
         21   -1    0    0  501  502  0.00000000000E+00  0.00000000000E+00  0.23520145224E+04  0.23520145224E+04  0.00000000000E+00 0. -1.
          1   -1    0    0  503    0 -0.00000000000E+00 -0.00000000000E+00 -0.64350339249E+03  0.64350339249E+03  0.00000000000E+00 0.  1.
         21    1    1    2  503  505  0.22795348516E+02 -0.38205361386E+02 -0.24234190434E+03  0.24639171283E+03  0.00000000000E+00 0.  1.
         21    1    1    2  504  502 -0.32909211150E+02 -0.61356679074E+02  0.22326638411E+04  0.22337491994E+04  0.00000000000E+00 0. -1.
         21    1    1    2  505  504 -0.64484138758E+02 -0.15144914837E+03 -0.14776670979E+03  0.22120137706E+03  0.00000000000E+00 0. -1.
          1    1    1    2  501    0  0.74598001392E+02  0.25101118883E+03 -0.13404409710E+03  0.29417562560E+03  0.00000000000E+00 0.  1.
<scales pt_clust_3="44.48907" pt_clust_4="69.65627" pt_clust_5="14000.00000" pt_clust_6="203.77336"></scales>
<clustering>
<clus scale="   44.489">  2  3  1 -1</clus>
<clus scale="   69.656">  1  4  2 -1</clus>
<clus scale="  203.773">  1  6  2 -1</clus>
<clus scale="   69.656">  1  3  2 -1</clus>
</clustering>
</event>
<event>
 6    0  0.4945982E+002  0.1675395E+03  0.7546771E-02  0.1180438E+00
          2   -1    0    0  504    0 -0.00000000000E+00  0.00000000000E+00  0.14452227209E+04  0.14452227209E+04  0.00000000000E+00 0.  1.
         21   -1    0    0  501  502  0.00000000000E+00 -0.00000000000E+00 -0.68871773958E+03  0.68871773958E+03  0.00000000000E+00 0. -1.
         21    1    1    2  503  505  0.20478936598E+02 -0.48779075000E+02  0.65170465141E+02  0.83940303363E+02  0.00000000000E+00 0. -1.
         21    1    1    2  504  503  0.85578797488E+02 -0.54074154858E+02  0.14646481796E+03  0.17804406113E+03  0.00000000000E+00 0. -1.
         21    1    1    2  505  502 -0.68659600842E+02  0.14713521428E+03 -0.65289927668E+03  0.67278553608E+03  0.00000000000E+00 0. -1.
          2    1    1    2  501    0 -0.37398133244E+02 -0.44281984422E+02  0.11977689749E+04  0.11991705599E+04  0.00000000000E+00 0.  1.
<scales pt_clust_3="32.48509" pt_clust_4="32.48509" pt_clust_5="161.40079" pt_clust_6="57.96132"></scales>
<clustering>
<clus scale="   32.485">  3  4 -1 -1</clus>
<clus scale="   57.961">  1  6  2 -1</clus>
<clus scale="  161.401">  2  5  1 -1</clus>
<clus scale="  161.401">  2  3  1 -1</clus>
</clustering>
</event>
<event>
 6    0  0.7378357E+002  0.8120274E+02  0.7546771E-02  0.1325672E+00
          2   -1    0    0  503    0 -0.00000000000E+00  0.00000000000E+00  0.36029372222E+04  0.36029372222E+04  0.00000000000E+00 0. -1.
         21   -1    0    0  505  502  0.00000000000E+00 -0.00000000000E+00 -0.17940295981E+03  0.17940295981E+03  0.00000000000E+00 0. -1.
         21    1    1    2  503  502  0.11422472513E+03  0.55037908957E+02 -0.12956187289E+03  0.18128082679E+03  0.00000000000E+00 0. -1.
         21    1    1    2  504  501 -0.30569116868E+02 -0.46381757861E+02  0.10019388735E+03  0.11456244337E+03  0.00000000000E+00 0. -1.
         21    1    1    2  505  504 -0.94638876059E+01 -0.41655953278E+02  0.11637512096E+02  0.44274318740E+02  0.00000000000E+00 0. -1.
          2    1    1    2  501    0 -0.74191720659E+02  0.32999802182E+02  0.34412647358E+04  0.34422225931E+04  0.00000000000E+00 0. -1.
<scales pt_clust_3="81.20274" pt_clust_4="57.31487" pt_clust_5="42.71749" pt_clust_6="14000.00000"></scales>
<clustering>
<clus scale="   42.717">  2  5  1 -1</clus>
<clus scale="   57.315">  2  4  1 -1</clus>
<clus scale="   81.203">  2  3  1 -1</clus>
<clus scale="   42.717">  2  3  1 -1</clus>
</clustering>
</event>
<event>
 6    0  0.4945982E+002  0.1639791E+03  0.7546771E-02  0.1184276E+00
         21   -1    0    0  501  502  0.00000000000E+00  0.00000000000E+00  0.10249426276E+04  0.10249426276E+04  0.00000000000E+00 0. -1.
          2   -1    0    0  503    0 -0.00000000000E+00 -0.00000000000E+00 -0.13706141154E+04  0.13706141154E+04  0.00000000000E+00 0. -1.
         21    1    1    2  503  505 -0.80245999945E+02 -0.16209524568E+03  0.51974940687E+02  0.18819055140E+03  0.00000000000E+00 0. -1.
         21    1    1    2  504  502  0.81360651452E+01  0.12334575487E+03  0.70656779978E+03  0.71729939808E+03  0.00000000000E+00 0. -1.
         21    1    1    2  505  504  0.31487508229E+02  0.20596944788E+02  0.19070604510E+03  0.19438233702E+03  0.00000000000E+00 0. -1.
          2    1    1    2  501    0  0.40622426570E+02  0.18152546013E+02 -0.12949202734E+04  0.12956844565E+04  0.00000000000E+00 0. -1.
<scales pt_clust_3="152.03768" pt_clust_4="33.89168" pt_clust_5="33.89168" pt_clust_6="44.49378"></scales>
<clustering>
<clus scale="   33.892">  4  5 -1 -1</clus>
<clus scale="   44.494">  2  6  1 -1</clus>
<clus scale="  152.038">  2  3  1 -1</clus>
<clus scale="  163.979">  1  3  2 -1</clus>
</clustering>
</event>
<event>
 6    0  0.4945982E+002  0.7918480E+02  0.7546771E-02  0.1331381E+00
          1   -1    0    0  504    0 -0.00000000000E+00  0.00000000000E+00  0.10342413246E+04  0.10342413246E+04  0.00000000000E+00 0. -1.
         21   -1    0    0  503  502  0.00000000000E+00 -0.00000000000E+00 -0.78722239104E+02  0.78722239104E+02  0.00000000000E+00 0.  1.
         21    1    1    2  503  505  0.69227098794E+02 -0.53360667041E+02 -0.26310116796E+02  0.91279648555E+02  0.00000000000E+00 0.  1.
         21    1    1    2  504  502  0.11830835725E+02  0.48988680580E+02  0.18292275441E+03  0.18973822382E+03  0.00000000000E+00 0. -1.
         21    1    1    2  505  501 -0.16794301729E+02  0.66901985263E+02  0.72666850993E+02  0.10019179326E+03  0.00000000000E+00 0. -1.
          1    1    1    2  501    0 -0.64263632790E+02 -0.62529998801E+02  0.72623959690E+03  0.73175389808E+03  0.00000000000E+00 0. -1.
<scales pt_clust_3="14000.00000" pt_clust_4="50.39702" pt_clust_5="79.18480" pt_clust_6="57.81505"></scales>
<clustering>
<clus scale="   50.397">  1  4  2 -1</clus>
<clus scale="   57.815">  1  6  2 -1</clus>
<clus scale="   79.185">  1  5  2 -1</clus>
<clus scale="   79.185">  2  3  1 -1</clus>
</clustering>
</event>
<event>
 6    0  0.4945982E+002  0.1478919E+03  0.7546771E-02  0.1203088E+00
         21   -1    0    0  505  502  0.00000000000E+00  0.00000000000E+00  0.45893099972E+03  0.45893099972E+03  0.00000000000E+00 0.  1.
         -2   -1    0    0    0  501 -0.00000000000E+00 -0.00000000000E+00 -0.11947407904E+03  0.11947407904E+03  0.00000000000E+00 0.  1.
         21    1    1    2  503  501  0.38129507956E+00  0.37569843140E+02  0.17539971739E+02  0.41464311258E+02  0.00000000000E+00 0.  1.
         21    1    1    2  504  502  0.27104694886E+02 -0.38754908849E+02  0.14074546476E+03  0.14847859541E+03  0.00000000000E+00 0.  1.
         21    1    1    2  505  503 -0.56077512747E+02  0.12335512512E+03  0.21889606937E+03  0.25744254410E+03  0.00000000000E+00 0.  1.
         -2    1    1    2    0  504  0.28591522781E+02 -0.12217005941E+03 -0.37724585183E+02  0.13101962799E+03  0.00000000000E+00 0.  1.
<scales pt_clust_3="35.10443" pt_clust_4="47.29278" pt_clust_5="35.10443" pt_clust_6="132.01370"></scales>
<clustering>
<clus scale="   35.104">  3  5 -1 -1</clus>
<clus scale="   47.293">  1  4  2 -1</clus>
<clus scale="  132.014">  2  6  1 -1</clus>
<clus scale="   47.293">  1  3  2 -1</clus>
</clustering>
</event>
<event>
 6    0  0.4945982E+002  0.1953623E+03  0.7546771E-02  0.1153712E+00
          1   -1    0    0  505    0 -0.00000000000E+00  0.00000000000E+00  0.58020332713E+03  0.58020332713E+03  0.00000000000E+00 0.  1.
         21   -1    0    0  503  502  0.00000000000E+00 -0.00000000000E+00 -0.18776264292E+04  0.18776264292E+04  0.00000000000E+00 0. -1.
         21    1    1    2  503  501 -0.10128996914E+03  0.19277112395E+03 -0.45443386775E+03  0.50391517564E+03  0.00000000000E+00 0. -1.
         21    1    1    2  504  502  0.44009227404E+02 -0.65495676207E+01 -0.13524461236E+04  0.13531778251E+04  0.00000000000E+00 0. -1.
         21    1    1    2  505  504 -0.93052837705E+02 -0.56944930200E+02  0.11078953163E+03  0.15548593505E+03  0.00000000000E+00 0. -1.
          1    1    1    2  501    0  0.15033357944E+03 -0.12927662613E+03  0.39866735767E+03  0.44525082060E+03  0.00000000000E+00 0.  1.
<scales pt_clust_3="195.36235" pt_clust_4="44.49392" pt_clust_5="107.64822" pt_clust_6="14000.00000"></scales>
<clustering>
<clus scale="   44.494">  2  4  1 -1</clus>
<clus scale="  107.648">  1  5  2 -1</clus>
<clus scale="  195.362">  2  3  1 -1</clus>
<clus scale="   44.494">  2  3  1 -1</clus>
</clustering>
</event>
<event>
 6    0  0.4945982E+002  0.1226571E+03  0.7546771E-02  0.1238777E+00
          1   -1    0    0  505    0 -0.00000000000E+00  0.00000000000E+00  0.63498276058E+03  0.63498276058E+03  0.00000000000E+00 0.  1.
         21   -1    0    0  504  502  0.00000000000E+00 -0.00000000000E+00 -0.28758452137E+04  0.28758452137E+04  0.00000000000E+00 0. -1.
         21    1    1    2  503  502 -0.37405296611E+02 -0.16149067427E+02  0.14048967905E+03  0.14627815460E+03  0.00000000000E+00 0.  1.
         21    1    1    2  504  501  0.89509584233E+02  0.65084866701E+02 -0.28589164956E+04  0.28610577650E+04  0.00000000000E+00 0. -1.
         21    1    1    2  505  503 -0.27535427532E+02 -0.69367761852E+02  0.46192543517E+03  0.46791579778E+03  0.00000000000E+00 0.  1.
          1    1    1    2  501    0 -0.24568860090E+02  0.20431962578E+02  0.15638928267E+02  0.35576256946E+02  0.00000000000E+00 0.  1.
<scales pt_clust_3="41.97581" pt_clust_4="110.65692" pt_clust_5="41.97581" pt_clust_6="31.95456"></scales>
<clustering>
<clus scale="   31.955">  1  6  2 -1</clus>
<clus scale="   41.976">  3  5 -1 -1</clus>
<clus scale="  110.657">  2  4  1 -1</clus>
<clus scale="  110.657">  2  3  1 -1</clus>
</clustering>
</event>
<event>
 6    0  0.4945982E+002  0.1265260E+03  0.7546771E-02  0.1232704E+00
         21   -1    0    0  501  502  0.00000000000E+00  0.00000000000E+00  0.66369816181E+03  0.66369816181E+03  0.00000000000E+00 0. -1.
          2   -1    0    0  505    0 -0.00000000000E+00 -0.00000000000E+00 -0.93155380922E+03  0.93155380922E+03  0.00000000000E+00 0.  1.
         21    1    1    2  503  502  0.29418534301E+02 -0.32964883944E+02  0.60967930928E+03  0.61127816410E+03  0.00000000000E+00 0. -1.
         21    1    1    2  504  503 -0.29901357560E+02  0.48538436112E+02 -0.79699934676E+01  0.57563805989E+02  0.00000000000E+00 0. -1.
         21    1    1    2  505  504 -0.64635130478E+01  0.11380887086E+03 -0.11917084307E+03  0.16491187321E+03  0.00000000000E+00 0. -1.
          2    1    1    2  501    0  0.69463363065E+01 -0.12938242303E+03 -0.75039412015E+03  0.76149812773E+03  0.00000000000E+00 0.  1.
<scales pt_clust_3="44.18296" pt_clust_4="36.92003" pt_clust_5="14000.00000" pt_clust_6="126.52599"></scales>
<clustering>
<clus scale="   44.183">  1  3  2 -1</clus>
<clus scale="   36.920">  1  4  2 -1</clus>
<clus scale="  126.526">  2  6  1 -1</clus>
<clus scale="   44.183">  1  3  2 -1</clus>
</clustering>
</event>
<event>
 6    0  0.4945982E+002  0.1165372E+03  0.7546771E-02  0.1248921E+00
         21   -1    0    0  505  502  0.00000000000E+00  0.00000000000E+00  0.24160259391E+03  0.24160259391E+03  0.00000000000E+00 0.  1.
          2   -1    0    0  503    0 -0.00000000000E+00 -0.00000000000E+00 -0.18939309146E+03  0.18939309146E+03  0.00000000000E+00 0.  1.
         21    1    1    2  503  504 -0.30401363708E+02 -0.11903844091E+02  0.89380366706E+01  0.33850153899E+02  0.00000000000E+00 0. -1.
         21    1    1    2  504  502 -0.11142294564E+03  0.29060030645E+02  0.13097177879E+03  0.17439370698E+03  0.00000000000E+00 0.  1.
         21    1    1    2  505  501  0.69790456481E+02 -0.22161197166E+02  0.34396895708E+02  0.80901006854E+02  0.00000000000E+00 0. -1.
          2    1    1    2  501    0  0.72033852867E+02  0.50050106125E+01 -0.12209720872E+03  0.14185081764E+03  0.00000000000E+00 0.  1.
<scales pt_clust_3="30.96750" pt_clust_4="30.96750" pt_clust_5="100.98830" pt_clust_6="72.20752"></scales>
<clustering>
<clus scale="   30.967">  3  4 -1 -1</clus>
<clus scale="   72.208">  2  6  1 -1</clus>
<clus scale="  100.988">  1  5  2 -1</clus>
<clus scale="  100.988">  1  3  2 -1</clus>
</clustering>
</event>
<event>
 6    0  0.4945982E+002  0.8161944E+02  0.7546771E-02  0.1324518E+00
          1   -1    0    0  503    0 -0.00000000000E+00  0.00000000000E+00  0.96052588618E+03  0.96052588618E+03  0.00000000000E+00 0.  1.
         21   -1    0    0  505  502  0.00000000000E+00 -0.00000000000E+00 -0.19498501103E+03  0.19498501103E+03  0.00000000000E+00 0. -1.
         21    1    1    2  503  504  0.68030211627E+02  0.10508590161E+03 -0.12075897524E+01  0.12519031386E+03  0.00000000000E+00 0. -1.
         21    1    1    2  504  502 -0.36270331251E+02 -0.63543508267E+02 -0.98820751469E+02  0.12295875444E+03  0.00000000000E+00 0. -1.
         21    1    1    2  505  501 -0.62780344367E+02 -0.50206155257E+02  0.57941390170E+02  0.99092049930E+02  0.00000000000E+00 0. -1.
          1    1    1    2  501    0  0.31020463990E+02  0.86637619137E+01  0.80762782620E+03  0.80826977898E+03  0.00000000000E+00 0.  1.
<scales pt_clust_3="81.61944" pt_clust_4="14000.00000" pt_clust_5="65.45760" pt_clust_6="32.20761"></scales>
<clustering>
<clus scale="   32.208">  1  6  2 -1</clus>
<clus scale="   65.458">  1  5  2 -1</clus>
<clus scale="   81.619">  1  3  2 -1</clus>
<clus scale="   81.619">  2  3  1 -1</clus>
</clustering>
</event>
<event>
 6    0  0.4945982E+002  0.1039252E+03  0.7546771E-02  0.1272252E+00
         -3   -1    0    0    0  501 -0.00000000000E+00  0.00000000000E+00  0.11848384271E+03  0.11848384271E+03  0.00000000000E+00 0.  1.
         21   -1    0    0  505  502  0.00000000000E+00 -0.00000000000E+00 -0.96233877927E+03  0.96233877927E+03  0.00000000000E+00 0.  1.
         21    1    1    2  503  504  0.67962299651E+02  0.12744218017E+01 -0.14193982725E+03  0.15737665928E+03  0.00000000000E+00 0.  1.
         21    1    1    2  504  502 -0.43884703332E+02 -0.10622549194E+03 -0.71464482305E+03  0.72382798055E+03  0.00000000000E+00 0.  1.
         21    1    1    2  505  501 -0.18875933222E+02  0.75069270115E+02 -0.74397375686E+02  0.10736231033E+03  0.00000000000E+00 0.  1.
         -3    1    1    2    0  503 -0.52016630973E+01  0.29881800027E+02  0.87127089422E+02  0.92255671820E+02  0.00000000000E+00 0.  1.
<scales pt_clust_3="67.21229" pt_clust_4="14000.00000" pt_clust_5="103.92515" pt_clust_6="30.33116"></scales>
<clustering>
<clus scale="   30.331">  1  6  2 -1</clus>
<clus scale="   67.212">  1  3  2 -1</clus>
<clus scale="  103.925">  1  5  2 -1</clus>
<clus scale="  103.925">  2  3  1 -1</clus>
</clustering>
</event>
<event>
 6    0  0.4945982E+002  0.1707296E+03  0.7546771E-02  0.1177089E+00
          1   -1    0    0  505    0 -0.00000000000E+00  0.00000000000E+00  0.10847021660E+04  0.10847021660E+04  0.00000000000E+00 0. -1.
         21   -1    0    0  501  502  0.00000000000E+00 -0.00000000000E+00 -0.68986274525E+03  0.68986274525E+03  0.00000000000E+00 0.  1.
         21    1    1    2  503  502 -0.70320945436E+02  0.43829995694E+02 -0.48924836849E+03  0.49621574941E+03  0.00000000000E+00 0.  1.
         21    1    1    2  504  503 -0.38852111760E+02  0.93152221649E+01 -0.11043076370E+03  0.11743599756E+03  0.00000000000E+00 0.  1.
         21    1    1    2  505  504 -0.53272627411E+02 -0.39033537633E+01 -0.67125347498E+02  0.85784738029E+02  0.00000000000E+00 0.  1.
          1    1    1    2  501    0  0.16244568461E+03 -0.49241864095E+02  0.10616439004E+04  0.10751284262E+04  0.00000000000E+00 0. -1.
<scales pt_clust_3="82.86196" pt_clust_4="30.65340" pt_clust_5="30.65340" pt_clust_6="167.01005"></scales>
<clustering>
<clus scale="   30.653">  4  5 -1 -1</clus>
<clus scale="   82.862">  2  3  1 -1</clus>
<clus scale="  167.010">  1  6  2 -1</clus>
<clus scale="   82.862">  2  3  1 -1</clus>
</clustering>
</event>
<event>
 6    0  0.4945982E+002  0.7808706E+02  0.7546771E-02  0.1334569E+00
          3   -1    0    0  503    0 -0.00000000000E+00  0.00000000000E+00  0.16609159363E+04  0.16609159363E+04  0.00000000000E+00 0. -1.
         21   -1    0    0  505  502  0.00000000000E+00 -0.00000000000E+00 -0.69587836588E+02  0.69587836588E+02  0.00000000000E+00 0. -1.
         21    1    1    2  503  502 -0.77832256670E+02 -0.41449027219E+02  0.44744629164E+03  0.45605270084E+03  0.00000000000E+00 0. -1.
         21    1    1    2  504  501  0.60498398269E+02 -0.44952080438E+02  0.99545776318E+02  0.12486035124E+03  0.00000000000E+00 0. -1.
         21    1    1    2  505  504  0.28606808887E+02  0.30659591081E+02 -0.43412059888E+02  0.60356996146E+02  0.00000000000E+00 0. -1.
          3    1    1    2  501    0 -0.11272950487E+02  0.55741516576E+02  0.10877480917E+04  0.10892337247E+04  0.00000000000E+00 0. -1.
<scales pt_clust_3="78.08706" pt_clust_4="14000.00000" pt_clust_5="41.93280" pt_clust_6="57.91068"></scales>
<clustering>
<clus scale="   41.933">  2  5  1 -1</clus>
<clus scale="   57.911">  1  6  2 -1</clus>
<clus scale="   78.087">  1  3  2 -1</clus>
<clus scale="   41.933">  2  3  1 -1</clus>
</clustering>
</event>
<event>
 6    0  0.4945982E+002  0.1293347E+03  0.7546771E-02  0.1228446E+00
          2   -1    0    0  503    0 -0.00000000000E+00  0.00000000000E+00  0.19286959619E+04  0.19286959619E+04  0.00000000000E+00 0.  1.
         21   -1    0    0  505  502  0.00000000000E+00 -0.00000000000E+00 -0.23312558370E+03  0.23312558370E+03  0.00000000000E+00 0. -1.
         21    1    1    2  503  504  0.15858056889E+02 -0.11951601800E+03 -0.47146988185E+02  0.12945421979E+03  0.00000000000E+00 0. -1.
         21    1    1    2  504  502  0.40762106346E+02 -0.18515962385E+02 -0.46495646690E+02  0.64546381292E+02  0.00000000000E+00 0. -1.
         21    1    1    2  505  501 -0.53737315387E+02  0.84883719133E+01 -0.78560118979E+02  0.95558588399E+02  0.00000000000E+00 0.  1.
          2    1    1    2  501    0 -0.28828478481E+01  0.12954360847E+03  0.18677731320E+04  0.18722623561E+04  0.00000000000E+00 0.  1.
<scales pt_clust_3="14000.00000" pt_clust_4="44.77042" pt_clust_5="33.76140" pt_clust_6="129.33473"></scales>
<clustering>
<clus scale="   44.770">  2  4  1 -1</clus>
<clus scale="   33.761">  2  5  1 -1</clus>
<clus scale="  129.335">  1  6  2 -1</clus>
<clus scale="   44.770">  2  3  1 -1</clus>
</clustering>
</event>
<event>
 6    0  0.4945982E+002  0.1616408E+03  0.7546771E-02  0.1186857E+00
         21   -1    0    0  503  502  0.00000000000E+00  0.00000000000E+00  0.19307953086E+04  0.19307953086E+04  0.00000000000E+00 0.  1.
          2   -1    0    0  504    0 -0.00000000000E+00 -0.00000000000E+00 -0.44122498954E+03  0.44122498954E+03  0.00000000000E+00 0. -1.
         21    1    1    2  503  501 -0.99667753482E+02  0.15425670755E+03  0.11491418458E+04  0.11637249566E+04  0.00000000000E+00 0.  1.
         21    1    1    2  504  505  0.98016364887E+02 -0.13172422522E+03  0.41384845800E+03  0.44522918310E+03  0.00000000000E+00 0.  1.
         21    1    1    2  505  502 -0.13289152959E+02 -0.56700963918E+02  0.34152196055E+03  0.34645180102E+03  0.00000000000E+00 0.  1.
          2    1    1    2  501    0  0.14940541553E+02  0.34168481586E+02 -0.41494194523E+03  0.41661435744E+03  0.00000000000E+00 0. -1.
<scales pt_clust_3="14000.00000" pt_clust_4="161.64082" pt_clust_5="54.68870" pt_clust_6="37.29216"></scales>
<clustering>
<clus scale="   37.292">  2  6  1 -1</clus>
<clus scale="   54.689">  1  5  2 -1</clus>
<clus scale="  161.641">  2  4  1 -1</clus>
<clus scale="   54.689">  1  3  2 -1</clus>
</clustering>
</event>
<event>
 6    0  0.4945982E+002  0.9458613E+02  0.7546771E-02  0.1292111E+00
         21   -1    0    0  504  502  0.00000000000E+00  0.00000000000E+00  0.68225674340E+03  0.68225674340E+03  0.00000000000E+00 0.  1.
         -1   -1    0    0    0  501 -0.00000000000E+00 -0.00000000000E+00 -0.10028305411E+03  0.10028305411E+03  0.00000000000E+00 0. -1.
         21    1    1    2  503  501 -0.49531121627E+02 -0.10655045252E+01  0.44700595383E+02  0.66727884255E+02  0.00000000000E+00 0. -1.
         21    1    1    2  504  503 -0.18210019029E+02 -0.29709071879E+02  0.67843454274E+02  0.76269050294E+02  0.00000000000E+00 0.  1.
         21    1    1    2  505  502 -0.10672847223E+02  0.11474544751E+03  0.50601195156E+03  0.51896871053E+03  0.00000000000E+00 0.  1.
         -1    1    1    2    0  505  0.78413987879E+02 -0.83970871102E+02 -0.36582311925E+02  0.12057415243E+03  0.00000000000E+00 0. -1.
<scales pt_clust_3="51.33301" pt_clust_4="34.84586" pt_clust_5="94.58613" pt_clust_6="14000.00000"></scales>
<clustering>
<clus scale="   34.846">  1  4  2 -1</clus>
<clus scale="   51.333">  2  3  1 -1</clus>
<clus scale="   94.586">  1  5  2 -1</clus>
<clus scale="   34.846">  1  3  2 -1</clus>
</clustering>
</event>
<event>
 6    0  0.4945982E+002  0.1382540E+03  0.7546771E-02  0.1215698E+00
         21   -1    0    0  504  502  0.00000000000E+00  0.00000000000E+00  0.48573446398E+03  0.48573446398E+03  0.00000000000E+00 0.  1.
          1   -1    0    0  503    0 -0.00000000000E+00 -0.00000000000E+00 -0.14580506069E+04  0.14580506069E+04  0.00000000000E+00 0. -1.
         21    1    1    2  503  505  0.15772467750E+03 -0.21967578979E+02  0.20935343609E+03  0.26303708792E+03  0.00000000000E+00 0.  1.
         21    1    1    2  504  501  0.13491811542E+02  0.31908556673E+02 -0.37060120556E+01  0.34841347463E+02  0.00000000000E+00 0. -1.
         21    1    1    2  505  502 -0.10492474639E+03  0.74401970878E+02  0.21407217959E+03  0.24974337579E+03  0.00000000000E+00 0.  1.
          1    1    1    2  501    0 -0.66291742654E+02 -0.84342948572E+02 -0.13920357465E+04  0.13961632597E+04  0.00000000000E+00 0. -1.
<scales pt_clust_3="14000.00000" pt_clust_4="34.64369" pt_clust_5="138.25402" pt_clust_6="107.13017"></scales>
<clustering>
<clus scale="   34.644">  1  4  2 -1</clus>
<clus scale="  107.130">  2  6  1 -1</clus>
<clus scale="  138.254">  1  5  2 -1</clus>
<clus scale="   34.644">  1  3  2 -1</clus>
</clustering>
</event>
<event>
 6    0  0.4959933E+002  0.9409970E+02  0.7546771E-02  0.1293217E+00
         -4   -1    0    0    0  501 -0.00000000000E+00  0.00000000000E+00  0.50135064619E+03  0.50135064619E+03  0.00000000000E+00 0.  1.
         21   -1    0    0  504  502  0.00000000000E+00 -0.00000000000E+00 -0.90549105504E+03  0.90549105504E+03  0.00000000000E+00 0.  1.
         21    1    1    2  503  502 -0.55575184362E+02  0.34669519862E+02 -0.72806237793E+03  0.73100301154E+03  0.00000000000E+00 0.  1.
         21    1    1    2  504  505  0.11472703842E+02 -0.36393339012E+02 -0.17263554102E+02  0.41882315577E+02  0.00000000000E+00 0.  1.
         21    1    1    2  505  501 -0.17842017604E+02 -0.70386823004E+02 -0.13235655612E+03  0.15096655389E+03  0.00000000000E+00 0. -1.
         -4    1    1    2    0  503  0.61944498125E+02  0.72110642155E+02  0.47354207931E+03  0.48298982022E+03  0.00000000000E+00 0.  1.
<scales pt_clust_3="46.22574" pt_clust_4="38.15885" pt_clust_5="94.09970" pt_clust_6="14000.00000"></scales>
<clustering>
<clus scale="   38.159">  2  4  1 -1</clus>
<clus scale="   46.226">  2  3  1 -1</clus>
<clus scale="   94.100">  2  5  1 -1</clus>
<clus scale="   38.159">  2  3  1 -1</clus>
</clustering>
</event>
<event>
 6    0  0.4945982E+002  0.1982238E+03  0.7546771E-02  0.1151246E+00
         21   -1    0    0  503  502  0.00000000000E+00  0.00000000000E+00  0.37627228824E+03  0.37627228824E+03  0.00000000000E+00 0.  1.
          2   -1    0    0  502    0 -0.00000000000E+00 -0.00000000000E+00 -0.33757067263E+04  0.33757067263E+04  0.00000000000E+00 0. -1.
         21    1    1    2  503  504  0.31352588239E+02  0.56282182622E+01  0.71692963638E+02  0.78450893337E+02  0.00000000000E+00 0.  1.
         21    1    1    2  504  505  0.34068850963E+02  0.91261913645E+02  0.18125815085E+03  0.20577643387E+03  0.00000000000E+00 0.  1.
         21    1    1    2  505  501  0.21180658805E+02  0.77464916072E+02  0.89472523289E+02  0.12022797492E+03  0.00000000000E+00 0. -1.
          2    1    1    2  501    0 -0.86602098007E+02 -0.17435504798E+03 -0.33418580759E+04  0.33475237124E+04  0.00000000000E+00 0. -1.
<scales pt_clust_3="31.85375" pt_clust_4="33.86036" pt_clust_5="33.86036" pt_clust_6="194.49978"></scales>
<clustering>
<clus scale="   31.854">  1  3  2 -1</clus>
<clus scale="   33.860">  4  5 -1 -1</clus>
<clus scale="  194.500">  2  6  1 -1</clus>
<clus scale="   31.854">  1  3  2 -1</clus>
</clustering>
</event>
<event>
 6    0  0.4945982E+002  0.1507032E+03  0.7546771E-02  0.1199612E+00
         21   -1    0    0  505  502  0.00000000000E+00  0.00000000000E+00  0.22185244993E+04  0.22185244993E+04  0.00000000000E+00 0.  1.
          2   -1    0    0  503    0 -0.00000000000E+00 -0.00000000000E+00 -0.90020589858E+03  0.90020589858E+03  0.00000000000E+00 0.  1.
         21    1    1    2  503  502 -0.20797207404E+02 -0.23016796896E+02  0.92426139538E+02  0.97493015366E+02  0.00000000000E+00 0.  1.
         21    1    1    2  504  501  0.94069564763E+02  0.83511131534E+01  0.65207204146E+03  0.65887538378E+03  0.00000000000E+00 0.  1.
         21    1    1    2  505  504  0.67481186524E+02 -0.40972343955E+02  0.14606137309E+04  0.14627456766E+04  0.00000000000E+00 0.  1.
          2    1    1    2  501    0 -0.14075354388E+03  0.55638027698E+02 -0.88679331120E+03  0.89961632212E+03  0.00000000000E+00 0.  1.
<scales pt_clust_3="31.02091" pt_clust_4="14000.00000" pt_clust_5="77.81132" pt_clust_6="150.70323"></scales>
<clustering>
<clus scale="   31.021">  1  3  2 -1</clus>
<clus scale="   77.811">  1  5  2 -1</clus>
<clus scale="  150.703">  2  6  1 -1</clus>
<clus scale="   31.021">  1  3  2 -1</clus>
</clustering>
</event>
<event>
 6    0  0.4945982E+002  0.8507872E+02  0.7546771E-02  0.1315227E+00
         21   -1    0    0  505  502  0.00000000000E+00  0.00000000000E+00  0.33474078787E+03  0.33474078787E+03  0.00000000000E+00 0.  1.
         -1   -1    0    0    0  501 -0.00000000000E+00 -0.00000000000E+00 -0.19041479916E+03  0.19041479916E+03  0.00000000000E+00 0.  1.
         21    1    1    2  503  502 -0.34361170211E+02 -0.38531349005E+02  0.11780771891E+03  0.12862353404E+03  0.00000000000E+00 0.  1.
         21    1    1    2  504  503  0.28130820090E+02 -0.86479332082E+02  0.14089529796E+03  0.16769467166E+03  0.00000000000E+00 0.  1.
         21    1    1    2  505  501  0.23776054555E+02  0.68274292046E+02  0.25670816712E+02  0.76718124034E+02  0.00000000000E+00 0.  1.
         -1    1    1    2    0  504 -0.17545704434E+02  0.56736389040E+02 -0.14004784488E+03  0.15211925730E+03  0.00000000000E+00 0.  1.
<scales pt_clust_3="51.62708" pt_clust_4="85.07872" pt_clust_5="14000.00000" pt_clust_6="58.64032"></scales>
<clustering>
<clus scale="   51.627">  1  3  2 -1</clus>
<clus scale="   58.640">  2  6  1 -1</clus>
<clus scale="   85.079">  1  4  2 -1</clus>
<clus scale="   51.627">  1  3  2 -1</clus>
</clustering>
</event>
<event>
 6    0  0.4945982E+002  0.2157038E+03  0.7546771E-02  0.1137127E+00
         21   -1    0    0  501  502  0.00000000000E+00  0.00000000000E+00  0.11977291314E+03  0.11977291314E+03  0.00000000000E+00 0. -1.
          2   -1    0    0  504    0 -0.00000000000E+00 -0.00000000000E+00 -0.10119840645E+04  0.10119840645E+04  0.00000000000E+00 0. -1.
         21    1    1    2  503  502 -0.78820892025E+01 -0.10890745122E+03  0.25370057377E+02  0.11210084778E+03  0.00000000000E+00 0. -1.
         21    1    1    2  504  505  0.83736063120E+02 -0.10683305325E+02 -0.11798620130E+03  0.14507448079E+03  0.00000000000E+00 0. -1.
         21    1    1    2  505  503  0.13143179220E+02 -0.83179479745E+02 -0.62302864982E+02  0.10475311926E+03  0.00000000000E+00 0.  1.
          2    1    1    2  501    0 -0.88997153138E+02  0.20277023629E+03 -0.73729214247E+03  0.76982852983E+03  0.00000000000E+00 0. -1.
<scales pt_clust_3="82.08416" pt_clust_4="84.41482" pt_clust_5="82.08416" pt_clust_6="194.40057"></scales>
<clustering>
<clus scale="   82.084">  3  5 -1 -1</clus>
<clus scale="   84.415">  2  4  1 -1</clus>
<clus scale="  194.401">  2  6  1 -1</clus>
<clus scale="  215.704">  1  3  2 -1</clus>
</clustering>
</event>
<event>
 6    0  0.4945982E+002  0.7958828E+02  0.7546771E-02  0.1330224E+00
         21   -1    0    0  504  502  0.00000000000E+00  0.00000000000E+00  0.25080192381E+03  0.25080192381E+03  0.00000000000E+00 0. -1.
          1   -1    0    0  503    0 -0.00000000000E+00 -0.00000000000E+00 -0.11945228863E+04  0.11945228863E+04  0.00000000000E+00 0.  1.
         21    1    1    2  503  502 -0.13488641961E+02  0.13536198003E+03 -0.88000673995E+01  0.13631672783E+03  0.00000000000E+00 0. -1.
         21    1    1    2  504  505 -0.39424095112E+01 -0.72639066514E+02  0.13794574234E+03  0.15595192979E+03  0.00000000000E+00 0. -1.
         21    1    1    2  505  501 -0.17579477582E+02 -0.53041455009E+02  0.20176350306E+02  0.59409755876E+02  0.00000000000E+00 0. -1.
          1    1    1    2  501    0  0.35010529054E+02 -0.96814585071E+01 -0.10930429878E+04  0.10936463966E+04  0.00000000000E+00 0.  1.
<scales pt_clust_3="14000.00000" pt_clust_4="79.58828" pt_clust_5="55.96875" pt_clust_6="36.32448"></scales>
<clustering>
<clus scale="   36.324">  2  6  1 -1</clus>
<clus scale="   55.969">  2  5  1 -1</clus>
<clus scale="   79.588">  1  4  2 -1</clus>
<clus scale="   79.588">  1  3  2 -1</clus>
</clustering>
</event>
<event>
 6    0  0.4945982E+002  0.9625795E+02  0.7546771E-02  0.1288368E+00
          1   -1    0    0  504    0 -0.00000000000E+00  0.00000000000E+00  0.24058051531E+04  0.24058051531E+04  0.00000000000E+00 0.  1.
         21   -1    0    0  505  502  0.00000000000E+00 -0.00000000000E+00 -0.12189272579E+02  0.12189272579E+02  0.00000000000E+00 0. -1.
         21    1    1    2  503  502 -0.28779397144E+02  0.54915604453E+02  0.19695228429E+03  0.20648045815E+03  0.00000000000E+00 0. -1.
         21    1    1    2  504  503 -0.72963834569E+02  0.43028462133E+02  0.53926970345E+03  0.54588183956E+03  0.00000000000E+00 0. -1.
         21    1    1    2  505  501  0.80359051698E+01 -0.53757284282E+02  0.35656451924E+03  0.36068362558E+03  0.00000000000E+00 0. -1.
          1    1    1    2  501    0  0.93707326544E+02 -0.44186782304E+02  0.13008293736E+04  0.13049485024E+04  0.00000000000E+00 0.  1.
<scales pt_clust_3="38.77015" pt_clust_4="96.25795" pt_clust_5="54.35459" pt_clust_6="14000.00000"></scales>
<clustering>
<clus scale="   54.355">  2  5  1 -1</clus>
<clus scale="   38.770">  2  3  1 -1</clus>
<clus scale="   96.258">  2  4  1 -1</clus>
<clus scale="   54.355">  2  3  1 -1</clus>
</clustering>
</event>
<event>
 6    0  0.4945982E+002  0.1740917E+03  0.7546771E-02  0.1173647E+00
          1   -1    0    0  505    0 -0.00000000000E+00  0.00000000000E+00  0.15822293590E+04  0.15822293590E+04  0.00000000000E+00 0. -1.
         21   -1    0    0  504  502  0.00000000000E+00 -0.00000000000E+00 -0.51221459221E+03  0.51221459221E+03  0.00000000000E+00 0. -1.
         21    1    1    2  503  502 -0.13298683870E+02 -0.45923456810E+02 -0.36250489165E+02  0.59999307019E+02  0.00000000000E+00 0.  1.
         21    1    1    2  504  501  0.14062046204E+03  0.14662288775E+03 -0.36131981667E+03  0.41451706294E+03  0.00000000000E+00 0. -1.
         21    1    1    2  505  503 -0.10649697494E+03 -0.17158428681E+03  0.60374824758E+02  0.21077925091E+03  0.00000000000E+00 0.  1.
          1    1    1    2  501    0 -0.20824803226E+02  0.70884855865E+02  0.14072102479E+04  0.14091483304E+04  0.00000000000E+00 0. -1.
<scales pt_clust_3="47.81024" pt_clust_4="174.09165" pt_clust_5="14000.00000" pt_clust_6="73.79639"></scales>
<clustering>
<clus scale="   47.810">  2  3  1 -1</clus>
<clus scale="   73.796">  1  6  2 -1</clus>
<clus scale="  174.092">  2  4  1 -1</clus>
<clus scale="   47.810">  2  3  1 -1</clus>
</clustering>
</event>
<event>
 6    0  0.4945982E+002  0.1125615E+03  0.7546771E-02  0.1255899E+00
          2   -1    0    0  505    0 -0.00000000000E+00  0.00000000000E+00  0.92232234758E+03  0.92232234758E+03  0.00000000000E+00 0. -1.
         21   -1    0    0  503  502  0.00000000000E+00 -0.00000000000E+00 -0.63358160077E+02  0.63358160077E+02  0.00000000000E+00 0. -1.
         21    1    1    2  503  501  0.94498010581E+01  0.53908022206E+02  0.30612570772E+02  0.62709672997E+02  0.00000000000E+00 0. -1.
         21    1    1    2  504  502 -0.39586770519E+02  0.40985555354E+01 -0.16099807354E+02  0.42931507712E+02  0.00000000000E+00 0. -1.
         21    1    1    2  505  504 -0.59979185350E+02  0.40356408149E+02  0.98100321766E+02  0.12185981899E+03  0.00000000000E+00 0. -1.
          2    1    1    2  501    0  0.90116154811E+02 -0.98362985890E+02  0.74635110232E+03  0.75817950796E+03  0.00000000000E+00 0. -1.
<scales pt_clust_3="56.62434" pt_clust_4="39.79837" pt_clust_5="14000.00000" pt_clust_6="112.56149"></scales>
<clustering>
<clus scale="   39.798">  2  4  1 -1</clus>
<clus scale="   56.624">  2  3  1 -1</clus>
<clus scale="  112.561">  1  6  2 -1</clus>
<clus scale="   39.798">  2  3  1 -1</clus>
</clustering>
</event>
<event>
 6    0  0.4945982E+002  0.8174231E+02  0.7546771E-02  0.1324178E+00
          2   -1    0    0  503    0 -0.00000000000E+00  0.00000000000E+00  0.11142854093E+04  0.11142854093E+04  0.00000000000E+00 0.  1.
         21   -1    0    0  505  502  0.00000000000E+00 -0.00000000000E+00 -0.24197284969E+03  0.24197284969E+03  0.00000000000E+00 0.  1.
         21    1    1    2  503  502  0.36059165487E+02  0.79075618705E+00 -0.85494404034E+01  0.37067258358E+02  0.00000000000E+00 0.  1.
         21    1    1    2  504  501  0.20959816598E+01  0.73234679592E+02  0.15210122758E+01  0.73280453823E+02  0.00000000000E+00 0.  1.
         21    1    1    2  505  504  0.27766551707E+02 -0.75756929362E+02 -0.17332299178E+03  0.19118303591E+03  0.00000000000E+00 0.  1.
          2    1    1    2  501    0 -0.65921698854E+02  0.17314935826E+01  0.10526639796E+04  0.10547275109E+04  0.00000000000E+00 0.  1.
<scales pt_clust_3="36.06783" pt_clust_4="14000.00000" pt_clust_5="81.74231" pt_clust_6="65.77483"></scales>
<clustering>
<clus scale="   36.068">  2  3  1 -1</clus>
<clus scale="   65.775">  1  6  2 -1</clus>
<clus scale="   81.742">  2  5  1 -1</clus>
<clus scale="   36.068">  2  3  1 -1</clus>
</clustering>
</event>
<event>
 6    0  0.4945982E+002  0.8185987E+02  0.7546771E-02  0.1323855E+00
          1   -1    0    0  503    0 -0.00000000000E+00  0.00000000000E+00  0.10252195011E+04  0.10252195011E+04  0.00000000000E+00 0. -1.
         21   -1    0    0  505  502  0.00000000000E+00 -0.00000000000E+00 -0.34799415723E+03  0.34799415723E+03  0.00000000000E+00 0. -1.
         21    1    1    2  503  504 -0.73176769188E+02 -0.61958148234E+02 -0.56540913553E+01  0.96050093340E+02  0.00000000000E+00 0. -1.
         21    1    1    2  504  502 -0.32021335038E+02  0.15484931869E+02 -0.23811960978E+03  0.24076149521E+03  0.00000000000E+00 0. -1.
         21    1    1    2  505  501  0.23245787066E+02  0.42712748432E+02 -0.45399780064E+02  0.66527329157E+02  0.00000000000E+00 0. -1.
          1    1    1    2  501    0  0.81952317161E+02  0.37604679332E+01  0.96639882509E+03  0.96987474065E+03  0.00000000000E+00 0. -1.
<scales pt_clust_3="14000.00000" pt_clust_4="35.56893" pt_clust_5="51.14158" pt_clust_6="81.85987"></scales>
<clustering>
<clus scale="   35.569">  2  4  1 -1</clus>
<clus scale="   51.142">  2  5  1 -1</clus>
<clus scale="   81.860">  1  6  2 -1</clus>
<clus scale="   35.569">  2  3  1 -1</clus>
</clustering>
</event>
<event>
 6    0  0.4945982E+002  0.8719481E+02  0.7546771E-02  0.1309791E+00
         21   -1    0    0  503  502  0.00000000000E+00  0.00000000000E+00  0.58480922815E+03  0.58480922815E+03  0.00000000000E+00 0. -1.
          2   -1    0    0  504    0 -0.00000000000E+00 -0.00000000000E+00 -0.28449906327E+03  0.28449906327E+03  0.00000000000E+00 0.  1.
         21    1    1    2  503  501 -0.54365657051E+02 -0.71271685471E+02  0.38923412175E+03  0.39942268257E+03  0.00000000000E+00 0. -1.
         21    1    1    2  504  505  0.18977858752E+02 -0.47260258499E+02  0.86356836902E+02  0.10025564541E+03  0.00000000000E+00 0.  1.
         21    1    1    2  505  502  0.28279683697E+01  0.37630449138E+02  0.86141914319E+02  0.94045082327E+02  0.00000000000E+00 0. -1.
          2    1    1    2  501    0  0.32559829929E+02  0.80901494832E+02 -0.26142270809E+03  0.27558488111E+03  0.00000000000E+00 0.  1.
<scales pt_clust_3="14000.00000" pt_clust_4="44.65142" pt_clust_5="37.73656" pt_clust_6="87.19481"></scales>
<clustering>
<clus scale="   37.737">  1  5  2 -1</clus>
<clus scale="   44.651">  1  4  2 -1</clus>
<clus scale="   87.195">  2  6  1 -1</clus>
<clus scale="   37.737">  1  3  2 -1</clus>
</clustering>
</event>
<event>
 6    0  0.4945982E+002  0.9286270E+02  0.7546771E-02  0.1296064E+00
         -2   -1    0    0    0  501 -0.00000000000E+00  0.00000000000E+00  0.86945157868E+02  0.86945157868E+02  0.00000000000E+00 0. -1.
         21   -1    0    0  504  502  0.00000000000E+00 -0.00000000000E+00 -0.42804950263E+03  0.42804950263E+03  0.00000000000E+00 0. -1.
         21    1    1    2  503  502 -0.92651663444E+02 -0.69472935232E+02 -0.83613576272E+02  0.14283574345E+03  0.00000000000E+00 0. -1.
         21    1    1    2  504  505  0.63112896107E+02  0.41557996632E+02 -0.95655106038E+02  0.12190243660E+03  0.00000000000E+00 0. -1.
         21    1    1    2  505  501 -0.16397951982E+02  0.10062549759E+03 -0.65820376911E+02  0.12135363864E+03  0.00000000000E+00 0. -1.
         -2    1    1    2    0  503  0.45936719318E+02 -0.72710558985E+02 -0.96015285545E+02  0.12890284181E+03  0.00000000000E+00 0. -1.
<scales pt_clust_3="89.07153" pt_clust_4="75.56656" pt_clust_5="92.86270" pt_clust_6="14000.00000"></scales>
<clustering>
<clus scale="   75.567">  2  4  1 -1</clus>
<clus scale="   89.072">  2  3  1 -1</clus>
<clus scale="   92.863">  1  5  2 -1</clus>
<clus scale="   75.567">  2  3  1 -1</clus>
</clustering>
</event>
<event>
 6    0  0.4945982E+002  0.9894291E+02  0.7546771E-02  0.1282535E+00
          1   -1    0    0  504    0 -0.00000000000E+00  0.00000000000E+00  0.19530782980E+04  0.19530782980E+04  0.00000000000E+00 0.  1.
         21   -1    0    0  503  502  0.00000000000E+00 -0.00000000000E+00 -0.25126024641E+02  0.25126024641E+02  0.00000000000E+00 0. -1.
         21    1    1    2  503  501  0.96787537100E+02 -0.43805849835E+02  0.33894972478E+03  0.35520936889E+03  0.00000000000E+00 0. -1.
         21    1    1    2  504  505 -0.23744525057E+02 -0.54989885395E+02  0.26200359942E+03  0.26876304820E+03  0.00000000000E+00 0.  1.
         21    1    1    2  505  502  0.92814424028E+01  0.46588979716E+02  0.36118683990E+02  0.59676105245E+02  0.00000000000E+00 0. -1.
          1    1    1    2  501    0 -0.82324454446E+02  0.52206755513E+02  0.12908802652E+04  0.12945558003E+04  0.00000000000E+00 0.  1.
<scales pt_clust_3="98.94291" pt_clust_4="48.20109" pt_clust_5="47.50451" pt_clust_6="14000.00000"></scales>
<clustering>
<clus scale="   47.505">  2  5  1 -1</clus>
<clus scale="   48.201">  2  4  1 -1</clus>
<clus scale="   98.943">  2  3  1 -1</clus>
<clus scale="   47.505">  2  3  1 -1</clus>
</clustering>
</event>
<event>
 6    0  0.4945982E+002  0.8396057E+02  0.7546771E-02  0.1318173E+00
         21   -1    0    0  504  502  0.00000000000E+00  0.00000000000E+00  0.17207235060E+03  0.17207235060E+03  0.00000000000E+00 0. -1.
          2   -1    0    0  503    0 -0.00000000000E+00 -0.00000000000E+00 -0.39012908883E+03  0.39012908883E+03  0.00000000000E+00 0.  1.
         21    1    1    2  503  502 -0.20213358056E+02  0.54727552930E+02  0.35291372732E+01  0.58447751911E+02  0.00000000000E+00 0.  1.
         21    1    1    2  504  505  0.52508505598E+01 -0.29671537940E+02  0.59087221439E+02  0.66327003043E+02  0.00000000000E+00 0.  1.
         21    1    1    2  505  501  0.87034135804E+02  0.17968507187E+02  0.46051318814E+02  0.10009261716E+03  0.00000000000E+00 0. -1.
          2    1    1    2  501    0 -0.72071628307E+02 -0.43024522177E+02 -0.32672441576E+03  0.33733406731E+03  0.00000000000E+00 0.  1.
<scales pt_clust_3="49.96203" pt_clust_4="30.13257" pt_clust_5="83.96057" pt_clust_6="14000.00000"></scales>
<clustering>
<clus scale="   30.133">  1  4  2 -1</clus>
<clus scale="   49.962">  1  3  2 -1</clus>
<clus scale="   83.961">  1  5  2 -1</clus>
<clus scale="   30.133">  1  3  2 -1</clus>
</clustering>
</event>
<event>
 6    0  0.4945982E+002  0.1340448E+03  0.7546771E-02  0.1221574E+00
         21   -1    0    0  503  502  0.00000000000E+00  0.00000000000E+00  0.90684812818E+02  0.90684812818E+02  0.00000000000E+00 0. -1.
         -1   -1    0    0    0  501 -0.00000000000E+00 -0.00000000000E+00 -0.18449317934E+04  0.18449317934E+04  0.00000000000E+00 0.  1.
         21    1    1    2  503  501  0.32042490956E+02  0.47097596605E+02 -0.11719925375E+03  0.13030951581E+03  0.00000000000E+00 0. -1.
         21    1    1    2  504  505  0.10477626137E+03 -0.29453147126E+01  0.11810787895E+02  0.10548096765E+03  0.00000000000E+00 0. -1.
         21    1    1    2  505  502 -0.14509138929E+01 -0.39967058230E+02  0.51131299138E+01  0.40318916059E+02  0.00000000000E+00 0.  1.
         -1    1    1    2    0  504 -0.13536783844E+03 -0.41852236632E+01 -0.16539716446E+04  0.16595072066E+04  0.00000000000E+00 0.  1.
<scales pt_clust_3="53.73764" pt_clust_4="14000.00000" pt_clust_5="39.99339" pt_clust_6="134.04484"></scales>
<clustering>
<clus scale="   39.993">  1  5  2 -1</clus>
<clus scale="   53.738">  1  3  2 -1</clus>
<clus scale="  134.045">  2  6  1 -1</clus>
<clus scale="   39.993">  1  3  2 -1</clus>
</clustering>
</event>
<event>
 6    0  0.4945982E+002  0.1394926E+03  0.7546771E-02  0.1214013E+00
         21   -1    0    0  501  502  0.00000000000E+00  0.00000000000E+00  0.24358514989E+03  0.24358514989E+03  0.00000000000E+00 0.  1.
         -2   -1    0    0    0  501 -0.00000000000E+00 -0.00000000000E+00 -0.22228488706E+03  0.22228488706E+03  0.00000000000E+00 0. -1.
         21    1    1    2  503  505 -0.76293098722E+02 -0.90575020329E+02  0.66842661183E+02  0.13598681030E+03  0.00000000000E+00 0.  1.
         21    1    1    2  504  502  0.25532020357E+02 -0.16487405439E+02  0.19452596206E+02  0.36084928997E+02  0.00000000000E+00 0.  1.
         21    1    1    2  505  504 -0.21790680342E+01 -0.30592126220E+02  0.80794263838E+02  0.86419555618E+02  0.00000000000E+00 0.  1.
         -2    1    1    2    0  503  0.52940146400E+02  0.13765455199E+03 -0.14578925840E+03  0.20737874203E+03  0.00000000000E+00 0. -1.
<scales pt_clust_3="139.49258" pt_clust_4="30.39274" pt_clust_5="37.77492" pt_clust_6="14000.00000"></scales>
<clustering>
<clus scale="   30.393">  1  4  2 -1</clus>
<clus scale="   37.775">  1  5  2 -1</clus>
<clus scale="  139.493">  1  3  2 -1</clus>
<clus scale="   30.393">  1  3  2 -1</clus>
</clustering>
</event>
<event>
 6    0  0.4945982E+002  0.1549627E+03  0.7546771E-02  0.1194504E+00
          2   -1    0    0  505    0 -0.00000000000E+00  0.00000000000E+00  0.18461904514E+04  0.18461904514E+04  0.00000000000E+00 0. -1.
         21   -1    0    0  503  502  0.00000000000E+00 -0.00000000000E+00 -0.13874461229E+03  0.13874461229E+03  0.00000000000E+00 0. -1.
         21    1    1    2  503  504 -0.12014546322E+02  0.48952545489E+02 -0.62647157379E+02  0.80407508112E+02  0.00000000000E+00 0. -1.
         21    1    1    2  504  501 -0.84248764876E+02 -0.13296129711E+03  0.62358495962E+02  0.16930783482E+03  0.00000000000E+00 0. -1.
         21    1    1    2  505  502  0.20975150067E+02 -0.51263703835E+02  0.65826514128E+02  0.86029379944E+02  0.00000000000E+00 0. -1.
          2    1    1    2  501    0  0.75288161131E+02  0.13527245546E+03  0.16419079864E+04  0.16491903408E+04  0.00000000000E+00 0. -1.
<scales pt_clust_3="50.40537" pt_clust_4="14000.00000" pt_clust_5="47.90936" pt_clust_6="154.96273"></scales>
<clustering>
<clus scale="   50.405">  2  3  1 -1</clus>
<clus scale="   47.909">  2  5  1 -1</clus>
<clus scale="  154.963">  1  6  2 -1</clus>
<clus scale="   50.405">  2  3  1 -1</clus>
</clustering>
</event>
<event>
 6    0  0.4945982E+002  0.7401399E+02  0.7546771E-02  0.1346952E+00
         21   -1    0    0  504  502  0.00000000000E+00  0.00000000000E+00  0.22827475297E+03  0.22827475297E+03  0.00000000000E+00 0.  1.
          2   -1    0    0  505    0 -0.00000000000E+00 -0.00000000000E+00 -0.16877632240E+03  0.16877632240E+03  0.00000000000E+00 0.  1.
         21    1    1    2  503  501  0.89275605008E+02  0.53198706568E+02  0.62865271973E+02  0.12145895788E+03  0.00000000000E+00 0.  1.
         21    1    1    2  504  503 -0.43413422881E+02  0.34884521405E+02  0.91524564025E+02  0.10713729948E+03  0.00000000000E+00 0.  1.
         21    1    1    2  505  502 -0.37671114858E+02 -0.13738211595E+02  0.83589967344E+01  0.40960031480E+02  0.00000000000E+00 0. -1.
          2    1    1    2  501    0 -0.81910672692E+01 -0.74345016378E+02 -0.10325040216E+03  0.12749478652E+03  0.00000000000E+00 0.  1.
<scales pt_clust_3="74.01399" pt_clust_4="67.91431" pt_clust_5="40.09802" pt_clust_6="14000.00000"></scales>
<clustering>
<clus scale="   40.098">  1  5  2 -1</clus>
<clus scale="   67.914">  1  4  2 -1</clus>
<clus scale="   74.014">  1  3  2 -1</clus>
<clus scale="   40.098">  1  3  2 -1</clus>
</clustering>
</event>
<event>
 6    0  0.4945982E+002  0.1815423E+03  0.7546771E-02  0.1166319E+00
          2   -1    0    0  503    0 -0.00000000000E+00  0.00000000000E+00  0.10450327848E+04  0.10450327848E+04  0.00000000000E+00 0. -1.
         21   -1    0    0  504  502  0.00000000000E+00 -0.00000000000E+00 -0.65661686561E+02  0.65661686561E+02  0.00000000000E+00 0. -1.
         21    1    1    2  503  505 -0.37429943577E+02  0.80395409771E+02  0.25021761203E+03  0.26546803190E+03  0.00000000000E+00 0.  1.
         21    1    1    2  504  501 -0.15178682287E+02  0.35796475049E+02 -0.23163910063E+02  0.45258664931E+02  0.00000000000E+00 0. -1.
         21    1    1    2  505  502 -0.34156514739E+01  0.71356858293E+02  0.14077758988E+03  0.15786639197E+03  0.00000000000E+00 0. -1.
          2    1    1    2  501    0  0.56024277337E+02 -0.18754874311E+03  0.61153980638E+03  0.64210138256E+03  0.00000000000E+00 0. -1.
<scales pt_clust_3="36.32145" pt_clust_4="38.88162" pt_clust_5="36.32145" pt_clust_6="176.97441"></scales>
<clustering>
<clus scale="   36.321">  3  5 -1 -1</clus>
<clus scale="   38.882">  2  4  1 -1</clus>
<clus scale="  176.974">  1  6  2 -1</clus>
<clus scale="   38.882">  2  3  1 -1</clus>
</clustering>
</event>
<event>
 6    0  0.4945982E+002  0.2088123E+03  0.7546771E-02  0.1142510E+00
          2   -1    0    0  505    0 -0.00000000000E+00  0.00000000000E+00  0.14675146668E+04  0.14675146668E+04  0.00000000000E+00 0. -1.
         21   -1    0    0  503  502  0.00000000000E+00 -0.00000000000E+00 -0.29711540252E+02  0.29711540252E+02  0.00000000000E+00 0. -1.
         21    1    1    2  503  501 -0.40136817163E+02 -0.76453794056E+02  0.26549775190E+03  0.27918668124E+03  0.00000000000E+00 0. -1.
         21    1    1    2  504  502  0.21897303068E+02  0.12356798968E+03  0.37166213837E+03  0.39227705139E+03  0.00000000000E+00 0. -1.
         21    1    1    2  505  504  0.40308417072E+02  0.70639092036E+02  0.28442912548E+03  0.29582862815E+03  0.00000000000E+00 0.  1.
          2    1    1    2  501    0 -0.22068902978E+02 -0.11775328766E+03  0.51621411075E+03  0.52993384623E+03  0.00000000000E+00 0. -1.
<scales pt_clust_3="38.12494" pt_clust_4="207.44561" pt_clust_5="30.63103" pt_clust_6="38.12494"></scales>
<clustering>
<clus scale="   30.631">  4  5 -1 -1</clus>
<clus scale="   38.125">  3  6 -1 -1</clus>
<clus scale="  207.446">  2  4  1 -1</clus>
<clus scale="  207.446">  2  3  1 -1</clus>
</clustering>
</event>
<event>
 6    0  0.4945982E+002  0.1019532E+03  0.7546771E-02  0.1276241E+00
          2   -1    0    0  503    0 -0.00000000000E+00  0.00000000000E+00  0.24130406468E+04  0.24130406468E+04  0.00000000000E+00 0.  1.
         21   -1    0    0  504  502  0.00000000000E+00 -0.00000000000E+00 -0.47847541017E+02  0.47847541017E+02  0.00000000000E+00 0.  1.
         21    1    1    2  503  502  0.66140257488E+02  0.44311888181E+02  0.16197648308E+02  0.81243097587E+02  0.00000000000E+00 0.  1.
         21    1    1    2  504  505 -0.89341640925E+02 -0.40463345526E+02  0.19464028318E+03  0.21795424054E+03  0.00000000000E+00 0.  1.
         21    1    1    2  505  501 -0.45492888275E+01 -0.33036182451E+02  0.76586610416E+02  0.83531995515E+02  0.00000000000E+00 0.  1.
          2    1    1    2  501    0  0.27750672265E+02  0.29187639796E+02  0.20777685639E+04  0.20781588542E+04  0.00000000000E+00 0.  1.
<scales pt_clust_3="85.33596" pt_clust_4="32.53014" pt_clust_5="32.53014" pt_clust_6="40.27429"></scales>
<clustering>
<clus scale="   32.530">  4  5 -1 -1</clus>
<clus scale="   40.274">  1  6  2 -1</clus>
<clus scale="   85.336">  2  3  1 -1</clus>
<clus scale="   85.336">  2  3  1 -1</clus>
</clustering>
</event>
<event>
 6    0  0.4945982E+002  0.2084715E+03  0.7546771E-02  0.1142782E+00
          2   -1    0    0  502    0 -0.00000000000E+00  0.00000000000E+00  0.17411569264E+04  0.17411569264E+04  0.00000000000E+00 0. -1.
         21   -1    0    0  505  502  0.00000000000E+00 -0.00000000000E+00 -0.89001696407E+02  0.89001696407E+02  0.00000000000E+00 0. -1.
         21    1    1    2  503  504 -0.30336014476E+02  0.15601212219E+03  0.14108657037E+03  0.21252170803E+03  0.00000000000E+00 0. -1.
         21    1    1    2  504  501  0.17437027024E+02  0.14177932536E+03  0.15300983143E+03  0.20932614630E+03  0.00000000000E+00 0. -1.
         21    1    1    2  505  503 -0.48372830299E-01 -0.10734250131E+03  0.14545993962E+03  0.18077889523E+03  0.00000000000E+00 0.  1.
          2    1    1    2  501    0  0.12947360283E+02 -0.19044894623E+03  0.12125988886E+04  0.12275318732E+04  0.00000000000E+00 0. -1.
<scales pt_clust_3="48.49670" pt_clust_4="48.49670" pt_clust_5="107.34251" pt_clust_6="202.09797"></scales>
<clustering>
<clus scale="   48.497">  3  4 -1 -1</clus>
<clus scale="  107.343">  2  5  1 -1</clus>
<clus scale="  202.098">  1  6  2 -1</clus>
<clus scale="  107.343">  2  3  1 -1</clus>
</clustering>
</event>
<event>
 6    0  0.4945982E+002  0.6779829E+02  0.7546771E-02  0.1367744E+00
          1   -1    0    0  504    0 -0.00000000000E+00  0.00000000000E+00  0.31573674529E+03  0.31573674529E+03  0.00000000000E+00 0. -1.
         21   -1    0    0  503  502  0.00000000000E+00 -0.00000000000E+00 -0.16437431599E+03  0.16437431599E+03  0.00000000000E+00 0. -1.
         21    1    1    2  503  501  0.25659123042E+02  0.68276669390E+02 -0.39779940630E+02  0.83081513315E+02  0.00000000000E+00 0. -1.
         21    1    1    2  504  505  0.90049017880E+02 -0.73480744989E+01  0.91759103991E+02  0.12877326192E+03  0.00000000000E+00 0. -1.
         21    1    1    2  505  502 -0.62050809423E+02 -0.35205996459E+02 -0.63085129189E+02  0.95233915500E+02  0.00000000000E+00 0. -1.
          1    1    1    2  501    0 -0.53657331499E+02 -0.25722598432E+02  0.16246839513E+03  0.17302237055E+03  0.00000000000E+00 0. -1.
<scales pt_clust_3="67.79829" pt_clust_4="56.65641" pt_clust_5="14000.00000" pt_clust_6="59.50430"></scales>
<clustering>
<clus scale="   59.504">  1  6  2 -1</clus>
<clus scale="   56.656">  1  4  2 -1</clus>
<clus scale="   67.798">  1  3  2 -1</clus>
<clus scale="   67.798">  2  3  1 -1</clus>
</clustering>
</event>
<event>
 6    0  0.4945982E+002  0.6576761E+02  0.7546771E-02  0.1375107E+00
          2   -1    0    0  503    0 -0.00000000000E+00  0.00000000000E+00  0.38935530320E+04  0.38935530320E+04  0.00000000000E+00 0.  1.
         21   -1    0    0  504  502  0.00000000000E+00 -0.00000000000E+00 -0.24635908100E+03  0.24635908100E+03  0.00000000000E+00 0. -1.
         21    1    1    2  503  502 -0.24937510132E+02  0.20206146670E+02 -0.73319221068E+02  0.80036716280E+02  0.00000000000E+00 0.  1.
         21    1    1    2  504  505  0.58677362044E+02 -0.22006367454E+02 -0.65587213001E+02  0.90713811155E+02  0.00000000000E+00 0. -1.
         21    1    1    2  505  501 -0.98243529748E+02 -0.10506955177E+02 -0.64505124918E+02  0.11799617954E+03  0.00000000000E+00 0. -1.
          2    1    1    2  501    0  0.64503677837E+02  0.12307175961E+02  0.38506055100E+04  0.38511654061E+04  0.00000000000E+00 0.  1.
<scales pt_clust_3="32.09623" pt_clust_4="48.87082" pt_clust_5="14000.00000" pt_clust_6="65.76761"></scales>
<clustering>
<clus scale="   32.096">  2  3  1 -1</clus>
<clus scale="   48.871">  2  4  1 -1</clus>
<clus scale="   65.768">  1  6  2 -1</clus>
<clus scale="   32.096">  2  3  1 -1</clus>
</clustering>
</event>
<event>
 6    0  0.4945982E+002  0.1435226E+03  0.7546771E-02  0.1208666E+00
         21   -1    0    0  505  502  0.00000000000E+00  0.00000000000E+00  0.41222533321E+03  0.41222533321E+03  0.00000000000E+00 0. -1.
          1   -1    0    0  504    0 -0.00000000000E+00 -0.00000000000E+00 -0.18139862799E+03  0.18139862799E+03  0.00000000000E+00 0.  1.
         21    1    1    2  503  502 -0.82928271802E+02 -0.61634335522E+02  0.15674937009E+02  0.10450642674E+03  0.00000000000E+00 0.  1.
         21    1    1    2  504  503 -0.35180700549E+02 -0.50632439361E+02 -0.25201174266E+02  0.66606492110E+02  0.00000000000E+00 0.  1.
         21    1    1    2  505  501  0.80632525045E+02  0.10207418700E+03  0.31365334596E+03  0.33955730765E+03  0.00000000000E+00 0. -1.
          1    1    1    2  501    0  0.37476447306E+02  0.10192587881E+02 -0.73300403485E+02  0.82953734704E+02  0.00000000000E+00 0.  1.
<scales pt_clust_3="38.57637" pt_clust_4="38.57637" pt_clust_5="134.02765" pt_clust_6="38.83778"></scales>
<clustering>
<clus scale="   38.838">  2  6  1 -1</clus>
<clus scale="   38.576">  3  4 -1 -1</clus>
<clus scale="  134.028">  1  5  2 -1</clus>
<clus scale="  134.028">  1  3  2 -1</clus>
</clustering>
</event>
<event>
 6    0  0.4945982E+002  0.1268721E+03  0.7546771E-02  0.1232172E+00
         21   -1    0    0  505  502  0.00000000000E+00  0.00000000000E+00  0.58567926484E+02  0.58567926484E+02  0.00000000000E+00 0.  1.
          2   -1    0    0  504    0 -0.00000000000E+00 -0.00000000000E+00 -0.19417050930E+04  0.19417050930E+04  0.00000000000E+00 0. -1.
         21    1    1    2  503  502 -0.54671001849E+02 -0.12070095179E+03 -0.49570267642E+02  0.14147384790E+03  0.00000000000E+00 0.  1.
         21    1    1    2  504  503 -0.28252628171E+01  0.45373471744E+02 -0.66480988887E+02  0.80538536934E+02  0.00000000000E+00 0.  1.
         21    1    1    2  505  501  0.31630048707E+02  0.94842535874E+02 -0.45850367919E+03  0.46927730653E+03  0.00000000000E+00 0.  1.
          2    1    1    2  501    0  0.25866215959E+02 -0.19515055826E+02 -0.13085822308E+04  0.13089833281E+04  0.00000000000E+00 0. -1.
<scales pt_clust_3="14000.00000" pt_clust_4="43.10730" pt_clust_5="126.87210" pt_clust_6="32.40214"></scales>
<clustering>
<clus scale="   32.402">  2  6  1 -1</clus>
<clus scale="   43.107">  2  4  1 -1</clus>
<clus scale="  126.872">  2  5  1 -1</clus>
<clus scale="  126.872">  1  3  2 -1</clus>
</clustering>
</event>
<event>
 6    0  0.4945982E+002  0.1361183E+03  0.7546771E-02  0.1218650E+00
          1   -1    0    0  504    0 -0.00000000000E+00  0.00000000000E+00  0.44995626051E+03  0.44995626051E+03  0.00000000000E+00 0.  1.
         21   -1    0    0  503  502  0.00000000000E+00 -0.00000000000E+00 -0.26399996576E+03  0.26399996576E+03  0.00000000000E+00 0. -1.
         21    1    1    2  503  505 -0.45516892357E+02  0.28489101400E+02 -0.10116735258E+03  0.11453492749E+03  0.00000000000E+00 0. -1.
         21    1    1    2  504  502 -0.33758486090E+02  0.30068610480E+02 -0.28910374922E+02  0.53661592387E+02  0.00000000000E+00 0. -1.
         21    1    1    2  505  501 -0.11109541238E+02  0.39648012229E+02 -0.10037056708E+03  0.10848796024E+03  0.00000000000E+00 0. -1.
          1    1    1    2  501    0  0.90384919685E+02 -0.98205724109E+02  0.41640458934E+03  0.43727174614E+03  0.00000000000E+00 0.  1.
<scales pt_clust_3="31.23646" pt_clust_4="45.20793" pt_clust_5="31.23646" pt_clust_6="131.36104"></scales>
<clustering>
<clus scale="   31.236">  3  5 -1 -1</clus>
<clus scale="   45.208">  2  4  1 -1</clus>
<clus scale="  131.361">  1  6  2 -1</clus>
<clus scale="   45.208">  2  3  1 -1</clus>
</clustering>
</event>
<event>
 6    0  0.4945982E+002  0.2804892E+03  0.7546771E-02  0.1095422E+00
         21   -1    0    0  503  502  0.00000000000E+00  0.00000000000E+00  0.13676770979E+03  0.13676770979E+03  0.00000000000E+00 0. -1.
          1   -1    0    0  504    0 -0.00000000000E+00 -0.00000000000E+00 -0.18568178133E+04  0.18568178133E+04  0.00000000000E+00 0. -1.
         21    1    1    2  503  505  0.38701459510E+02 -0.95640936645E+02 -0.79652315570E+02  0.13034371142E+03  0.00000000000E+00 0.  1.
         21    1    1    2  504  502 -0.87670329930E+02  0.24949995935E+03 -0.35808806045E+03  0.44515545094E+03  0.00000000000E+00 0. -1.
         21    1    1    2  505  501 -0.11075770127E+02 -0.17448336050E+03 -0.46858682428E+02  0.18100511566E+03  0.00000000000E+00 0. -1.
          1    1    1    2  501    0  0.60044640548E+02  0.20624337795E+02 -0.12354510451E+04  0.12370812451E+04  0.00000000000E+00 0. -1.
<scales pt_clust_3="66.34164" pt_clust_4="267.34146" pt_clust_5="66.34164" pt_clust_6="63.48797"></scales>
<clustering>
<clus scale="   63.488">  2  6  1 -1</clus>
<clus scale="   66.342">  3  5 -1 -1</clus>
<clus scale="  267.341">  2  4  1 -1</clus>
<clus scale="  280.489">  1  3  2 -1</clus>
</clustering>
</event>
<event>
 6    0  0.4945982E+002  0.9182726E+02  0.7546771E-02  0.1298486E+00
         21   -1    0    0  503  502  0.00000000000E+00  0.00000000000E+00  0.22715929848E+02  0.22715929848E+02  0.00000000000E+00 0. -1.
          2   -1    0    0  504    0 -0.00000000000E+00 -0.00000000000E+00 -0.21971759429E+04  0.21971759429E+04  0.00000000000E+00 0.  1.
         21    1    1    2  503  505  0.67683233350E+02  0.43617742080E+02 -0.22940220480E+03  0.24312321787E+03  0.00000000000E+00 0. -1.
         21    1    1    2  504  502 -0.44137219375E+02 -0.12167747114E+03 -0.35056138508E+03  0.37369343830E+03  0.00000000000E+00 0. -1.
         21    1    1    2  505  501  0.19110822975E+02  0.82994475399E+02 -0.46322372357E+03  0.47098781787E+03  0.00000000000E+00 0. -1.
          2    1    1    2  501    0 -0.42656836951E+02 -0.49347463407E+01 -0.11312726996E+04  0.11320873987E+04  0.00000000000E+00 0.  1.
<scales pt_clust_3="72.09954" pt_clust_4="91.82726" pt_clust_5="14000.00000" pt_clust_6="42.94133"></scales>
<clustering>
<clus scale="   42.941">  2  6  1 -1</clus>
<clus scale="   72.100">  1  3  2 -1</clus>
<clus scale="   91.827">  1  4  2 -1</clus>
<clus scale="   72.100">  1  3  2 -1</clus>
</clustering>
</event>
<event>
 6    0  0.4945982E+002  0.1418193E+03  0.7546771E-02  0.1210902E+00
          2   -1    0    0  505    0 -0.00000000000E+00  0.00000000000E+00  0.20122652679E+04  0.20122652679E+04  0.00000000000E+00 0. -1.
         21   -1    0    0  504  502  0.00000000000E+00 -0.00000000000E+00 -0.62359282899E+03  0.62359282899E+03  0.00000000000E+00 0. -1.
         21    1    1    2  503  501  0.59019591651E+02 -0.37019925683E+01 -0.21698023143E+03  0.22489428134E+03  0.00000000000E+00 0. -1.
         21    1    1    2  504  503  0.34606433095E+02 -0.71973116897E+02 -0.31879039132E+03  0.32864121526E+03  0.00000000000E+00 0. -1.
         21    1    1    2  505  502 -0.13699655604E+03  0.67684452681E+02 -0.45045157796E+01  0.15287096573E+03  0.00000000000E+00 0. -1.
          2    1    1    2  501    0  0.43370531292E+02  0.79906567844E+01  0.19289475775E+04  0.19294516346E+04  0.00000000000E+00 0. -1.
<scales pt_clust_3="60.73260" pt_clust_4="60.73260" pt_clust_5="123.50666" pt_clust_6="44.10049"></scales>
<clustering>
<clus scale="   44.100">  1  6  2 -1</clus>
<clus scale="   60.733">  3  4 -1 -1</clus>
<clus scale="  123.507">  1  5  2 -1</clus>
<clus scale="  141.819">  2  3  1 -1</clus>
</clustering>
</event>
<event>
 6    0  0.4945982E+002  0.7942954E+02  0.7546771E-02  0.1330678E+00
         21   -1    0    0  505  502  0.00000000000E+00  0.00000000000E+00  0.34284731041E+02  0.34284731041E+02  0.00000000000E+00 0.  1.
          2   -1    0    0  503    0 -0.00000000000E+00 -0.00000000000E+00 -0.14713563716E+04  0.14713563716E+04  0.00000000000E+00 0.  1.
         21    1    1    2  503  504 -0.22157274053E+01  0.31783605273E+02 -0.17203369859E+03  0.17495913941E+03  0.00000000000E+00 0.  1.
         21    1    1    2  504  502 -0.94990436975E+01 -0.13419451875E+03 -0.25355645894E+03  0.28703532633E+03  0.00000000000E+00 0.  1.
         21    1    1    2  505  501  0.14818899624E+02  0.64000028276E+02 -0.53044671023E+02  0.84435422243E+02  0.00000000000E+00 0. -1.
          2    1    1    2  501    0 -0.31041285212E+01  0.38410885196E+02 -0.95843681199E+03  0.95921121464E+03  0.00000000000E+00 0.  1.
<scales pt_clust_3="31.86074" pt_clust_4="14000.00000" pt_clust_5="79.42954" pt_clust_6="62.07308"></scales>
<clustering>
<clus scale="   31.861">  2  3  1 -1</clus>
<clus scale="   62.073">  2  6  1 -1</clus>
<clus scale="   79.430">  1  5  2 -1</clus>
<clus scale="   79.430">  1  3  2 -1</clus>
</clustering>
</event>
<event>
 6    0  0.4945982E+002  0.9414289E+02  0.7546771E-02  0.1293118E+00
          1   -1    0    0  505    0 -0.00000000000E+00  0.00000000000E+00  0.18085333809E+04  0.18085333809E+04  0.00000000000E+00 0. -1.
         21   -1    0    0  504  502  0.00000000000E+00 -0.00000000000E+00 -0.28271978647E+02  0.28271978647E+02  0.00000000000E+00 0.  1.
         21    1    1    2  503  502  0.42298483343E+02 -0.31054359693E+02  0.10369218428E+03  0.11621361379E+03  0.00000000000E+00 0. -1.
         21    1    1    2  504  501 -0.92952769325E+01 -0.29883718500E+02  0.88216858813E+01  0.32515549303E+02  0.00000000000E+00 0.  1.
         21    1    1    2  505  503  0.66634964683E+02  0.53716686998E+02  0.20809958238E+03  0.22501363773E+03  0.00000000000E+00 0.  1.
          1    1    1    2  501    0 -0.99638171093E+02  0.72213911956E+01  0.14596479498E+04  0.14630625588E+04  0.00000000000E+00 0. -1.
<scales pt_clust_3="57.47668" pt_clust_4="31.29599" pt_clust_5="94.14289" pt_clust_6="14000.00000"></scales>
<clustering>
<clus scale="   31.296">  2  4  1 -1</clus>
<clus scale="   57.477">  2  3  1 -1</clus>
<clus scale="   94.143">  2  5  1 -1</clus>
<clus scale="   31.296">  2  3  1 -1</clus>
</clustering>
</event>
<event>
 6    0  0.4945982E+002  0.2639137E+03  0.7546771E-02  0.1104814E+00
         21   -1    0    0  501  502  0.00000000000E+00  0.00000000000E+00  0.21386422966E+03  0.21386422966E+03  0.00000000000E+00 0.  1.
          1   -1    0    0  504    0 -0.00000000000E+00 -0.00000000000E+00 -0.12873717292E+04  0.12873717292E+04  0.00000000000E+00 0. -1.
         21    1    1    2  503  502  0.56372019806E+02  0.22690319870E+02  0.96052159660E+02  0.11366033877E+03  0.00000000000E+00 0.  1.
         21    1    1    2  504  505  0.25033476794E+02  0.25022601697E+02 -0.61105648744E+02  0.70616611817E+02  0.00000000000E+00 0. -1.
         21    1    1    2  505  503  0.15222712780E+03  0.15080506314E+03 -0.57014877717E+02  0.22173398880E+03  0.00000000000E+00 0.  1.
          1    1    1    2  501    0 -0.23363262440E+03 -0.19851798470E+03 -0.10514391327E+04  0.10952250195E+04  0.00000000000E+00 0. -1.
<scales pt_clust_3="61.00203" pt_clust_4="35.39499" pt_clust_5="263.91372" pt_clust_6="14000.00000"></scales>
<clustering>
<clus scale="   35.395">  2  4  1 -1</clus>
<clus scale="   61.002">  1  3  2 -1</clus>
<clus scale="  263.914">  1  5  2 -1</clus>
<clus scale="   61.002">  1  3  2 -1</clus>
</clustering>
</event>
<event>
 6    0  0.4945982E+002  0.1491886E+03  0.7546771E-02  0.1201474E+00
         21   -1    0    0  504  502  0.00000000000E+00  0.00000000000E+00  0.25562829559E+04  0.25562829559E+04  0.00000000000E+00 0.  1.
         -1   -1    0    0    0  501 -0.00000000000E+00 -0.00000000000E+00 -0.77427959164E+02  0.77427959164E+02  0.00000000000E+00 0. -1.
         21    1    1    2  503  505 -0.18905648487E+02  0.11986755709E+03  0.25637410079E+03  0.28364296985E+03  0.00000000000E+00 0. -1.
         21    1    1    2  504  501  0.29433511586E+02 -0.13529901346E+03  0.22235664605E+04  0.22278734163E+04  0.00000000000E+00 0.  1.
         21    1    1    2  505  502  0.82050541701E+01  0.43614713958E+02  0.46189842957E+02  0.64055193232E+02  0.00000000000E+00 0. -1.
         -1    1    1    2    0  503 -0.18732917269E+02 -0.28183257589E+02 -0.47275407533E+02  0.58139335696E+02  0.00000000000E+00 0. -1.
<scales pt_clust_3="30.28642" pt_clust_4="140.53161" pt_clust_5="30.28642" pt_clust_6="33.84107"></scales>
<clustering>
<clus scale="   30.286">  3  5 -1 -1</clus>
<clus scale="   33.841">  2  6  1 -1</clus>
<clus scale="  140.532">  1  4  2 -1</clus>
<clus scale="  140.532">  1  3  2 -1</clus>
</clustering>
</event>
<event>
 6    0  0.4945982E+002  0.9899595E+02  0.7546771E-02  0.1282422E+00
          2   -1    0    0  505    0 -0.00000000000E+00  0.00000000000E+00  0.11142489443E+04  0.11142489443E+04  0.00000000000E+00 0.  1.
         21   -1    0    0  504  502  0.00000000000E+00 -0.00000000000E+00 -0.68081703649E+02  0.68081703649E+02  0.00000000000E+00 0.  1.
         21    1    1    2  503  501  0.82264971689E+02 -0.56685341601E+02  0.90304704852E+02  0.13466882801E+03  0.00000000000E+00 0. -1.
         21    1    1    2  504  503  0.23456718301E+02 -0.28273015510E+02 -0.10048584679E+02  0.38086153567E+02  0.00000000000E+00 0.  1.
         21    1    1    2  505  502 -0.93305746354E+02  0.46984355936E+02  0.10631490731E+03  0.14905150627E+03  0.00000000000E+00 0.  1.
          2    1    1    2  501    0 -0.12415943636E+02  0.37974001175E+02  0.85959621314E+03  0.86052416007E+03  0.00000000000E+00 0.  1.
<scales pt_clust_3="98.99595" pt_clust_4="36.73664" pt_clust_5="14000.00000" pt_clust_6="39.59236"></scales>
<clustering>
<clus scale="   36.737">  2  4  1 -1</clus>
<clus scale="   39.592">  1  6  2 -1</clus>
<clus scale="   98.996">  1  3  2 -1</clus>
<clus scale="   36.737">  2  3  1 -1</clus>
</clustering>
</event>
<event>
 6    0  0.4945982E+002  0.8796107E+02  0.7546771E-02  0.1307866E+00
          2   -1    0    0  503    0 -0.00000000000E+00  0.00000000000E+00  0.23420515312E+04  0.23420515312E+04  0.00000000000E+00 0. -1.
         21   -1    0    0  504  502  0.00000000000E+00 -0.00000000000E+00 -0.22720420069E+02  0.22720420069E+02  0.00000000000E+00 0. -1.
         21    1    1    2  503  505 -0.54441877299E+02 -0.38720801221E+02  0.34044567999E+03  0.34693872582E+03  0.00000000000E+00 0. -1.
         21    1    1    2  504  501  0.39437143241E+02  0.71678759107E+01  0.19731481719E+03  0.20134498701E+03  0.00000000000E+00 0. -1.
         21    1    1    2  505  502  0.34830909591E+02  0.86939670644E+02  0.11250724565E+03  0.14638845213E+03  0.00000000000E+00 0. -1.
          2    1    1    2  501    0 -0.19826175533E+02 -0.55386745333E+02  0.16690633683E+04  0.16700997863E+04  0.00000000000E+00 0. -1.
<scales pt_clust_3="87.96107" pt_clust_4="40.08325" pt_clust_5="14000.00000" pt_clust_6="58.33322"></scales>
<clustering>
<clus scale="   40.083">  2  4  1 -1</clus>
<clus scale="   58.333">  1  6  2 -1</clus>
<clus scale="   87.961">  1  3  2 -1</clus>
<clus scale="   40.083">  2  3  1 -1</clus>
</clustering>
</event>
<event>
 6    0  0.4945982E+002  0.6404375E+02  0.7546771E-02  0.1381605E+00
          1   -1    0    0  503    0 -0.00000000000E+00  0.00000000000E+00  0.89931409808E+03  0.89931409808E+03  0.00000000000E+00 0. -1.
         21   -1    0    0  505  502  0.00000000000E+00 -0.00000000000E+00 -0.87652455433E+03  0.87652455433E+03  0.00000000000E+00 0. -1.
         21    1    1    2  503  504  0.94232271621E+02  0.81075778648E+02 -0.90130570532E+02  0.15354648366E+03  0.00000000000E+00 0.  1.
         21    1    1    2  504  502 -0.86303947299E+01 -0.41068807373E+02 -0.37656959744E+03  0.37890076849E+03  0.00000000000E+00 0. -1.
         21    1    1    2  505  501 -0.51175613039E+02  0.13368586265E+02 -0.37392313159E+03  0.37764556241E+03  0.00000000000E+00 0. -1.
          1    1    1    2  501    0 -0.34426263852E+02 -0.53375557541E+02  0.86341284330E+03  0.86574583785E+03  0.00000000000E+00 0. -1.
<scales pt_clust_3="64.04375" pt_clust_4="41.96583" pt_clust_5="60.29514" pt_clust_6="14000.00000"></scales>
<clustering>
<clus scale="   41.966">  2  4  1 -1</clus>
<clus scale="   60.295">  2  5  1 -1</clus>
<clus scale="   64.044">  2  3  1 -1</clus>
<clus scale="   41.966">  2  3  1 -1</clus>
</clustering>
</event>
<event>
 6    0  0.4945982E+002  0.9804030E+02  0.7546771E-02  0.1284472E+00
         21   -1    0    0  504  502  0.00000000000E+00  0.00000000000E+00  0.97968454578E+02  0.97968454578E+02  0.00000000000E+00 0. -1.
          2   -1    0    0  505    0 -0.00000000000E+00 -0.00000000000E+00 -0.65779728387E+03  0.65779728387E+03  0.00000000000E+00 0. -1.
         21    1    1    2  503  501  0.10585868137E+02 -0.37771790576E+02 -0.35816232414E+02  0.53118464509E+02  0.00000000000E+00 0. -1.
         21    1    1    2  504  503  0.83486970157E+02 -0.60373671840E+02 -0.24742243244E+03  0.26801663103E+03  0.00000000000E+00 0. -1.
         21    1    1    2  505  502 -0.64145708510E+02  0.73733486727E+02  0.47209498036E+02  0.10853587282E+03  0.00000000000E+00 0. -1.
          2    1    1    2  501    0 -0.29927129784E+02  0.24411975689E+02 -0.32379966247E+03  0.32609477008E+03  0.00000000000E+00 0. -1.
<scales pt_clust_3="35.13360" pt_clust_4="98.04030" pt_clust_5="14000.00000" pt_clust_6="38.62095"></scales>
<clustering>
<clus scale="   38.621">  2  6  1 -1</clus>
<clus scale="   35.134">  2  3  1 -1</clus>
<clus scale="   98.040">  2  4  1 -1</clus>
<clus scale="   98.040">  1  3  2 -1</clus>
</clustering>
</event>
<event>
 6    0  0.4945982E+002  0.1313421E+03  0.7546771E-02  0.1225478E+00
          1   -1    0    0  502    0 -0.00000000000E+00  0.00000000000E+00  0.83207198232E+03  0.83207198232E+03  0.00000000000E+00 0. -1.
         21   -1    0    0  504  502  0.00000000000E+00 -0.00000000000E+00 -0.96769468076E+03  0.96769468076E+03  0.00000000000E+00 0. -1.
         21    1    1    2  503  505  0.63408660235E+02  0.54629831444E+02 -0.66996230909E+02  0.10720807634E+03  0.00000000000E+00 0.  1.
         21    1    1    2  504  503 -0.13797783901E+03 -0.53132312483E+02 -0.84640313419E+03  0.85922010699E+03  0.00000000000E+00 0. -1.
         21    1    1    2  505  501  0.64430592583E+02 -0.49930463430E+02  0.34659375619E+02  0.88575531368E+02  0.00000000000E+00 0. -1.
          1    1    1    2  501    0  0.10138586194E+02  0.48432944469E+02  0.74311729104E+03  0.74476294838E+03  0.00000000000E+00 0. -1.
<scales pt_clust_3="131.34208" pt_clust_4="14000.00000" pt_clust_5="73.30187" pt_clust_6="49.48273"></scales>
<clustering>
<clus scale="   49.483">  1  6  2 -1</clus>
<clus scale="   73.302">  1  5  2 -1</clus>
<clus scale="  131.342">  1  3  2 -1</clus>
<clus scale="  131.342">  2  3  1 -1</clus>
</clustering>
</event>
<event>
 6    0  0.4945982E+002  0.8762641E+02  0.7546771E-02  0.1308704E+00
         21   -1    0    0  504  502  0.00000000000E+00  0.00000000000E+00  0.10449127401E+04  0.10449127401E+04  0.00000000000E+00 0.  1.
         -1   -1    0    0    0  501 -0.00000000000E+00 -0.00000000000E+00 -0.38410282778E+02  0.38410282778E+02  0.00000000000E+00 0. -1.
         21    1    1    2  503  505  0.60804376197E+02  0.30812600832E+02  0.15788067649E+03  0.17196771948E+03  0.00000000000E+00 0.  1.
         21    1    1    2  504  501 -0.69957478366E+02  0.81307575926E+02  0.49672571922E+03  0.50817458694E+03  0.00000000000E+00 0.  1.
         21    1    1    2  505  502 -0.39543889749E+02 -0.42912150648E+02  0.29615336166E+03  0.30184761969E+03  0.00000000000E+00 0.  1.
         -1    1    1    2    0  503  0.48696991918E+02 -0.69208026110E+02  0.55742699936E+02  0.10133309675E+03  0.00000000000E+00 0. -1.
<scales pt_clust_3="56.25914" pt_clust_4="14000.00000" pt_clust_5="58.35385" pt_clust_6="87.62641"></scales>
<clustering>
<clus scale="   58.354">  1  5  2 -1</clus>
<clus scale="   56.259">  1  3  2 -1</clus>
<clus scale="   87.626">  2  6  1 -1</clus>
<clus scale="   58.354">  1  3  2 -1</clus>
</clustering>
</event>
<event>
 6    0  0.4945982E+002  0.1177128E+03  0.7546771E-02  0.1246919E+00
         21   -1    0    0  503  502  0.00000000000E+00  0.00000000000E+00  0.24825115237E+04  0.24825115237E+04  0.00000000000E+00 0. -1.
          2   -1    0    0  504    0 -0.00000000000E+00 -0.00000000000E+00 -0.12478065300E+04  0.12478065300E+04  0.00000000000E+00 0.  1.
         21    1    1    2  503  501 -0.10942741501E+03 -0.47236447480E+02  0.16351390733E+04  0.16394771820E+04  0.00000000000E+00 0. -1.
         21    1    1    2  504  505  0.97338063522E+02  0.53306153213E+02  0.34716000307E+03  0.36446716218E+03  0.00000000000E+00 0. -1.
         21    1    1    2  505  502 -0.20974044235E+02  0.60046453465E+02  0.48621227442E+03  0.49035483367E+03  0.00000000000E+00 0.  1.
          2    1    1    2  501    0  0.33063395721E+02 -0.66116159197E+02 -0.12338063571E+04  0.12360188759E+04  0.00000000000E+00 0.  1.
<scales pt_clust_3="14000.00000" pt_clust_4="117.71281" pt_clust_5="63.60414" pt_clust_6="73.88749"></scales>
<clustering>
<clus scale="   63.604">  1  5  2 -1</clus>
<clus scale="   73.887">  2  6  1 -1</clus>
<clus scale="  117.713">  2  4  1 -1</clus>
<clus scale="   63.604">  1  3  2 -1</clus>
</clustering>
</event>
<event>
 6    0  0.4945982E+002  0.1272626E+03  0.7546771E-02  0.1231575E+00
          1   -1    0    0  503    0 -0.00000000000E+00  0.00000000000E+00  0.17507088774E+03  0.17507088774E+03  0.00000000000E+00 0. -1.
         21   -1    0    0  505  502  0.00000000000E+00 -0.00000000000E+00 -0.32579134545E+03  0.32579134545E+03  0.00000000000E+00 0. -1.
         21    1    1    2  503  502  0.53171114889E+02  0.10931251770E+02  0.44474648049E+01  0.54465031598E+02  0.00000000000E+00 0. -1.
         21    1    1    2  504  501 -0.75365647936E+02  0.14551001960E+03 -0.14595717705E+02  0.16451802840E+03  0.00000000000E+00 0. -1.
         21    1    1    2  505  504  0.55948534964E+01 -0.52301402022E+02 -0.16538222156E+03  0.17354543569E+03  0.00000000000E+00 0. -1.
          1    1    1    2  501    0  0.16599679551E+02 -0.10413986935E+03  0.24810016753E+02  0.10833373750E+03  0.00000000000E+00 0. -1.
<scales pt_clust_3="54.12694" pt_clust_4="127.26259" pt_clust_5="52.59980" pt_clust_6="14000.00000"></scales>
<clustering>
<clus scale="   52.600">  2  5  1 -1</clus>
<clus scale="   54.127">  1  3  2 -1</clus>
<clus scale="  127.263">  2  4  1 -1</clus>
<clus scale="   52.600">  2  3  1 -1</clus>
</clustering>
</event>
<event>
 6    0  0.4945982E+002  0.1195528E+03  0.7546771E-02  0.1243837E+00
          1   -1    0    0  503    0 -0.00000000000E+00  0.00000000000E+00  0.22534720040E+04  0.22534720040E+04  0.00000000000E+00 0.  1.
         21   -1    0    0  505  502  0.00000000000E+00 -0.00000000000E+00 -0.23118014678E+03  0.23118014678E+03  0.00000000000E+00 0.  1.
         21    1    1    2  503  504  0.19415818661E+02  0.99539129930E+02 -0.10939891487E+03  0.14917484699E+03  0.00000000000E+00 0.  1.
         21    1    1    2  504  502  0.54117883158E+02  0.91252353952E+01  0.24954162240E+01  0.54938532021E+02  0.00000000000E+00 0.  1.
         21    1    1    2  505  501  0.17236321530E+02 -0.30092217318E+02 -0.69973437762E+02  0.78095546065E+02  0.00000000000E+00 0.  1.
          1    1    1    2  501    0 -0.90770023349E+02 -0.78572148007E+02  0.21991687936E+04  0.22024432257E+04  0.00000000000E+00 0.  1.
<scales pt_clust_3="119.55275" pt_clust_4="57.14153" pt_clust_5="34.67899" pt_clust_6="14000.00000"></scales>
<clustering>
<clus scale="   34.679">  2  5  1 -1</clus>
<clus scale="   57.142">  2  4  1 -1</clus>
<clus scale="  119.553">  2  3  1 -1</clus>
<clus scale="   34.679">  2  3  1 -1</clus>
</clustering>
</event>
<event>
 6    0  0.4945982E+002  0.1008733E+03  0.7546771E-02  0.1278470E+00
          2   -1    0    0  505    0 -0.00000000000E+00  0.00000000000E+00  0.19949381910E+03  0.19949381910E+03  0.00000000000E+00 0. -1.
         21   -1    0    0  503  502  0.00000000000E+00 -0.00000000000E+00 -0.14871090563E+04  0.14871090563E+04  0.00000000000E+00 0.  1.
         21    1    1    2  503  501  0.42874994807E+02 -0.33994101358E+01 -0.65031569587E+02  0.77967468934E+02  0.00000000000E+00 0. -1.
         21    1    1    2  504  502 -0.12790656816E+01 -0.89161329947E+02 -0.13714856938E+04  0.13743814561E+04  0.00000000000E+00 0.  1.
         21    1    1    2  505  504  0.41062552752E+02  0.18531326160E+02 -0.41151203252E+01  0.45238009495E+02  0.00000000000E+00 0.  1.
          2    1    1    2  501    0 -0.82658481878E+02  0.74029413923E+02  0.15301714651E+03  0.18901594080E+03  0.00000000000E+00 0. -1.
<scales pt_clust_3="43.00955" pt_clust_4="100.87329" pt_clust_5="45.70873" pt_clust_6="14000.00000"></scales>
<clustering>
<clus scale="   43.010">  2  3  1 -1</clus>
<clus scale="   45.709">  1  5  2 -1</clus>
<clus scale="  100.873">  2  4  1 -1</clus>
<clus scale="   43.010">  2  3  1 -1</clus>
</clustering>
</event>
<event>
 6    0  0.4945982E+002  0.1432718E+03  0.7546771E-02  0.1208993E+00
          1   -1    0    0  504    0 -0.00000000000E+00  0.00000000000E+00  0.27214121090E+03  0.27214121090E+03  0.00000000000E+00 0. -1.
         21   -1    0    0  505  502  0.00000000000E+00 -0.00000000000E+00 -0.26791426954E+03  0.26791426954E+03  0.00000000000E+00 0.  1.
         21    1    1    2  503  501 -0.82533487995E+02 -0.14261024979E+02 -0.73566305054E+02  0.11147714884E+03  0.00000000000E+00 0.  1.
         21    1    1    2  504  502  0.14600247724E+03  0.56598183027E+02 -0.86287793984E+02  0.17878943222E+03  0.00000000000E+00 0.  1.
         21    1    1    2  505  503 -0.25909172506E+02 -0.37035368761E+02 -0.28548895580E+02  0.53459734362E+02  0.00000000000E+00 0.  1.
          1    1    1    2  501    0 -0.37559816737E+02 -0.53017892867E+01  0.19262993598E+03  0.19632916502E+03  0.00000000000E+00 0. -1.
<scales pt_clust_3="35.87940" pt_clust_4="134.68957" pt_clust_5="35.87940" pt_clust_6="37.93216"></scales>
<clustering>
<clus scale="   35.879">  3  5 -1 -1</clus>
<clus scale="   37.932">  1  6  2 -1</clus>
<clus scale="  134.690">  1  4  2 -1</clus>
<clus scale="  143.272">  2  3  1 -1</clus>
</clustering>
</event>
<event>
 6    0  0.4945982E+002  0.1282936E+03  0.7546771E-02  0.1230010E+00
         -4   -1    0    0    0  501 -0.00000000000E+00  0.00000000000E+00  0.24288894915E+03  0.24288894915E+03  0.00000000000E+00 0. -1.
         21   -1    0    0  505  502  0.00000000000E+00 -0.00000000000E+00 -0.21812263296E+03  0.21812263296E+03  0.00000000000E+00 0. -1.
         21    1    1    2  503  502 -0.48901998552E+02  0.28074636968E+02 -0.86908628064E+02  0.10359874678E+03  0.00000000000E+00 0. -1.
         21    1    1    2  504  503 -0.45750617172E+02  0.48807915529E+02 -0.42924176466E+02  0.79484693590E+02  0.00000000000E+00 0. -1.
         21    1    1    2  505  501 -0.39935534194E+02 -0.64136231983E+02  0.41567798689E+01  0.75667575376E+02  0.00000000000E+00 0. -1.
         -4    1    1    2    0  504  0.13458814992E+03 -0.12746320513E+02  0.15044234085E+03  0.20226056636E+03  0.00000000000E+00 0. -1.
<scales pt_clust_3="38.87496" pt_clust_4="38.87496" pt_clust_5="75.55331" pt_clust_6="121.10456"></scales>
<clustering>
<clus scale="   38.875">  3  4 -1 -1</clus>
<clus scale="   75.553">  1  5  2 -1</clus>
<clus scale="  121.105">  1  6  2 -1</clus>
<clus scale="  128.294">  2  3  1 -1</clus>
</clustering>
</event>
<event>
 6    0  0.4945982E+002  0.9337356E+02  0.7546771E-02  0.1294882E+00
          2   -1    0    0  505    0 -0.00000000000E+00  0.00000000000E+00  0.25566058755E+04  0.25566058755E+04  0.00000000000E+00 0.  1.
         21   -1    0    0  504  502  0.00000000000E+00 -0.00000000000E+00 -0.41882346206E+02  0.41882346206E+02  0.00000000000E+00 0.  1.
         21    1    1    2  503  502  0.52176154584E+02  0.42686888430E+02  0.36432525628E+02  0.76628000591E+02  0.00000000000E+00 0.  1.
         21    1    1    2  504  501 -0.16179847628E+02 -0.31727465360E+02  0.65091147253E+02  0.74197553721E+02  0.00000000000E+00 0. -1.
         21    1    1    2  505  503  0.59282858446E+02 -0.14561396773E+02  0.40973374388E+02  0.73520806512E+02  0.00000000000E+00 0.  1.
          2    1    1    2  501    0 -0.95279165401E+02  0.36019737025E+01  0.23722264820E+04  0.23741418609E+04  0.00000000000E+00 0.  1.
<scales pt_clust_3="50.44630" pt_clust_4="35.61488" pt_clust_5="93.37356" pt_clust_6="14000.00000"></scales>
<clustering>
<clus scale="   35.615">  2  4  1 -1</clus>
<clus scale="   50.446">  2  3  1 -1</clus>
<clus scale="   93.374">  2  5  1 -1</clus>
<clus scale="   35.615">  2  3  1 -1</clus>
</clustering>
</event>
<event>
 6    0  0.4945982E+002  0.1187278E+03  0.7546771E-02  0.1245211E+00
          2   -1    0    0  504    0 -0.00000000000E+00  0.00000000000E+00  0.14012325478E+04  0.14012325478E+04  0.00000000000E+00 0.  1.
         21   -1    0    0  501  502  0.00000000000E+00 -0.00000000000E+00 -0.56935575178E+02  0.56935575178E+02  0.00000000000E+00 0.  1.
         21    1    1    2  503  502  0.35114993233E+02 -0.56602179275E+02 -0.19079441577E+02  0.69288487784E+02  0.00000000000E+00 0.  1.
         21    1    1    2  504  505 -0.93273459014E+01 -0.38614220273E+02  0.84435302901E+02  0.93313331120E+02  0.00000000000E+00 0.  1.
         21    1    1    2  505  503  0.22483867761E+02 -0.27710334119E+02  0.62439716259E+02  0.71917349040E+02  0.00000000000E+00 0.  1.
          2    1    1    2  501    0 -0.48271515093E+02  0.12292673367E+03  0.12165013950E+04  0.12236489550E+04  0.00000000000E+00 0.  1.
<scales pt_clust_3="66.60983" pt_clust_4="32.23672" pt_clust_5="32.23672" pt_clust_6="113.75164"></scales>
<clustering>
<clus scale="   32.237">  4  5 -1 -1</clus>
<clus scale="   66.610">  2  3  1 -1</clus>
<clus scale="  113.752">  1  6  2 -1</clus>
<clus scale="   66.610">  2  3  1 -1</clus>
</clustering>
</event>
<event>
 6    0  0.4945982E+002  0.1353370E+03  0.7546771E-02  0.1219745E+00
         21   -1    0    0  505  502  0.00000000000E+00  0.00000000000E+00  0.72826256198E+02  0.72826256198E+02  0.00000000000E+00 0. -1.
         -3   -1    0    0    0  501 -0.00000000000E+00 -0.00000000000E+00 -0.34765038715E+04  0.34765038715E+04  0.00000000000E+00 0.  1.
         21    1    1    2  503  501  0.88640937039E+02 -0.79192442872E+02 -0.23910789557E+03  0.26702292870E+03  0.00000000000E+00 0. -1.
         21    1    1    2  504  502 -0.14263477532E+03  0.88083628903E+02 -0.35797990349E+03  0.39528852262E+03  0.00000000000E+00 0. -1.
         21    1    1    2  505  503  0.47965466756E+02 -0.54244401721E+02  0.72821378018E+01  0.72774794058E+02  0.00000000000E+00 0. -1.
         -3    1    1    2    0  504  0.60283715224E+01  0.45353215690E+02 -0.28138719540E+04  0.28142438823E+04  0.00000000000E+00 0.  1.
<scales pt_clust_3="14000.00000" pt_clust_4="135.33697" pt_clust_5="70.94801" pt_clust_6="45.75211"></scales>
<clustering>
<clus scale="   45.752">  2  6  1 -1</clus>
<clus scale="   70.948">  1  5  2 -1</clus>
<clus scale="  135.337">  1  4  2 -1</clus>
<clus scale="   70.948">  1  3  2 -1</clus>
</clustering>
</event>
<event>
 6    0  0.4945982E+002  0.1627214E+03  0.7546771E-02  0.1185658E+00
         -2   -1    0    0    0  501 -0.00000000000E+00  0.00000000000E+00  0.72529975391E+03  0.72529975391E+03  0.00000000000E+00 0.  1.
         21   -1    0    0  503  502  0.00000000000E+00 -0.00000000000E+00 -0.17306306818E+03  0.17306306818E+03  0.00000000000E+00 0. -1.
         21    1    1    2  503  505 -0.49564578551E+01 -0.60608619212E+02 -0.41921601947E+02  0.73860624876E+02  0.00000000000E+00 0. -1.
         21    1    1    2  504  501 -0.49123484846E+01  0.80017406810E+02  0.94726913419E+02  0.12409715825E+03  0.00000000000E+00 0. -1.
         21    1    1    2  505  504  0.12994880369E+03  0.13528868383E+03  0.27678666804E+02  0.18962022084E+03  0.00000000000E+00 0. -1.
         -2    1    1    2    0  502 -0.12007999735E+03 -0.15469747143E+03  0.47175270745E+03  0.51078481812E+03  0.00000000000E+00 0.  1.
<scales pt_clust_3="60.81095" pt_clust_4="72.50174" pt_clust_5="14000.00000" pt_clust_6="162.72144"></scales>
<clustering>
<clus scale="   60.811">  2  3  1 -1</clus>
<clus scale="   72.502">  1  4  2 -1</clus>
<clus scale="  162.721">  1  6  2 -1</clus>
<clus scale="   60.811">  2  3  1 -1</clus>
</clustering>
</event>
<event>
 6    0  0.4945982E+002  0.7578417E+02  0.7546771E-02  0.1341460E+00
         -1   -1    0    0    0  501 -0.00000000000E+00  0.00000000000E+00  0.84684061347E+02  0.84684061347E+02  0.00000000000E+00 0.  1.
         21   -1    0    0  504  502  0.00000000000E+00 -0.00000000000E+00 -0.18935214414E+04  0.18935214414E+04  0.00000000000E+00 0.  1.
         21    1    1    2  503  502 -0.82359140001E+02 -0.28895017758E+02 -0.69628138860E+03  0.70173051958E+03  0.00000000000E+00 0.  1.
         21    1    1    2  504  505  0.33918659356E+02  0.70279900252E+01 -0.18672726893E+03  0.18991298286E+03  0.00000000000E+00 0.  1.
         21    1    1    2  505  501 -0.12523142216E+02  0.68063715596E+02 -0.98650434048E+03  0.98892887118E+03  0.00000000000E+00 0.  1.
         -1    1    1    2    0  503  0.60963622861E+02 -0.46196687864E+02  0.60675617980E+02  0.97633129107E+02  0.00000000000E+00 0.  1.
<scales pt_clust_3="75.78417" pt_clust_4="34.63911" pt_clust_5="72.48550" pt_clust_6="14000.00000"></scales>
<clustering>
<clus scale="   34.639">  2  4  1 -1</clus>
<clus scale="   72.486">  2  5  1 -1</clus>
<clus scale="   75.784">  2  3  1 -1</clus>
<clus scale="   34.639">  2  3  1 -1</clus>
</clustering>
</event>
<event>
 6    0  0.4945982E+002  0.1110332E+03  0.7546771E-02  0.1258668E+00
         21   -1    0    0  501  502  0.00000000000E+00  0.00000000000E+00  0.90135188931E+03  0.90135188931E+03  0.00000000000E+00 0. -1.
          1   -1    0    0  503    0 -0.00000000000E+00 -0.00000000000E+00 -0.28939776472E+03  0.28939776472E+03  0.00000000000E+00 0.  1.
         21    1    1    2  503  505  0.54749495496E+02 -0.88730280961E+01  0.24713053783E+02  0.60720448878E+02  0.00000000000E+00 0. -1.
         21    1    1    2  504  502 -0.11012200084E+03 -0.24175884935E+02  0.83725534448E+03  0.84481231072E+03  0.00000000000E+00 0. -1.
         21    1    1    2  505  504  0.49615062218E+02 -0.29308861569E+02 -0.52292338063E+02  0.77814859670E+02  0.00000000000E+00 0.  1.
          1    1    1    2  501    0  0.57574431226E+01  0.62357774601E+02 -0.19772193561E+03  0.20740203477E+03  0.00000000000E+00 0.  1.
<scales pt_clust_3="55.46384" pt_clust_4="14000.00000" pt_clust_5="70.17363" pt_clust_6="111.03317"></scales>
<clustering>
<clus scale="   55.464">  2  3  1 -1</clus>
<clus scale="   70.174">  2  5  1 -1</clus>
<clus scale="  111.033">  2  6  1 -1</clus>
<clus scale="  111.033">  1  3  2 -1</clus>
</clustering>
</event>
<event>
 6    0  0.4945982E+002  0.1604408E+03  0.7546771E-02  0.1188200E+00
         21   -1    0    0  504  502  0.00000000000E+00  0.00000000000E+00  0.80769489279E+03  0.80769489279E+03  0.00000000000E+00 0.  1.
          2   -1    0    0  503    0 -0.00000000000E+00 -0.00000000000E+00 -0.34628308005E+03  0.34628308005E+03  0.00000000000E+00 0. -1.
         21    1    1    2  503  502 -0.38250251999E+02  0.13885015754E+02  0.21402824045E+03  0.21786225729E+03  0.00000000000E+00 0.  1.
         21    1    1    2  504  505  0.36549549787E+02 -0.38892412636E+02  0.20371306076E+03  0.21058846235E+03  0.00000000000E+00 0.  1.
         21    1    1    2  505  501  0.15493226762E+03 -0.23557196043E+02  0.34783093296E+03  0.38150400648E+03  0.00000000000E+00 0.  1.
          2    1    1    2  501    0 -0.15323156541E+03  0.48564592925E+02 -0.30416042143E+03  0.34402324673E+03  0.00000000000E+00 0. -1.
<scales pt_clust_3="40.69245" pt_clust_4="41.16457" pt_clust_5="14000.00000" pt_clust_6="160.44081"></scales>
<clustering>
<clus scale="   40.692">  1  3  2 -1</clus>
<clus scale="   41.165">  1  4  2 -1</clus>
<clus scale="  160.441">  2  6  1 -1</clus>
<clus scale="   40.692">  1  3  2 -1</clus>
</clustering>
</event>
<event>
 6    0  0.4945982E+002  0.9498198E+02  0.7546771E-02  0.1291217E+00
         21   -1    0    0  503  502  0.00000000000E+00  0.00000000000E+00  0.93385581634E+03  0.93385581634E+03  0.00000000000E+00 0. -1.
          4   -1    0    0  505    0 -0.00000000000E+00 -0.00000000000E+00 -0.25556341042E+03  0.25556341042E+03  0.00000000000E+00 0.  1.
         21    1    1    2  503  501  0.59788426909E+02 -0.85742772268E+02  0.47231679119E+03  0.48374541882E+03  0.00000000000E+00 0. -1.
         21    1    1    2  504  502  0.81935506539E+01  0.35814229659E+02  0.23292745603E+03  0.23580710992E+03  0.00000000000E+00 0. -1.
         21    1    1    2  505  504 -0.56175915785E+02  0.88720520984E+02  0.20716764536E+03  0.23226170077E+03  0.00000000000E+00 0. -1.
          4    1    1    2  501    0 -0.11806061778E+02 -0.38791978375E+02 -0.23411948666E+03  0.23760499724E+03  0.00000000000E+00 0.  1.
<scales pt_clust_3="14000.00000" pt_clust_4="36.73953" pt_clust_5="94.98198" pt_clust_6="40.45744"></scales>
<clustering>
<clus scale="   36.740">  1  4  2 -1</clus>
<clus scale="   40.457">  2  6  1 -1</clus>
<clus scale="   94.982">  2  5  1 -1</clus>
<clus scale="   36.740">  1  3  2 -1</clus>
</clustering>
</event>
<event>
 6    0  0.4945982E+002  0.1028978E+03  0.7546771E-02  0.1274318E+00
         21   -1    0    0  503  502  0.00000000000E+00  0.00000000000E+00  0.34891169626E+03  0.34891169626E+03  0.00000000000E+00 0.  1.
          1   -1    0    0  504    0 -0.00000000000E+00 -0.00000000000E+00 -0.59619335186E+03  0.59619335186E+03  0.00000000000E+00 0.  1.
         21    1    1    2  503  505 -0.47173658308E+02 -0.13958501275E+02  0.15367674077E+03  0.16135902346E+03  0.00000000000E+00 0.  1.
         21    1    1    2  504  502  0.35408656971E+02  0.65450807853E+01  0.36014846929E+02  0.50928187385E+02  0.00000000000E+00 0.  1.
         21    1    1    2  505  501 -0.80821421978E+02 -0.11928619705E+02  0.13243531558E+03  0.15560689905E+03  0.00000000000E+00 0.  1.
          1    1    1    2  501    0  0.92586423315E+02  0.19342040195E+02 -0.56940855888E+03  0.57721093824E+03  0.00000000000E+00 0.  1.
<scales pt_clust_3="30.59437" pt_clust_4="36.00849" pt_clust_5="30.59437" pt_clust_6="95.04499"></scales>
<clustering>
<clus scale="   30.594">  3  5 -1 -1</clus>
<clus scale="   36.008">  1  4  2 -1</clus>
<clus scale="   95.045">  2  6  1 -1</clus>
<clus scale="   36.008">  1  3  2 -1</clus>
</clustering>
</event>
<event>
 6    0  0.4945982E+002  0.5714604E+02  0.7546771E-02  0.1410214E+00
          3   -1    0    0  504    0 -0.00000000000E+00  0.00000000000E+00  0.10722316385E+04  0.10722316385E+04  0.00000000000E+00 0. -1.
         21   -1    0    0  505  502  0.00000000000E+00 -0.00000000000E+00 -0.91966667918E+03  0.91966667918E+03  0.00000000000E+00 0.  1.
         21    1    1    2  503  502  0.55052721547E+02 -0.39877083127E+02 -0.44916381429E+03  0.45427867656E+03  0.00000000000E+00 0.  1.
         21    1    1    2  504  503 -0.77019834574E+02 -0.39052105042E+02 -0.41966018307E+03  0.42845278746E+03  0.00000000000E+00 0.  1.
         21    1    1    2  505  501 -0.26475895716E+02  0.48715061319E+02 -0.25284111553E+02  0.60937808874E+02  0.00000000000E+00 0.  1.
          3    1    1    2  501    0  0.48443008743E+02  0.30214126850E+02  0.10466730683E+04  0.10482290448E+04  0.00000000000E+00 0. -1.
<scales pt_clust_3="43.96484" pt_clust_4="57.14604" pt_clust_5="55.44484" pt_clust_6="14000.00000"></scales>
<clustering>
<clus scale="   55.445">  2  5  1 -1</clus>
<clus scale="   43.965">  2  3  1 -1</clus>
<clus scale="   57.146">  2  4  1 -1</clus>
<clus scale="   55.445">  2  3  1 -1</clus>
</clustering>
</event>
<event>
 6    0  0.4945982E+002  0.1495849E+03  0.7546771E-02  0.1200984E+00
         21   -1    0    0  504  502  0.00000000000E+00  0.00000000000E+00  0.34240144030E+03  0.34240144030E+03  0.00000000000E+00 0. -1.
         -3   -1    0    0    0  501 -0.00000000000E+00 -0.00000000000E+00 -0.11233022510E+04  0.11233022510E+04  0.00000000000E+00 0. -1.
         21    1    1    2  503  502  0.10049287817E+03  0.11501242082E+03  0.30549116646E+03  0.34154286450E+03  0.00000000000E+00 0. -1.
         21    1    1    2  504  505  0.26953853855E+02 -0.91730787555E+02 -0.19321785843E+03  0.21557872909E+03  0.00000000000E+00 0. -1.
         21    1    1    2  505  501 -0.56826193370E+02 -0.43578872717E+02 -0.21890295838E+03  0.23031899528E+03  0.00000000000E+00 0. -1.
         -3    1    1    2    0  503 -0.70620538656E+02  0.20297239453E+02 -0.67427116035E+03  0.67826310241E+03  0.00000000000E+00 0. -1.
<scales pt_clust_3="14000.00000" pt_clust_4="102.60600" pt_clust_5="71.61239" pt_clust_6="149.58494"></scales>
<clustering>
<clus scale="   71.612">  2  5  1 -1</clus>
<clus scale="  102.606">  2  4  1 -1</clus>
<clus scale="  149.585">  2  6  1 -1</clus>
<clus scale="  149.585">  1  3  2 -1</clus>
</clustering>
</event>
<event>
 6    0  0.4945982E+002  0.1043200E+03  0.7546771E-02  0.1271465E+00
          1   -1    0    0  503    0 -0.00000000000E+00  0.00000000000E+00  0.15869297654E+04  0.15869297654E+04  0.00000000000E+00 0.  1.
         21   -1    0    0  504  502  0.00000000000E+00 -0.00000000000E+00 -0.27450553477E+02  0.27450553477E+02  0.00000000000E+00 0. -1.
         21    1    1    2  503  505  0.11810285235E+03  0.49418408331E+02  0.25796059422E+03  0.28798286579E+03  0.00000000000E+00 0. -1.
         21    1    1    2  504  501 -0.39027767928E+02 -0.36047062999E+02  0.51244784311E+03  0.51519447720E+03  0.00000000000E+00 0.  1.
         21    1    1    2  505  502 -0.37793549540E+02 -0.65911550762E+00  0.23700971583E+02  0.44615276242E+02  0.00000000000E+00 0.  1.
          1    1    1    2  501    0 -0.41281534882E+02 -0.12712229825E+02  0.76536980298E+03  0.76658769963E+03  0.00000000000E+00 0.  1.
<scales pt_clust_3="97.78595" pt_clust_4="32.76669" pt_clust_5="37.79930" pt_clust_6="32.76669"></scales>
<clustering>
<clus scale="   32.767">  4  6 -1 -1</clus>
<clus scale="   37.799">  2  5  1 -1</clus>
<clus scale="   97.786">  2  3  1 -1</clus>
<clus scale="   37.799">  2  3  1 -1</clus>
</clustering>
</event>
<event>
 6    0  0.4945982E+002  0.1164139E+03  0.7546771E-02  0.1249133E+00
         21   -1    0    0  504  502  0.00000000000E+00  0.00000000000E+00  0.73994295315E+03  0.73994295315E+03  0.00000000000E+00 0. -1.
          3   -1    0    0  503    0 -0.00000000000E+00 -0.00000000000E+00 -0.14387712224E+03  0.14387712224E+03  0.00000000000E+00 0. -1.
         21    1    1    2  503  505  0.85687852595E+02 -0.85623697647E+02  0.40048500403E+03  0.41840418752E+03  0.00000000000E+00 0. -1.
         21    1    1    2  504  501 -0.18033870458E+02  0.42293885029E+02  0.90077997603E+02  0.10113376709E+03  0.00000000000E+00 0. -1.
         21    1    1    2  505  502  0.49573540415E+02  0.31428817996E+02  0.20301864486E+03  0.21133356731E+03  0.00000000000E+00 0. -1.
          3    1    1    2  501    0 -0.11722752255E+03  0.11900994622E+02 -0.97515815586E+02  0.15294855346E+03  0.00000000000E+00 0. -1.
<scales pt_clust_3="14000.00000" pt_clust_4="45.97818" pt_clust_5="62.79929" pt_clust_6="116.41391"></scales>
<clustering>
<clus scale="   45.978">  1  4  2 -1</clus>
<clus scale="   62.799">  1  5  2 -1</clus>
<clus scale="  116.414">  2  6  1 -1</clus>
<clus scale="   45.978">  1  3  2 -1</clus>
</clustering>
</event>
<event>
 6    0  0.4945982E+002  0.8887274E+02  0.7546771E-02  0.1305605E+00
         21   -1    0    0  501  502  0.00000000000E+00  0.00000000000E+00  0.15082609854E+03  0.15082609854E+03  0.00000000000E+00 0. -1.
          2   -1    0    0  505    0 -0.00000000000E+00 -0.00000000000E+00 -0.70267324348E+03  0.70267324348E+03  0.00000000000E+00 0. -1.
         21    1    1    2  503  502 -0.24342898079E+02 -0.33324995282E+02  0.74821954450E+02  0.85448562687E+02  0.00000000000E+00 0. -1.
         21    1    1    2  504  503  0.10704689532E+03  0.61463256984E+02  0.33683956552E+01  0.12348326140E+03  0.00000000000E+00 0. -1.
         21    1    1    2  505  504 -0.88360378328E+01 -0.47443556271E+02 -0.12871594870E+03  0.13746549402E+03  0.00000000000E+00 0.  1.
          2    1    1    2  501    0 -0.73867959405E+02  0.19305294569E+02 -0.50132154635E+03  0.50710202392E+03  0.00000000000E+00 0. -1.
<scales pt_clust_3="41.26902" pt_clust_4="14000.00000" pt_clust_5="50.57472" pt_clust_6="88.87274"></scales>
<clustering>
<clus scale="   41.269">  1  3  2 -1</clus>
<clus scale="   50.575">  2  5  1 -1</clus>
<clus scale="   88.873">  2  6  1 -1</clus>
<clus scale="   41.269">  1  3  2 -1</clus>
</clustering>
</event>
<event>
 6    0  0.4945982E+002  0.1399126E+03  0.7546771E-02  0.1213447E+00
          2   -1    0    0  503    0 -0.00000000000E+00  0.00000000000E+00  0.16910686183E+04  0.16910686183E+04  0.00000000000E+00 0.  1.
         21   -1    0    0  505  502  0.00000000000E+00 -0.00000000000E+00 -0.15989218802E+03  0.15989218802E+03  0.00000000000E+00 0. -1.
         21    1    1    2  503  504  0.41002947296E+02  0.12148766344E+03  0.19506492374E+03  0.23343268522E+03  0.00000000000E+00 0. -1.
         21    1    1    2  504  502 -0.53220051940E+02  0.76575912046E+02  0.26718568831E+02  0.97005804747E+02  0.00000000000E+00 0. -1.
         21    1    1    2  505  501  0.93838233128E+01 -0.54718286646E+02 -0.94352575609E+02  0.10947399489E+03  0.00000000000E+00 0. -1.
          2    1    1    2  501    0  0.28332813313E+01 -0.14334528884E+03  0.14037455133E+04  0.14110483215E+04  0.00000000000E+00 0.  1.
<scales pt_clust_3="139.91256" pt_clust_4="64.37092" pt_clust_5="55.51709" pt_clust_6="14000.00000"></scales>
<clustering>
<clus scale="   55.517">  2  5  1 -1</clus>
<clus scale="   64.371">  2  4  1 -1</clus>
<clus scale="  139.913">  2  3  1 -1</clus>
<clus scale="   55.517">  2  3  1 -1</clus>
</clustering>
</event>
<event>
 6    0  0.4945982E+002  0.1461795E+03  0.7546771E-02  0.1205248E+00
         21   -1    0    0  505  502  0.00000000000E+00  0.00000000000E+00  0.87245321141E+03  0.87245321141E+03  0.00000000000E+00 0. -1.
         -2   -1    0    0    0  501 -0.00000000000E+00 -0.00000000000E+00 -0.95569082580E+03  0.95569082580E+03  0.00000000000E+00 0. -1.
         21    1    1    2  503  501  0.37088128083E+02  0.18029993604E+02 -0.25582077728E+02  0.48528884337E+02  0.00000000000E+00 0.  1.
         21    1    1    2  504  503  0.38754407602E+02  0.10282098141E+03  0.48678876806E+02  0.12018190951E+03  0.00000000000E+00 0. -1.
         21    1    1    2  505  504 -0.44307261074E+02 -0.14746983511E+03  0.76842490191E+03  0.78370103709E+03  0.00000000000E+00 0. -1.
         -2    1    1    2    0  502 -0.31535274611E+02  0.26618860095E+02 -0.87475931538E+03  0.87573220628E+03  0.00000000000E+00 0. -1.
<scales pt_clust_3="41.23845" pt_clust_4="146.17950" pt_clust_5="14000.00000" pt_clust_6="43.96188"></scales>
<clustering>
<clus scale="   41.238">  2  3  1 -1</clus>
<clus scale="   43.962">  2  6  1 -1</clus>
<clus scale="  146.180">  2  4  1 -1</clus>
<clus scale="  146.180">  1  3  2 -1</clus>
</clustering>
</event>
<event>
 6    0  0.4945982E+002  0.2179082E+03  0.7546771E-02  0.1135452E+00
          1   -1    0    0  503    0 -0.00000000000E+00  0.00000000000E+00  0.52733328728E+03  0.52733328728E+03  0.00000000000E+00 0.  1.
         21   -1    0    0  501  502  0.00000000000E+00 -0.00000000000E+00 -0.29179716311E+03  0.29179716311E+03  0.00000000000E+00 0.  1.
         21    1    1    2  503  504 -0.15253141909E+03  0.94916802272E+01  0.67381147910E+02  0.16702139054E+03  0.00000000000E+00 0.  1.
         21    1    1    2  504  505 -0.37372653718E+02 -0.28466971411E+02 -0.11140467350E+02  0.48282436973E+02  0.00000000000E+00 0.  1.
         21    1    1    2  505  502 -0.62532578606E+01 -0.46505172510E+02 -0.18177236296E+03  0.18773126069E+03  0.00000000000E+00 0.  1.
          1    1    1    2  501    0  0.19615733067E+03  0.65480463694E+02  0.36106780657E+03  0.41609536220E+03  0.00000000000E+00 0.  1.
<scales pt_clust_3="45.61641" pt_clust_4="45.61641" pt_clust_5="46.92371" pt_clust_6="201.77932"></scales>
<clustering>
<clus scale="   45.616">  3  4 -1 -1</clus>
<clus scale="   46.924">  2  5  1 -1</clus>
<clus scale="  201.779">  1  6  2 -1</clus>
<clus scale="   46.924">  2  3  1 -1</clus>
</clustering>
</event>
<event>
 6    0  0.4945982E+002  0.1383299E+03  0.7546771E-02  0.1215594E+00
          2   -1    0    0  504    0 -0.00000000000E+00  0.00000000000E+00  0.12750262243E+04  0.12750262243E+04  0.00000000000E+00 0.  1.
         21   -1    0    0  503  502  0.00000000000E+00 -0.00000000000E+00 -0.60744006457E+02  0.60744006457E+02  0.00000000000E+00 0. -1.
         21    1    1    2  503  505  0.55031722563E+02  0.54859317781E+02  0.12790754253E+03  0.14966086554E+03  0.00000000000E+00 0. -1.
         21    1    1    2  504  502 -0.11339841519E+03 -0.56581125602E+02  0.51895369535E+02  0.13694434534E+03  0.00000000000E+00 0. -1.
         21    1    1    2  505  501  0.61996135156E+02  0.49298892819E+02  0.22971506733E+03  0.24298747657E+03  0.00000000000E+00 0. -1.
          2    1    1    2  501    0 -0.36294425288E+01 -0.47577084998E+02  0.80476423849E+03  0.80617754336E+03  0.00000000000E+00 0.  1.
<scales pt_clust_3="41.24832" pt_clust_4="131.91219" pt_clust_5="41.24832" pt_clust_6="47.71532"></scales>
<clustering>
<clus scale="   41.248">  3  5 -1 -1</clus>
<clus scale="   47.715">  1  6  2 -1</clus>
<clus scale="  131.912">  2  4  1 -1</clus>
<clus scale="  131.912">  2  3  1 -1</clus>
</clustering>
</event>
<event>
 6    0  0.4945982E+002  0.1584576E+03  0.7546771E-02  0.1190449E+00
         21   -1    0    0  504  502  0.00000000000E+00  0.00000000000E+00  0.93916774219E+02  0.93916774219E+02  0.00000000000E+00 0. -1.
          4   -1    0    0  505    0 -0.00000000000E+00 -0.00000000000E+00 -0.71026980087E+03  0.71026980087E+03  0.00000000000E+00 0. -1.
         21    1    1    2  503  502 -0.96198546292E+01  0.50482166348E+02 -0.11492878748E+03  0.12589526168E+03  0.00000000000E+00 0. -1.
         21    1    1    2  504  501  0.13650769614E+03 -0.78471927088E+02 -0.10746563009E+02  0.15782168122E+03  0.00000000000E+00 0. -1.
         21    1    1    2  505  503 -0.41740602793E+02  0.49444788394E+02 -0.33975013527E+03  0.34585722406E+03  0.00000000000E+00 0. -1.
          4    1    1    2  501    0 -0.85147238715E+02 -0.21455027655E+02 -0.15092754090E+03  0.17461240813E+03  0.00000000000E+00 0. -1.
<scales pt_clust_3="50.36685" pt_clust_4="148.03591" pt_clust_5="50.36685" pt_clust_6="87.80872"></scales>
<clustering>
<clus scale="   50.367">  3  5 -1 -1</clus>
<clus scale="   87.809">  2  6  1 -1</clus>
<clus scale="  148.036">  1  4  2 -1</clus>
<clus scale="  148.036">  1  3  2 -1</clus>
</clustering>
</event>
<event>
 6    0  0.4945982E+002  0.2260617E+03  0.7546771E-02  0.1129443E+00
          2   -1    0    0  504    0 -0.00000000000E+00  0.00000000000E+00  0.16210338169E+04  0.16210338169E+04  0.00000000000E+00 0.  1.
         21   -1    0    0  501  502  0.00000000000E+00 -0.00000000000E+00 -0.79686679911E+02  0.79686679911E+02  0.00000000000E+00 0.  1.
         21    1    1    2  503  502  0.16651288820E+02 -0.55243855056E+02 -0.59481210192E+01  0.58004560893E+02  0.00000000000E+00 0.  1.
         21    1    1    2  504  505 -0.26416292093E+02 -0.25989186276E+02  0.19258000152E+03  0.19611301659E+03  0.00000000000E+00 0.  1.
         21    1    1    2  505  503  0.74054992312E+02 -0.16781658399E+03  0.23710118008E+03  0.29977244260E+03  0.00000000000E+00 0.  1.
          2    1    1    2  501    0 -0.64289989038E+02  0.24904962532E+03  0.11176140764E+04  0.11468304767E+04  0.00000000000E+00 0.  1.
<scales pt_clust_3="58.01675" pt_clust_4="37.05750" pt_clust_5="14000.00000" pt_clust_6="226.06167"></scales>
<clustering>
<clus scale="   37.057">  1  4  2 -1</clus>
<clus scale="   58.017">  2  3  1 -1</clus>
<clus scale="  226.062">  1  6  2 -1</clus>
<clus scale="   58.017">  2  3  1 -1</clus>
</clustering>
</event>
<event>
 6    0  0.4945982E+002  0.9322242E+02  0.7546771E-02  0.1295231E+00
         21   -1    0    0  503  502  0.00000000000E+00  0.00000000000E+00  0.75541942134E+03  0.75541942134E+03  0.00000000000E+00 0.  1.
          1   -1    0    0  504    0 -0.00000000000E+00 -0.00000000000E+00 -0.70742200838E+03  0.70742200838E+03  0.00000000000E+00 0. -1.
         21    1    1    2  503  505  0.40127883145E+02  0.36771064291E+01  0.72394851293E+03  0.72506911222E+03  0.00000000000E+00 0.  1.
         21    1    1    2  504  502 -0.12432785972E+03 -0.74126442306E+02 -0.32364260262E+03  0.35453727644E+03  0.00000000000E+00 0. -1.
         21    1    1    2  505  501  0.28577590671E+02  0.63223988095E+02 -0.83154268917E+02  0.10829858632E+03  0.00000000000E+00 0. -1.
          1    1    1    2  501    0  0.55622385906E+02  0.72253477812E+01 -0.26915422843E+03  0.27493645475E+03  0.00000000000E+00 0. -1.
<scales pt_clust_3="40.29601" pt_clust_4="93.22242" pt_clust_5="14000.00000" pt_clust_6="59.85613"></scales>
<clustering>
<clus scale="   40.296">  1  3  2 -1</clus>
<clus scale="   59.856">  2  6  1 -1</clus>
<clus scale="   93.222">  2  4  1 -1</clus>
<clus scale="   40.296">  1  3  2 -1</clus>
</clustering>
</event>
<event>
 6    0  0.4945982E+002  0.6600379E+02  0.7546771E-02  0.1374235E+00
          2   -1    0    0  503    0 -0.00000000000E+00  0.00000000000E+00  0.53463807494E+03  0.53463807494E+03  0.00000000000E+00 0.  1.
         21   -1    0    0  505  502  0.00000000000E+00 -0.00000000000E+00 -0.10926049360E+03  0.10926049360E+03  0.00000000000E+00 0.  1.
         21    1    1    2  503  504 -0.29845515405E+02  0.10248134771E+03  0.52654485887E+01  0.10686864071E+03  0.00000000000E+00 0.  1.
         21    1    1    2  504  502 -0.32946087875E+02  0.48619808197E+01 -0.28317286097E+02  0.43714439899E+02  0.00000000000E+00 0. -1.
         21    1    1    2  505  501  0.27439378422E+02 -0.53672319156E+02  0.25367493984E+02  0.65399901244E+02  0.00000000000E+00 0.  1.
          2    1    1    2  501    0  0.35352224857E+02 -0.53671009378E+02  0.42306192487E+03  0.42791558668E+03  0.00000000000E+00 0.  1.
<scales pt_clust_3="66.00379" pt_clust_4="33.30291" pt_clust_5="55.49540" pt_clust_6="14000.00000"></scales>
<clustering>
<clus scale="   33.303">  2  4  1 -1</clus>
<clus scale="   55.495">  2  5  1 -1</clus>
<clus scale="   66.004">  2  3  1 -1</clus>
<clus scale="   33.303">  2  3  1 -1</clus>
</clustering>
</event>
<event>
 6    0  0.4945982E+002  0.8386875E+02  0.7546771E-02  0.1318418E+00
          1   -1    0    0  505    0 -0.00000000000E+00  0.00000000000E+00  0.12854872361E+03  0.12854872361E+03  0.00000000000E+00 0. -1.
         21   -1    0    0  504  502  0.00000000000E+00 -0.00000000000E+00 -0.91322898935E+03  0.91322898935E+03  0.00000000000E+00 0.  1.
         21    1    1    2  503  501 -0.50544325768E+02  0.87112438753E+02 -0.59237965068E+03  0.60088015144E+03  0.00000000000E+00 0.  1.
         21    1    1    2  504  503  0.35920635806E+02  0.48466305378E+02 -0.14706915506E+03  0.15896103675E+03  0.00000000000E+00 0.  1.
         21    1    1    2  505  502  0.22470398504E+02 -0.52042544546E+02 -0.14257065861E+03  0.15342665332E+03  0.00000000000E+00 0. -1.
          1    1    1    2  501    0 -0.78467085420E+01 -0.83536199586E+02  0.97339198612E+02  0.12850987146E+03  0.00000000000E+00 0. -1.
<scales pt_clust_3="14000.00000" pt_clust_4="55.51425" pt_clust_5="56.68638" pt_clust_6="83.86875"></scales>
<clustering>
<clus scale="   56.686">  2  5  1 -1</clus>
<clus scale="   55.514">  2  4  1 -1</clus>
<clus scale="   83.869">  1  6  2 -1</clus>
<clus scale="   56.686">  2  3  1 -1</clus>
</clustering>
</event>
<event>
 6    0  0.4945982E+002  0.3143816E+03  0.7546771E-02  0.1078264E+00
         21   -1    0    0  503  502  0.00000000000E+00  0.00000000000E+00  0.11406904358E+04  0.11406904358E+04  0.00000000000E+00 0.  1.
          3   -1    0    0  504    0 -0.00000000000E+00 -0.00000000000E+00 -0.13733535850E+04  0.13733535850E+04  0.00000000000E+00 0.  1.
         21    1    1    2  503  501  0.71148877357E+02 -0.16485564816E+03  0.68726730632E+02  0.19225740814E+03  0.00000000000E+00 0.  1.
         21    1    1    2  504  505  0.70248612826E+02 -0.14817340789E+03 -0.12711896565E+03  0.20748363270E+03  0.00000000000E+00 0. -1.
         21    1    1    2  505  502  0.46593693169E+02  0.28330203197E+02  0.94378211278E+03  0.94535614932E+03  0.00000000000E+00 0.  1.
          3    1    1    2  501    0 -0.18799118335E+03  0.28469885286E+03 -0.11180530270E+04  0.11689468307E+04  0.00000000000E+00 0.  1.
<scales pt_clust_3="314.38164" pt_clust_4="163.20588" pt_clust_5="54.53047" pt_clust_6="14000.00000"></scales>
<clustering>
<clus scale="   54.530">  1  5  2 -1</clus>
<clus scale="  163.206">  1  4  2 -1</clus>
<clus scale="  314.382">  1  3  2 -1</clus>
<clus scale="   54.530">  1  3  2 -1</clus>
</clustering>
</event>
<event>
 6    0  0.4945982E+002  0.1360756E+03  0.7546771E-02  0.1218709E+00
          2   -1    0    0  502    0 -0.00000000000E+00  0.00000000000E+00  0.42328767876E+04  0.42328767876E+04  0.00000000000E+00 0. -1.
         21   -1    0    0  503  502  0.00000000000E+00 -0.00000000000E+00 -0.11739158175E+03  0.11739158175E+03  0.00000000000E+00 0. -1.
         21    1    1    2  503  505  0.10774740899E+03  0.93618514862E+02 -0.47044290682E+02  0.15029003877E+03  0.00000000000E+00 0. -1.
         21    1    1    2  504  501 -0.60080793890E+02  0.18839155450E+02  0.12372670775E+03  0.13882692024E+03  0.00000000000E+00 0. -1.
         21    1    1    2  505  504 -0.52365710394E+02 -0.76749230900E+01  0.56311348341E+02  0.77278975288E+02  0.00000000000E+00 0. -1.
          2    1    1    2  501    0  0.46990952952E+01 -0.10478274722E+03  0.39824914404E+04  0.39838724350E+04  0.00000000000E+00 0. -1.
<scales pt_clust_3="130.37397" pt_clust_4="35.73455" pt_clust_5="35.73455" pt_clust_6="104.88806"></scales>
<clustering>
<clus scale="   35.735">  4  5 -1 -1</clus>
<clus scale="  104.888">  1  6  2 -1</clus>
<clus scale="  130.374">  2  3  1 -1</clus>
<clus scale="  130.374">  2  3  1 -1</clus>
</clustering>
</event>
<event>
 6    0  0.4945982E+002  0.1899122E+03  0.7546771E-02  0.1158541E+00
         21   -1    0    0  503  502  0.00000000000E+00  0.00000000000E+00  0.66042834376E+02  0.66042834376E+02  0.00000000000E+00 0.  1.
          1   -1    0    0  505    0 -0.00000000000E+00 -0.00000000000E+00 -0.18845400292E+04  0.18845400292E+04  0.00000000000E+00 0. -1.
         21    1    1    2  503  501  0.16850995948E+03 -0.55523797559E+02 -0.12925313525E+03  0.21951052711E+03  0.00000000000E+00 0.  1.
         21    1    1    2  504  502 -0.12401117046E+03  0.77000977597E+02 -0.26548093404E+03  0.30296542260E+03  0.00000000000E+00 0. -1.
         21    1    1    2  505  504 -0.35074482742E+02  0.71111335162E+01 -0.15867931480E+03  0.16266503160E+03  0.00000000000E+00 0. -1.
          1    1    1    2  501    0 -0.94243062780E+01 -0.28588313554E+02 -0.12650838107E+04  0.12654418823E+04  0.00000000000E+00 0. -1.
<scales pt_clust_3="177.62297" pt_clust_4="34.38268" pt_clust_5="34.38268" pt_clust_6="30.10165"></scales>
<clustering>
<clus scale="   30.102">  2  6  1 -1</clus>
<clus scale="   34.383">  4  5 -1 -1</clus>
<clus scale="  177.623">  1  3  2 -1</clus>
<clus scale="  177.623">  1  3  2 -1</clus>
</clustering>
</event>
<event>
 6    0  0.4945982E+002  0.1944184E+03  0.7546771E-02  0.1154536E+00
         -2   -1    0    0    0  501 -0.00000000000E+00  0.00000000000E+00  0.62000059623E+03  0.62000059623E+03  0.00000000000E+00 0.  1.
         21   -1    0    0  505  502  0.00000000000E+00 -0.00000000000E+00 -0.22598299721E+03  0.22598299721E+03  0.00000000000E+00 0.  1.
         21    1    1    2  503  504  0.68383517920E+01  0.57076374726E+02 -0.13745368314E+02  0.59105082330E+02  0.00000000000E+00 0.  1.
         21    1    1    2  504  502  0.37965370153E+02  0.10768494729E+03 -0.94365841556E+02  0.14812943413E+03  0.00000000000E+00 0.  1.
         21    1    1    2  505  501  0.44290345792E+02  0.44062457145E+01 -0.42496373345E+02  0.61538536538E+02  0.00000000000E+00 0.  1.
         -2    1    1    2    0  503 -0.89094067737E+02 -0.16916756773E+03  0.54462518223E+03  0.57721054044E+03  0.00000000000E+00 0.  1.
<scales pt_clust_3="32.54966" pt_clust_4="32.54966" pt_clust_5="44.50898" pt_clust_6="188.92870"></scales>
<clustering>
<clus scale="   32.550">  3  4 -1 -1</clus>
<clus scale="   44.509">  2  5  1 -1</clus>
<clus scale="  188.929">  1  6  2 -1</clus>
<clus scale="   44.509">  2  3  1 -1</clus>
</clustering>
</event>
<event>
 6    0  0.4945982E+002  0.1586103E+03  0.7546771E-02  0.1190275E+00
         21   -1    0    0  503  502  0.00000000000E+00  0.00000000000E+00  0.20712025296E+03  0.20712025296E+03  0.00000000000E+00 0.  1.
         -2   -1    0    0    0  501 -0.00000000000E+00 -0.00000000000E+00 -0.10091696470E+04  0.10091696470E+04  0.00000000000E+00 0. -1.
         21    1    1    2  503  501 -0.27097446871E+02 -0.50006546923E+02 -0.11900565336E+03  0.13189871832E+03  0.00000000000E+00 0.  1.
         21    1    1    2  504  505 -0.18348001392E+03  0.46944422939E+02  0.56021741672E+02  0.19750222756E+03  0.00000000000E+00 0.  1.
         21    1    1    2  505  502  0.30994938978E+02 -0.31517986370E+02  0.55838865702E+02  0.71218316674E+02  0.00000000000E+00 0.  1.
         -2    1    1    2    0  504  0.17958252181E+03  0.34580110354E+02 -0.79490434803E+03  0.81567063738E+03  0.00000000000E+00 0. -1.
<scales pt_clust_3="57.48887" pt_clust_4="14000.00000" pt_clust_5="44.20486" pt_clust_6="158.61030"></scales>
<clustering>
<clus scale="   44.205">  1  5  2 -1</clus>
<clus scale="   57.489">  2  3  1 -1</clus>
<clus scale="  158.610">  2  6  1 -1</clus>
<clus scale="   44.205">  1  3  2 -1</clus>
</clustering>
</event>
<event>
 6    0  0.4945982E+002  0.1124176E+03  0.7546771E-02  0.1256157E+00
         -4   -1    0    0    0  501 -0.00000000000E+00  0.00000000000E+00  0.35617628657E+03  0.35617628657E+03  0.00000000000E+00 0.  1.
         21   -1    0    0  503  502  0.00000000000E+00 -0.00000000000E+00 -0.63014234401E+03  0.63014234401E+03  0.00000000000E+00 0. -1.
         21    1    1    2  503  505  0.85828854952E+02 -0.24983807259E+01 -0.50863368287E+03  0.51583045431E+03  0.00000000000E+00 0. -1.
         21    1    1    2  504  502  0.30642749433E+02 -0.26713611917E+02 -0.43827429773E+02  0.59778246503E+02  0.00000000000E+00 0. -1.
         21    1    1    2  505  501 -0.83812147913E+02  0.81654199098E+02 -0.83283566956E+01  0.11730833685E+03  0.00000000000E+00 0. -1.
         -4    1    1    2    0  504 -0.32659456473E+02 -0.52442206455E+02  0.28682341190E+03  0.29340159292E+03  0.00000000000E+00 0.  1.
<scales pt_clust_3="112.41761" pt_clust_4="40.65212" pt_clust_5="14000.00000" pt_clust_6="61.81772"></scales>
<clustering>
<clus scale="   40.652">  2  4  1 -1</clus>
<clus scale="   61.818">  1  6  2 -1</clus>
<clus scale="  112.418">  2  3  1 -1</clus>
<clus scale="   40.652">  2  3  1 -1</clus>
</clustering>
</event>
<event>
 6    0  0.4945982E+002  0.2192147E+03  0.7546771E-02  0.1134470E+00
          1   -1    0    0  504    0 -0.00000000000E+00  0.00000000000E+00  0.65810362779E+03  0.65810362779E+03  0.00000000000E+00 0. -1.
         21   -1    0    0  503  502  0.00000000000E+00 -0.00000000000E+00 -0.53313665339E+03  0.53313665339E+03  0.00000000000E+00 0.  1.
         21    1    1    2  503  505 -0.79369270857E+02  0.18800760078E+03 -0.48620171102E+03  0.52729350736E+03  0.00000000000E+00 0.  1.
         21    1    1    2  504  502 -0.32752093688E+02 -0.30680225912E+02  0.16401953774E+03  0.17004818336E+03  0.00000000000E+00 0. -1.
         21    1    1    2  505  501  0.36560072733E+02 -0.33690062773E+02  0.47368832436E+02  0.68669247370E+02  0.00000000000E+00 0. -1.
          1    1    1    2  501    0  0.75561291812E+02 -0.12363731210E+03  0.39978031524E+03  0.42522934308E+03  0.00000000000E+00 0. -1.
<scales pt_clust_3="203.43235" pt_clust_4="44.87734" pt_clust_5="45.91782" pt_clust_6="45.91782"></scales>
<clustering>
<clus scale="   44.877">  1  4  2 -1</clus>
<clus scale="   45.918">  5  6 -1 -1</clus>
<clus scale="  203.432">  2  3  1 -1</clus>
<clus scale="  203.432">  2  3  1 -1</clus>
</clustering>
</event>
<event>
 6    0  0.4945982E+002  0.1282518E+03  0.7546771E-02  0.1230073E+00
         21   -1    0    0  501  502  0.00000000000E+00  0.00000000000E+00  0.15464409025E+03  0.15464409025E+03  0.00000000000E+00 0. -1.
          2   -1    0    0  503    0 -0.00000000000E+00 -0.00000000000E+00 -0.91298098539E+03  0.91298098539E+03  0.00000000000E+00 0. -1.
         21    1    1    2  503  505 -0.80748707863E+02 -0.53029274034E+02 -0.17967566007E+03  0.20399951115E+03  0.00000000000E+00 0. -1.
         21    1    1    2  504  502  0.58198914930E+02  0.23428753496E+02  0.46789951679E+02  0.78264422106E+02  0.00000000000E+00 0. -1.
         21    1    1    2  505  504  0.38624233952E+02  0.57323553416E+02  0.64574201904E+02  0.94592012222E+02  0.00000000000E+00 0. -1.
          2    1    1    2  501    0 -0.16074441019E+02 -0.27723032878E+02 -0.69002538865E+03  0.69076913016E+03  0.00000000000E+00 0. -1.
<scales pt_clust_3="121.92950" pt_clust_4="37.94773" pt_clust_5="37.94773" pt_clust_6="32.04613"></scales>
<clustering>
<clus scale="   32.046">  2  6  1 -1</clus>
<clus scale="   37.948">  4  5 -1 -1</clus>
<clus scale="  121.929">  2  3  1 -1</clus>
<clus scale="  128.252">  1  3  2 -1</clus>
</clustering>
</event>
<event>
 6    0  0.4945982E+002  0.1315361E+03  0.7546771E-02  0.1225194E+00
         21   -1    0    0  505  502  0.00000000000E+00  0.00000000000E+00  0.53833957324E+03  0.53833957324E+03  0.00000000000E+00 0.  1.
          2   -1    0    0  504    0 -0.00000000000E+00 -0.00000000000E+00 -0.22498252755E+04  0.22498252755E+04  0.00000000000E+00 0.  1.
         21    1    1    2  503  502 -0.67942986305E+02 -0.45902773444E+01  0.40337399718E+03  0.40908177867E+03  0.00000000000E+00 0.  1.
         21    1    1    2  504  503 -0.39453616652E+02  0.16057255160E+02 -0.81188748533E+02  0.91684438148E+02  0.00000000000E+00 0. -1.
         21    1    1    2  505  501  0.16557633654E+03 -0.81479442653E+02  0.58238049731E+02  0.19350993058E+03  0.00000000000E+00 0. -1.
          2    1    1    2  501    0 -0.58179733579E+02  0.70012464837E+02 -0.20919090006E+04  0.20938887013E+04  0.00000000000E+00 0.  1.
<scales pt_clust_3="68.14838" pt_clust_4="42.59605" pt_clust_5="14000.00000" pt_clust_6="131.53610"></scales>
<clustering>
<clus scale="   42.596">  2  4  1 -1</clus>
<clus scale="   68.148">  1  3  2 -1</clus>
<clus scale="  131.536">  2  6  1 -1</clus>
<clus scale="   68.148">  1  3  2 -1</clus>
</clustering>
</event>
<event>
 6    0  0.4945982E+002  0.1531869E+03  0.7546771E-02  0.1196611E+00
         21   -1    0    0  504  502  0.00000000000E+00  0.00000000000E+00  0.61828075072E+02  0.61828075072E+02  0.00000000000E+00 0.  1.
          1   -1    0    0  505    0 -0.00000000000E+00 -0.00000000000E+00 -0.13961852115E+04  0.13961852115E+04  0.00000000000E+00 0.  1.
         21    1    1    2  503  501 -0.38972530347E+02  0.70174485176E+00 -0.15912250684E+02  0.42101666111E+02  0.00000000000E+00 0.  1.
         21    1    1    2  504  503 -0.45679297902E+02 -0.28530963816E+02  0.91520433461E+01  0.54629424768E+02  0.00000000000E+00 0.  1.
         21    1    1    2  505  502 -0.70075341931E+02  0.51710759844E+02 -0.15099637843E+03  0.17431139530E+03  0.00000000000E+00 0.  1.
          1    1    1    2  501    0  0.15472717018E+03 -0.23881540880E+02 -0.11766005507E+04  0.11869708004E+04  0.00000000000E+00 0.  1.
<scales pt_clust_3="31.49779" pt_clust_4="31.49779" pt_clust_5="87.08936" pt_clust_6="148.64529"></scales>
<clustering>
<clus scale="   31.498">  3  4 -1 -1</clus>
<clus scale="   87.089">  1  5  2 -1</clus>
<clus scale="  148.645">  2  6  1 -1</clus>
<clus scale="   87.089">  1  3  2 -1</clus>
</clustering>
</event>
<event>
 6    0  0.4945982E+002  0.1318232E+03  0.7546771E-02  0.1224775E+00
         -1   -1    0    0    0  501 -0.00000000000E+00  0.00000000000E+00  0.72484281763E+03  0.72484281763E+03  0.00000000000E+00 0. -1.
         21   -1    0    0  504  502  0.00000000000E+00 -0.00000000000E+00 -0.90755960370E+02  0.90755960370E+02  0.00000000000E+00 0. -1.
         21    1    1    2  503  502 -0.82827422234E+02 -0.14417352374E+02  0.89249796157E+02  0.12261226708E+03  0.00000000000E+00 0. -1.
         21    1    1    2  504  501  0.24001708898E+02 -0.23517903789E+02 -0.51805032151E+02  0.61748969099E+02  0.00000000000E+00 0. -1.
         21    1    1    2  505  503 -0.52495764101E+02  0.41811801677E+02  0.88716077059E+02  0.11124106408E+03  0.00000000000E+00 0. -1.
         -1    1    1    2    0  505  0.11132147744E+03 -0.38765455141E+01  0.50792601620E+03  0.51999647775E+03  0.00000000000E+00 0. -1.
<scales pt_clust_3="54.11758" pt_clust_4="33.60318" pt_clust_5="54.11758" pt_clust_6="115.86483"></scales>
<clustering>
<clus scale="   33.603">  2  4  1 -1</clus>
<clus scale="   54.118">  3  5 -1 -1</clus>
<clus scale="  115.865">  1  6  2 -1</clus>
<clus scale="   33.603">  2  3  1 -1</clus>
</clustering>
</event>
<event>
 6    0  0.4945982E+002  0.1433868E+03  0.7546771E-02  0.1208843E+00
          2   -1    0    0  505    0 -0.00000000000E+00  0.00000000000E+00  0.74634317304E+03  0.74634317304E+03  0.00000000000E+00 0. -1.
         21   -1    0    0  504  502  0.00000000000E+00 -0.00000000000E+00 -0.47914386500E+02  0.47914386500E+02  0.00000000000E+00 0. -1.
         21    1    1    2  503  501  0.71413121630E+02  0.14130035749E+02  0.89019352958E+02  0.11499537840E+03  0.00000000000E+00 0. -1.
         21    1    1    2  504  503  0.41951090486E+02  0.58821239494E+01  0.17755475458E+01  0.42398654981E+02  0.00000000000E+00 0. -1.
         21    1    1    2  505  502  0.22460156979E+02 -0.29500500607E+02  0.46633558201E+02  0.59577067216E+02  0.00000000000E+00 0. -1.
          2    1    1    2  501    0 -0.13582436909E+03  0.94883409082E+01  0.56100032784E+03  0.57728645895E+03  0.00000000000E+00 0. -1.
<scales pt_clust_3="47.29472" pt_clust_4="47.29472" pt_clust_5="37.07746" pt_clust_6="131.46302"></scales>
<clustering>
<clus scale="   37.077">  2  5  1 -1</clus>
<clus scale="   47.295">  3  4 -1 -1</clus>
<clus scale="  131.463">  1  6  2 -1</clus>
<clus scale="   37.077">  2  3  1 -1</clus>
</clustering>
</event>
<event>
 6    0  0.4945982E+002  0.1692637E+03  0.7546771E-02  0.1178618E+00
          3   -1    0    0  505    0 -0.00000000000E+00  0.00000000000E+00  0.17183760942E+03  0.17183760942E+03  0.00000000000E+00 0. -1.
         21   -1    0    0  504  502  0.00000000000E+00 -0.00000000000E+00 -0.19399853949E+04  0.19399853949E+04  0.00000000000E+00 0. -1.
         21    1    1    2  503  502 -0.48566241476E+02 -0.17577192543E+03 -0.12124740663E+04  0.12261108478E+04  0.00000000000E+00 0. -1.
         21    1    1    2  504  501  0.59490424298E+02  0.54800025212E+01 -0.64298323524E+03  0.64575272497E+03  0.00000000000E+00 0.  1.
         21    1    1    2  505  503  0.76803743976E+01  0.31950881625E+02 -0.39493502934E+02  0.51376879640E+02  0.00000000000E+00 0.  1.
          3    1    1    2  501    0 -0.18604557219E+02  0.13834104128E+03  0.12680301901E+03  0.18858255191E+03  0.00000000000E+00 0. -1.
<scales pt_clust_3="169.26374" pt_clust_4="59.83115" pt_clust_5="32.86103" pt_clust_6="14000.00000"></scales>
<clustering>
<clus scale="   32.861">  1  5  2 -1</clus>
<clus scale="   59.831">  2  4  1 -1</clus>
<clus scale="  169.264">  2  3  1 -1</clus>
<clus scale="   59.831">  2  3  1 -1</clus>
</clustering>
</event>
<event>
 6    0  0.4945982E+002  0.1488301E+03  0.7546771E-02  0.1201918E+00
          2   -1    0    0  504    0 -0.00000000000E+00  0.00000000000E+00  0.13853215826E+03  0.13853215826E+03  0.00000000000E+00 0.  1.
         21   -1    0    0  503  502  0.00000000000E+00 -0.00000000000E+00 -0.52470008995E+03  0.52470008995E+03  0.00000000000E+00 0. -1.
         21    1    1    2  503  501  0.10555286588E+02 -0.67546621065E+02 -0.14094597517E+03  0.15665161349E+03  0.00000000000E+00 0. -1.
         21    1    1    2  504  505 -0.29132837222E+02  0.64079881394E+02 -0.56654369734E+02  0.90358569123E+02  0.00000000000E+00 0.  1.
         21    1    1    2  505  502 -0.32020748902E+02  0.11668419145E+03 -0.25006570093E+03  0.27780097853E+03  0.00000000000E+00 0. -1.
          2    1    1    2  501    0  0.50598299536E+02 -0.11321745178E+03  0.61498114144E+02  0.13842108707E+03  0.00000000000E+00 0.  1.
<scales pt_clust_3="68.36637" pt_clust_4="54.19591" pt_clust_5="54.19591" pt_clust_6="130.77289"></scales>
<clustering>
<clus scale="   54.196">  4  5 -1 -1</clus>
<clus scale="   68.366">  2  3  1 -1</clus>
<clus scale="  130.773">  1  6  2 -1</clus>
<clus scale="   68.366">  2  3  1 -1</clus>
</clustering>
</event>
<event>
 6    0  0.4945982E+002  0.1190337E+03  0.7546771E-02  0.1244700E+00
          2   -1    0    0  503    0 -0.00000000000E+00  0.00000000000E+00  0.25014975575E+04  0.25014975575E+04  0.00000000000E+00 0.  1.
         21   -1    0    0  505  502  0.00000000000E+00 -0.00000000000E+00 -0.16324641038E+02  0.16324641038E+02  0.00000000000E+00 0. -1.
         21    1    1    2  503  504  0.37278278809E+02  0.49669204750E+02  0.38168765790E+03  0.38670682456E+03  0.00000000000E+00 0. -1.
         21    1    1    2  504  502  0.37802215780E+02  0.70635656938E+02  0.24295187442E+03  0.25582028230E+03  0.00000000000E+00 0.  1.
         21    1    1    2  505  501 -0.68915235694E+02 -0.16413989077E+02  0.21288328966E+03  0.22436136870E+03  0.00000000000E+00 0. -1.
          2    1    1    2  501    0 -0.61652588944E+01 -0.10389087261E+03  0.16476500945E+04  0.16509337230E+04  0.00000000000E+00 0.  1.
<scales pt_clust_3="44.51377" pt_clust_4="44.51377" pt_clust_5="70.84299" pt_clust_6="107.76279"></scales>
<clustering>
<clus scale="   44.514">  3  4 -1 -1</clus>
<clus scale="   70.843">  2  5  1 -1</clus>
<clus scale="  107.763">  1  6  2 -1</clus>
<clus scale="   70.843">  2  3  1 -1</clus>
</clustering>
</event>
<event>
 6    0  0.4945982E+002  0.1088612E+03  0.7546771E-02  0.1262693E+00
         21   -1    0    0  503  502  0.00000000000E+00  0.00000000000E+00  0.24866924476E+03  0.24866924476E+03  0.00000000000E+00 0.  1.
          1   -1    0    0  504    0 -0.00000000000E+00 -0.00000000000E+00 -0.11184740328E+04  0.11184740328E+04  0.00000000000E+00 0.  1.
         21    1    1    2  503  501  0.53948951221E+02  0.52045809495E+02 -0.69433551045E+02  0.10217765722E+03  0.00000000000E+00 0.  1.
         21    1    1    2  504  505  0.51723284266E+02 -0.13836778522E+02 -0.94400469505E+02  0.10852743072E+03  0.00000000000E+00 0.  1.
         21    1    1    2  505  502 -0.71779404311E+02 -0.89536246677E+02  0.20951741932E+03  0.23888610539E+03  0.00000000000E+00 0.  1.
          1    1    1    2  501    0 -0.33892831176E+02  0.51327215703E+02 -0.91548818679E+03  0.91755208421E+03  0.00000000000E+00 0.  1.
<scales pt_clust_3="108.86115" pt_clust_4="53.54208" pt_clust_5="14000.00000" pt_clust_6="40.88652"></scales>
<clustering>
<clus scale="   53.542">  2  4  1 -1</clus>
<clus scale="   40.887">  2  6  1 -1</clus>
<clus scale="  108.861">  2  3  1 -1</clus>
<clus scale="  108.861">  1  3  2 -1</clus>
</clustering>
</event>
<event>
 6    0  0.4945982E+002  0.2358242E+03  0.7546771E-02  0.1122606E+00
          2   -1    0    0  505    0 -0.00000000000E+00  0.00000000000E+00  0.12139955416E+04  0.12139955416E+04  0.00000000000E+00 0. -1.
         21   -1    0    0  504  502  0.00000000000E+00 -0.00000000000E+00 -0.64899909340E+02  0.64899909340E+02  0.00000000000E+00 0. -1.
         21    1    1    2  503  502 -0.31081885843E+02 -0.78423638270E+02  0.41579584764E+03  0.42426705927E+03  0.00000000000E+00 0. -1.
         21    1    1    2  504  501  0.24209159926E+02  0.29530722755E+02  0.23213945248E+02  0.44688189320E+02  0.00000000000E+00 0.  1.
         21    1    1    2  505  503  0.65073149315E+02 -0.13899788342E+03  0.49604395621E+03  0.51924419385E+03  0.00000000000E+00 0. -1.
          2    1    1    2  501    0 -0.58200423398E+02  0.18789079893E+03  0.21404188314E+03  0.29069600848E+03  0.00000000000E+00 0. -1.
<scales pt_clust_3="74.90935" pt_clust_4="38.18569" pt_clust_5="74.90935" pt_clust_6="212.78846"></scales>
<clustering>
<clus scale="   38.186">  2  4  1 -1</clus>
<clus scale="   74.909">  3  5 -1 -1</clus>
<clus scale="  212.788">  2  6  1 -1</clus>
<clus scale="   38.186">  2  3  1 -1</clus>
</clustering>
</event>
<event>
 6    0  0.4945982E+002  0.1202506E+03  0.7546771E-02  0.1242684E+00
         21   -1    0    0  503  502  0.00000000000E+00  0.00000000000E+00  0.28040180952E+02  0.28040180952E+02  0.00000000000E+00 0. -1.
          2   -1    0    0  505    0 -0.00000000000E+00 -0.00000000000E+00 -0.26035461860E+04  0.26035461860E+04  0.00000000000E+00 0. -1.
         21    1    1    2  503  504 -0.84864944829E+02  0.54155365754E+02 -0.16279976239E+03  0.19141218649E+03  0.00000000000E+00 0. -1.
         21    1    1    2  504  501 -0.43357180802E+02 -0.46895167507E+01 -0.39381490599E+02  0.58760007627E+02  0.00000000000E+00 0. -1.
         21    1    1    2  505  502  0.24195868326E+02 -0.27007287659E+02 -0.11495571782E+03  0.12053900070E+03  0.00000000000E+00 0. -1.
          2    1    1    2  501    0  0.10402625731E+03 -0.22458561344E+02 -0.22583690342E+04  0.22608751721E+04  0.00000000000E+00 0. -1.
<scales pt_clust_3="34.95802" pt_clust_4="34.95802" pt_clust_5="36.26063" pt_clust_6="107.88479"></scales>
<clustering>
<clus scale="   34.958">  3  4 -1 -1</clus>
<clus scale="   36.261">  1  5  2 -1</clus>
<clus scale="  107.885">  2  6  1 -1</clus>
<clus scale="   36.261">  1  3  2 -1</clus>
</clustering>
</event>
<event>
 6    0  0.4945982E+002  0.1660395E+03  0.7546771E-02  0.1182042E+00
          1   -1    0    0  503    0 -0.00000000000E+00  0.00000000000E+00  0.12848444078E+04  0.12848444078E+04  0.00000000000E+00 0. -1.
         21   -1    0    0  501  502  0.00000000000E+00 -0.00000000000E+00 -0.16781902441E+04  0.16781902441E+04  0.00000000000E+00 0.  1.
         21    1    1    2  503  504  0.37434527725E+02  0.34130502463E+02  0.32680949582E+03  0.33071238504E+03  0.00000000000E+00 0. -1.
         21    1    1    2  504  505 -0.27908633520E+02  0.13652015157E+03  0.48262265995E+03  0.50233581945E+03  0.00000000000E+00 0. -1.
         21    1    1    2  505  502 -0.66471633187E+02  0.20419300216E+02 -0.16441776769E+04  0.16456474893E+04  0.00000000000E+00 0.  1.
          1    1    1    2  501    0  0.56945738982E+02 -0.19106995425E+03  0.44139968480E+03  0.48433895811E+03  0.00000000000E+00 0. -1.
<scales pt_clust_3="50.65802" pt_clust_4="14000.00000" pt_clust_5="69.51743" pt_clust_6="166.03950"></scales>
<clustering>
<clus scale="   50.658">  1  3  2 -1</clus>
<clus scale="   69.517">  2  5  1 -1</clus>
<clus scale="  166.040">  2  6  1 -1</clus>
<clus scale="   69.517">  2  3  1 -1</clus>
</clustering>
</event>
<event>
 6    0  0.4945982E+002  0.1328388E+03  0.7546771E-02  0.1223303E+00
         21   -1    0    0  504  502  0.00000000000E+00  0.00000000000E+00  0.18245266718E+03  0.18245266718E+03  0.00000000000E+00 0. -1.
          2   -1    0    0  502    0 -0.00000000000E+00 -0.00000000000E+00 -0.43155654513E+03  0.43155654513E+03  0.00000000000E+00 0.  1.
         21    1    1    2  503  501  0.10945912984E+02  0.90177872229E+02 -0.96075293865E+02  0.13222073870E+03  0.00000000000E+00 0. -1.
         21    1    1    2  504  505 -0.28573247551E+02 -0.51147124026E+02  0.90805454919E+02  0.10806520909E+03  0.00000000000E+00 0. -1.
         21    1    1    2  505  503  0.77025783282E+01 -0.73018090065E+02  0.42748891632E+02  0.84961396678E+02  0.00000000000E+00 0. -1.
          2    1    1    2  501    0  0.99247562394E+01  0.33987341863E+02 -0.28658293063E+03  0.28876186785E+03  0.00000000000E+00 0.  1.
<scales pt_clust_3="118.64326" pt_clust_4="54.21498" pt_clust_5="54.21498" pt_clust_6="35.40678"></scales>
<clustering>
<clus scale="   35.407">  2  6  1 -1</clus>
<clus scale="   54.215">  4  5 -1 -1</clus>
<clus scale="  118.643">  2  3  1 -1</clus>
<clus scale="  132.839">  1  3  2 -1</clus>
</clustering>
</event>
<event>
 6    0  0.4945982E+002  0.9956681E+02  0.7546771E-02  0.1281210E+00
          2   -1    0    0  504    0 -0.00000000000E+00  0.00000000000E+00  0.23059112949E+04  0.23059112949E+04  0.00000000000E+00 0. -1.
         21   -1    0    0  503  502  0.00000000000E+00 -0.00000000000E+00 -0.16307550398E+03  0.16307550398E+03  0.00000000000E+00 0. -1.
         21    1    1    2  503  505 -0.65787219408E+02 -0.18193796148E+01 -0.64527336196E+02  0.92168571087E+02  0.00000000000E+00 0. -1.
         21    1    1    2  504  502  0.32803954908E+02 -0.14975504279E+02  0.59706730164E+02  0.69751407246E+02  0.00000000000E+00 0. -1.
         21    1    1    2  505  501 -0.35943351370E+02  0.88854338730E+02 -0.49343967075E+02  0.10780466180E+03  0.00000000000E+00 0. -1.
          2    1    1    2  501    0  0.68926615870E+02 -0.72059454836E+02  0.21970003640E+04  0.21992621587E+04  0.00000000000E+00 0. -1.
<scales pt_clust_3="50.38118" pt_clust_4="36.06058" pt_clust_5="99.56681" pt_clust_6="14000.00000"></scales>
<clustering>
<clus scale="   36.061">  2  4  1 -1</clus>
<clus scale="   50.381">  2  3  1 -1</clus>
<clus scale="   99.567">  2  5  1 -1</clus>
<clus scale="   36.061">  2  3  1 -1</clus>
</clustering>
</event>
<event>
 6    0  0.4945982E+002  0.9334859E+02  0.7546771E-02  0.1294939E+00
          2   -1    0    0  503    0 -0.00000000000E+00  0.00000000000E+00  0.11999449649E+04  0.11999449649E+04  0.00000000000E+00 0. -1.
         21   -1    0    0  501  502  0.00000000000E+00 -0.00000000000E+00 -0.12929989497E+03  0.12929989497E+03  0.00000000000E+00 0. -1.
         21    1    1    2  503  505 -0.35384755404E+02 -0.53586614714E+02  0.49452106170E+03  0.49867292553E+03  0.00000000000E+00 0. -1.
         21    1    1    2  504  502 -0.15037981454E+02 -0.48948482899E+02 -0.10403417645E+03  0.11595345935E+03  0.00000000000E+00 0. -1.
         21    1    1    2  505  504 -0.27226239394E+02  0.13278672082E+03  0.40126110722E+03  0.42353755146E+03  0.00000000000E+00 0. -1.
          2    1    1    2  501    0  0.77648976252E+02 -0.30251623206E+02  0.27889707744E+03  0.29108092350E+03  0.00000000000E+00 0. -1.
<scales pt_clust_3="69.51577" pt_clust_4="51.20639" pt_clust_5="14000.00000" pt_clust_6="93.34859"></scales>
<clustering>
<clus scale="   51.206">  2  4  1 -1</clus>
<clus scale="   69.516">  1  3  2 -1</clus>
<clus scale="   93.349">  1  6  2 -1</clus>
<clus scale="   51.206">  2  3  1 -1</clus>
</clustering>
</event>
<event>
 6    0  0.4945982E+002  0.1482362E+03  0.7546771E-02  0.1202657E+00
          1   -1    0    0  504    0 -0.00000000000E+00  0.00000000000E+00  0.37458303311E+03  0.37458303311E+03  0.00000000000E+00 0.  1.
         21   -1    0    0  501  502  0.00000000000E+00 -0.00000000000E+00 -0.30724506545E+03  0.30724506545E+03  0.00000000000E+00 0.  1.
         21    1    1    2  503  502 -0.29889489907E+02 -0.20488492746E+02 -0.70120048395E+02  0.78930229500E+02  0.00000000000E+00 0.  1.
         21    1    1    2  504  505  0.69076541692E+02 -0.34069213104E+02 -0.73839643570E+02  0.10669851384E+03  0.00000000000E+00 0.  1.
         21    1    1    2  505  503  0.54125968391E+02 -0.54200487754E+02 -0.11594084170E+03  0.13895895834E+03  0.00000000000E+00 0.  1.
          1    1    1    2  501    0 -0.93313020176E+02  0.10875819360E+03  0.32723850133E+03  0.35724039688E+03  0.00000000000E+00 0.  1.
<scales pt_clust_3="36.23755" pt_clust_4="35.81215" pt_clust_5="35.81215" pt_clust_6="143.57373"></scales>
<clustering>
<clus scale="   36.238">  2  3  1 -1</clus>
<clus scale="   35.812">  4  5 -1 -1</clus>
<clus scale="  143.574">  1  6  2 -1</clus>
<clus scale="   36.238">  2  3  1 -1</clus>
</clustering>
</event>
<event>
 6    0  0.4945982E+002  0.8000141E+02  0.7546771E-02  0.1329047E+00
         21   -1    0    0  505  502  0.00000000000E+00  0.00000000000E+00  0.78840220979E+02  0.78840220979E+02  0.00000000000E+00 0.  1.
          2   -1    0    0  504    0 -0.00000000000E+00 -0.00000000000E+00 -0.49840940948E+03  0.49840940948E+03  0.00000000000E+00 0. -1.
         21    1    1    2  503  502 -0.26164612654E+02 -0.44013410763E+02 -0.28122572386E+02  0.58417859940E+02  0.00000000000E+00 0. -1.
         21    1    1    2  504  503  0.43727796420E+02 -0.68737672204E+02 -0.42506585903E+01  0.81578525717E+02  0.00000000000E+00 0.  1.
         21    1    1    2  505  501  0.33829039649E+02  0.51562041530E+02 -0.25327738296E+02  0.66667401161E+02  0.00000000000E+00 0.  1.
          2    1    1    2  501    0 -0.51392223415E+02  0.61189041437E+02 -0.36186821923E+03  0.37058584364E+03  0.00000000000E+00 0. -1.
<scales pt_clust_3="51.20320" pt_clust_4="80.00141" pt_clust_5="45.07445" pt_clust_6="14000.00000"></scales>
<clustering>
<clus scale="   51.203">  1  3  2 -1</clus>
<clus scale="   45.074">  1  5  2 -1</clus>
<clus scale="   80.001">  1  4  2 -1</clus>
<clus scale="   51.203">  1  3  2 -1</clus>
</clustering>
</event>
<event>
 6    0  0.4945982E+002  0.1023248E+03  0.7546771E-02  0.1275482E+00
         21   -1    0    0  503  502  0.00000000000E+00  0.00000000000E+00  0.63826139939E+03  0.63826139939E+03  0.00000000000E+00 0.  1.
          1   -1    0    0  505    0 -0.00000000000E+00 -0.00000000000E+00 -0.30317438998E+03  0.30317438998E+03  0.00000000000E+00 0. -1.
         21    1    1    2  503  501 -0.78930457145E+02 -0.15035097679E+02  0.22682977435E+02  0.83490051459E+02  0.00000000000E+00 0. -1.
         21    1    1    2  504  502  0.19824780008E+02 -0.28561203641E+02  0.18126725466E+03  0.18457134628E+03  0.00000000000E+00 0.  1.
         21    1    1    2  505  504  0.93060922167E+02  0.17926292028E+02  0.39494368672E+03  0.40615539251E+03  0.00000000000E+00 0.  1.
          1    1    1    2  501    0 -0.33955245030E+02  0.25670009293E+02 -0.26380690941E+03  0.26721899913E+03  0.00000000000E+00 0. -1.
<scales pt_clust_3="14000.00000" pt_clust_4="34.76729" pt_clust_5="102.32482" pt_clust_6="42.44275"></scales>
<clustering>
<clus scale="   34.767">  1  4  2 -1</clus>
<clus scale="   42.443">  2  6  1 -1</clus>
<clus scale="  102.325">  1  5  2 -1</clus>
<clus scale="   34.767">  1  3  2 -1</clus>
</clustering>
</event>
<event>
 6    0  0.4945982E+002  0.1097091E+03  0.7546771E-02  0.1261109E+00
         21   -1    0    0  504  502  0.00000000000E+00  0.00000000000E+00  0.17473251371E+04  0.17473251371E+04  0.00000000000E+00 0. -1.
         -1   -1    0    0    0  501 -0.00000000000E+00 -0.00000000000E+00 -0.46687876703E+02  0.46687876703E+02  0.00000000000E+00 0. -1.
         21    1    1    2  503  502  0.59106621350E+02  0.66150391034E+02  0.48175972446E+03  0.48985906038E+03  0.00000000000E+00 0. -1.
         21    1    1    2  504  501 -0.57065424184E+02  0.67683523392E+02  0.10655235610E+04  0.10691950154E+04  0.00000000000E+00 0. -1.
         21    1    1    2  505  503 -0.10774050823E+02 -0.97928641625E+02  0.16836731749E+03  0.19507345442E+03  0.00000000000E+00 0. -1.
         -1    1    1    2    0  505  0.87328536575E+01 -0.35905272801E+02 -0.15013342529E+02  0.39885483597E+02  0.00000000000E+00 0. -1.
<scales pt_clust_3="84.54197" pt_clust_4="109.70912" pt_clust_5="14000.00000" pt_clust_6="36.95201"></scales>
<clustering>
<clus scale="   36.952">  2  6  1 -1</clus>
<clus scale="   84.542">  1  3  2 -1</clus>
<clus scale="  109.709">  1  4  2 -1</clus>
<clus scale="   84.542">  1  3  2 -1</clus>
</clustering>
</event>
<event>
 6    0  0.4945982E+002  0.1739431E+03  0.7546771E-02  0.1173797E+00
         21   -1    0    0  504  502  0.00000000000E+00  0.00000000000E+00  0.30375877381E+03  0.30375877381E+03  0.00000000000E+00 0.  1.
          1   -1    0    0  505    0 -0.00000000000E+00 -0.00000000000E+00 -0.21608569889E+04  0.21608569889E+04  0.00000000000E+00 0. -1.
         21    1    1    2  503  501 -0.18136084858E+03  0.40217339924E+02 -0.75121322679E+02  0.20038065013E+03  0.00000000000E+00 0. -1.
         21    1    1    2  504  503  0.54880501961E+02  0.23800660871E+02  0.56588160581E+01  0.60086297545E+02  0.00000000000E+00 0.  1.
         21    1    1    2  505  502 -0.16169946107E+02  0.35666808270E+02  0.20258424896E+03  0.20633459791E+03  0.00000000000E+00 0.  1.
          1    1    1    2  501    0  0.14265029272E+03 -0.99684809065E+02 -0.19902199574E+04  0.19978142171E+04  0.00000000000E+00 0. -1.
<scales pt_clust_3="173.94313" pt_clust_4="60.99921" pt_clust_5="39.16106" pt_clust_6="14000.00000"></scales>
<clustering>
<clus scale="   39.161">  1  5  2 -1</clus>
<clus scale="   60.999">  1  4  2 -1</clus>
<clus scale="  173.943">  1  3  2 -1</clus>
<clus scale="   39.161">  1  3  2 -1</clus>
</clustering>
</event>
<event>
 6    0  0.4945982E+002  0.3397169E+03  0.7546771E-02  0.1066917E+00
          2   -1    0    0  503    0 -0.00000000000E+00  0.00000000000E+00  0.23304109422E+04  0.23304109422E+04  0.00000000000E+00 0.  1.
         21   -1    0    0  505  502  0.00000000000E+00 -0.00000000000E+00 -0.18360916723E+03  0.18360916723E+03  0.00000000000E+00 0. -1.
         21    1    1    2  503  504  0.35950955750E+02 -0.60272002960E+02 -0.10809204199E+01  0.70187990063E+02  0.00000000000E+00 0. -1.
         21    1    1    2  504  502  0.24592544567E+03 -0.19876911303E+03  0.11234507937E+03  0.33557398883E+03  0.00000000000E+00 0. -1.
         21    1    1    2  505  501 -0.18255373450E+03  0.16027713486E+03  0.40903479054E+03  0.47573531066E+03  0.00000000000E+00 0.  1.
          2    1    1    2  501    0 -0.99322666914E+02  0.98763981129E+02  0.16265028255E+04  0.16325228199E+04  0.00000000000E+00 0.  1.
<scales pt_clust_3="35.58785" pt_clust_4="35.58785" pt_clust_5="331.21160" pt_clust_6="140.06897"></scales>
<clustering>
<clus scale="   35.588">  3  4 -1 -1</clus>
<clus scale="  140.069">  1  6  2 -1</clus>
<clus scale="  331.212">  1  5  2 -1</clus>
<clus scale="  339.717">  2  3  1 -1</clus>
</clustering>
</event>
<event>
 6    0  0.4945982E+002  0.1913945E+03  0.7546771E-02  0.1157210E+00
          1   -1    0    0  504    0 -0.00000000000E+00  0.00000000000E+00  0.14605093736E+04  0.14605093736E+04  0.00000000000E+00 0. -1.
         21   -1    0    0  503  502  0.00000000000E+00 -0.00000000000E+00 -0.72496073584E+02  0.72496073584E+02  0.00000000000E+00 0.  1.
         21    1    1    2  503  505 -0.77361342966E+02 -0.65613486385E+02  0.13944999958E+03  0.17244190141E+03  0.00000000000E+00 0. -1.
         21    1    1    2  504  502  0.12688307387E+03  0.17354546948E+03  0.19885353841E+03  0.29284821009E+03  0.00000000000E+00 0.  1.
         21    1    1    2  505  501 -0.15762923967E+02 -0.56686633350E+02  0.10000091599E+03  0.11602597714E+03  0.00000000000E+00 0. -1.
          1    1    1    2  501    0 -0.33758806940E+02 -0.51245349749E+02  0.94970884602E+03  0.95168935852E+03  0.00000000000E+00 0. -1.
<scales pt_clust_3="36.10576" pt_clust_4="185.43007" pt_clust_5="36.10576" pt_clust_6="61.36565"></scales>
<clustering>
<clus scale="   36.106">  3  5 -1 -1</clus>
<clus scale="   61.366">  1  6  2 -1</clus>
<clus scale="  185.430">  2  4  1 -1</clus>
<clus scale="  185.430">  2  3  1 -1</clus>
</clustering>
</event>
<event>
 6    0  0.4945982E+002  0.1141055E+03  0.7546771E-02  0.1253151E+00
         21   -1    0    0  505  502  0.00000000000E+00  0.00000000000E+00  0.41263282490E+03  0.41263282490E+03  0.00000000000E+00 0. -1.
          2   -1    0    0  503    0 -0.00000000000E+00 -0.00000000000E+00 -0.11134871846E+04  0.11134871846E+04  0.00000000000E+00 0. -1.
         21    1    1    2  503  504 -0.67070308024E+01  0.32784635042E+02 -0.24381264950E+02  0.41403654882E+02  0.00000000000E+00 0. -1.
         21    1    1    2  504  502 -0.72219500255E+02  0.85723453280E+02  0.36055569423E+03  0.37757724415E+03  0.00000000000E+00 0. -1.
         21    1    1    2  505  501  0.60224654348E+02 -0.18282848650E+03 -0.24165868196E+03  0.30895336709E+03  0.00000000000E+00 0. -1.
          2    1    1    2  501    0  0.18701876709E+02  0.64320398178E+02 -0.79537010703E+03  0.79818574341E+03  0.00000000000E+00 0. -1.
<scales pt_clust_3="33.46366" pt_clust_4="14000.00000" pt_clust_5="114.10545" pt_clust_6="89.55703"></scales>
<clustering>
<clus scale="   33.464">  2  3  1 -1</clus>
<clus scale="   89.557">  2  6  1 -1</clus>
<clus scale="  114.105">  2  5  1 -1</clus>
<clus scale="  114.105">  1  3  2 -1</clus>
</clustering>
</event>
<event>
 6    0  0.4945982E+002  0.1176523E+03  0.7546771E-02  0.1247021E+00
          1   -1    0    0  503    0 -0.00000000000E+00  0.00000000000E+00  0.16659641537E+04  0.16659641537E+04  0.00000000000E+00 0. -1.
         21   -1    0    0  505  502  0.00000000000E+00 -0.00000000000E+00 -0.12537143787E+03  0.12537143787E+03  0.00000000000E+00 0. -1.
         21    1    1    2  503  504  0.14277548582E+02 -0.55159069087E+02 -0.25069377738E+02  0.62248252957E+02  0.00000000000E+00 0. -1.
         21    1    1    2  504  502 -0.81492851213E+01 -0.31398710810E+02 -0.62466673757E+02  0.70387322856E+02  0.00000000000E+00 0. -1.
         21    1    1    2  505  501  0.94060046792E+02  0.13425508572E+03  0.52481569960E+03  0.54982109726E+03  0.00000000000E+00 0. -1.
          1    1    1    2  501    0 -0.10018831025E+03 -0.47697305818E+02  0.11033130677E+04  0.11088789185E+04  0.00000000000E+00 0. -1.
<scales pt_clust_3="78.84729" pt_clust_4="32.43902" pt_clust_5="117.65229" pt_clust_6="14000.00000"></scales>
<clustering>
<clus scale="   32.439">  2  4  1 -1</clus>
<clus scale="   78.847">  2  3  1 -1</clus>
<clus scale="  117.652">  2  5  1 -1</clus>
<clus scale="   32.439">  2  3  1 -1</clus>
</clustering>
</event>
<event>
 6    0  0.4945982E+002  0.1827151E+03  0.7546771E-02  0.1165201E+00
          2   -1    0    0  504    0 -0.00000000000E+00  0.00000000000E+00  0.26456234693E+04  0.26456234693E+04  0.00000000000E+00 0. -1.
         21   -1    0    0  505  502  0.00000000000E+00 -0.00000000000E+00 -0.34720446727E+02  0.34720446727E+02  0.00000000000E+00 0.  1.
         21    1    1    2  503  501 -0.44032234225E+02  0.30482728253E+02  0.37783422296E+03  0.38161071056E+03  0.00000000000E+00 0. -1.
         21    1    1    2  504  502  0.69865639457E+02 -0.14412113879E+03  0.20845858034E+03  0.26288227392E+03  0.00000000000E+00 0.  1.
         21    1    1    2  505  503  0.74196894174E+00  0.14713845255E+03  0.10450302518E+04  0.10553380984E+04  0.00000000000E+00 0. -1.
          2    1    1    2  501    0 -0.26575374173E+02 -0.33500042016E+02  0.97957996751E+03  0.98051283320E+03  0.00000000000E+00 0. -1.
<scales pt_clust_3="54.50746" pt_clust_4="162.87904" pt_clust_5="54.50746" pt_clust_6="42.76100"></scales>
<clustering>
<clus scale="   42.761">  1  6  2 -1</clus>
<clus scale="   54.507">  3  5 -1 -1</clus>
<clus scale="  162.879">  2  4  1 -1</clus>
<clus scale="  162.879">  2  3  1 -1</clus>
</clustering>
</event>
<event>
 6    0  0.4945982E+002  0.1092134E+03  0.7546771E-02  0.1262033E+00
         21   -1    0    0  504  502  0.00000000000E+00  0.00000000000E+00  0.36463512738E+03  0.36463512738E+03  0.00000000000E+00 0. -1.
          2   -1    0    0  505    0 -0.00000000000E+00 -0.00000000000E+00 -0.20715356864E+04  0.20715356864E+04  0.00000000000E+00 0. -1.
         21    1    1    2  503  502  0.61341432977E+02 -0.10967322195E+03  0.10072461068E+03  0.16104792520E+03  0.00000000000E+00 0. -1.
         21    1    1    2  504  501 -0.67976949097E+02  0.77220640251E+02  0.18918892777E+03  0.21535167350E+03  0.00000000000E+00 0. -1.
         21    1    1    2  505  503  0.25681782452E+02  0.79806054441E+02 -0.25263836632E+02  0.87560388971E+02  0.00000000000E+00 0. -1.
          2    1    1    2  501    0 -0.19046266332E+02 -0.47353472739E+02 -0.19715502608E+04  0.19722108261E+04  0.00000000000E+00 0. -1.
<scales pt_clust_3="109.21344" pt_clust_4="14000.00000" pt_clust_5="55.05516" pt_clust_6="51.04029"></scales>
<clustering>
<clus scale="   51.040">  2  6  1 -1</clus>
<clus scale="   55.055">  2  5  1 -1</clus>
<clus scale="  109.213">  2  3  1 -1</clus>
<clus scale="  109.213">  1  3  2 -1</clus>
</clustering>
</event>
<event>
 6    0  0.4945982E+002  0.1325115E+03  0.7546771E-02  0.1223776E+00
         21   -1    0    0  505  502  0.00000000000E+00  0.00000000000E+00  0.23474607089E+03  0.23474607089E+03  0.00000000000E+00 0.  1.
          2   -1    0    0  504    0 -0.00000000000E+00 -0.00000000000E+00 -0.16865305066E+04  0.16865305066E+04  0.00000000000E+00 0.  1.
         21    1    1    2  503  501 -0.11522191077E+03  0.19756874439E+02 -0.14899266083E+03  0.18938119176E+03  0.00000000000E+00 0. -1.
         21    1    1    2  504  502 -0.41261605540E+02  0.59756774279E+01  0.13363577887E+03  0.13998839312E+03  0.00000000000E+00 0.  1.
         21    1    1    2  505  503  0.16490943614E+03  0.35570448440E+02 -0.15257672190E+02  0.16939060036E+03  0.00000000000E+00 0. -1.
          2    1    1    2  501    0 -0.84259198249E+01 -0.61303000307E+02 -0.14211698815E+04  0.14225163922E+04  0.00000000000E+00 0.  1.
<scales pt_clust_3="132.51152" pt_clust_4="41.69207" pt_clust_5="14000.00000" pt_clust_6="61.87794"></scales>
<clustering>
<clus scale="   41.692">  1  4  2 -1</clus>
<clus scale="   61.878">  2  6  1 -1</clus>
<clus scale="  132.512">  2  3  1 -1</clus>
<clus scale="   41.692">  1  3  2 -1</clus>
</clustering>
</event>
<event>
 6    0  0.4945982E+002  0.1431627E+03  0.7546771E-02  0.1209136E+00
          2   -1    0    0  505    0 -0.00000000000E+00  0.00000000000E+00  0.33267040642E+04  0.33267040642E+04  0.00000000000E+00 0.  1.
         21   -1    0    0  503  502  0.00000000000E+00 -0.00000000000E+00 -0.23518846796E+03  0.23518846796E+03  0.00000000000E+00 0. -1.
         21    1    1    2  503  501 -0.58033217915E+02  0.27525952246E+02 -0.18371545329E+03  0.19461988647E+03  0.00000000000E+00 0. -1.
         21    1    1    2  504  502 -0.53498922325E+02 -0.13963326496E+02  0.51036353199E+02  0.75245056480E+02  0.00000000000E+00 0. -1.
         21    1    1    2  505  504 -0.17165878479E+02 -0.78267400217E+02  0.17394890907E+02  0.81994118999E+02  0.00000000000E+00 0. -1.
          2    1    1    2  501    0  0.12869801872E+03  0.64704774468E+02  0.32067998055E+04  0.32100334703E+04  0.00000000000E+00 0.  1.
<scales pt_clust_3="14000.00000" pt_clust_4="55.29113" pt_clust_5="84.06509" pt_clust_6="143.16272"></scales>
<clustering>
<clus scale="   55.291">  2  4  1 -1</clus>
<clus scale="   84.065">  2  5  1 -1</clus>
<clus scale="  143.163">  1  6  2 -1</clus>
<clus scale="   55.291">  2  3  1 -1</clus>
</clustering>
</event>
<event>
 6    0  0.4945982E+002  0.1510258E+03  0.7546771E-02  0.1199218E+00
          2   -1    0    0  504    0 -0.00000000000E+00  0.00000000000E+00  0.23988969144E+03  0.23988969144E+03  0.00000000000E+00 0.  1.
         21   -1    0    0  503  502  0.00000000000E+00 -0.00000000000E+00 -0.26182392799E+03  0.26182392799E+03  0.00000000000E+00 0.  1.
         21    1    1    2  503  501 -0.25901739427E+02 -0.25532761502E+02 -0.13329551439E+03  0.13816843406E+03  0.00000000000E+00 0.  1.
         21    1    1    2  504  505 -0.73653856948E+02  0.28379943375E+02 -0.70277105849E+00  0.78935452849E+02  0.00000000000E+00 0.  1.
         21    1    1    2  505  502 -0.40451098945E+02  0.30977652766E+02 -0.47496433172E+02  0.69654989346E+02  0.00000000000E+00 0.  1.
          2    1    1    2  501    0  0.14000669532E+03 -0.33824834638E+02  0.15956048207E+03  0.21495474317E+03  0.00000000000E+00 0.  1.
<scales pt_clust_3="36.37062" pt_clust_4="46.13311" pt_clust_5="46.13311" pt_clust_6="139.98603"></scales>
<clustering>
<clus scale="   36.371">  2  3  1 -1</clus>
<clus scale="   46.133">  4  5 -1 -1</clus>
<clus scale="  139.986">  1  6  2 -1</clus>
<clus scale="   36.371">  2  3  1 -1</clus>
</clustering>
</event>
<event>
 6    0  0.4945982E+002  0.1330016E+03  0.7546771E-02  0.1223069E+00
          2   -1    0    0  504    0 -0.00000000000E+00  0.00000000000E+00  0.86301293948E+03  0.86301293948E+03  0.00000000000E+00 0.  1.
         21   -1    0    0  505  502  0.00000000000E+00 -0.00000000000E+00 -0.27421524916E+03  0.27421524916E+03  0.00000000000E+00 0. -1.
         21    1    1    2  503  501  0.55702902868E+02  0.54519976402E+02  0.17175353027E+03  0.18861207908E+03  0.00000000000E+00 0.  1.
         21    1    1    2  504  502  0.97787008066E+02 -0.11491791341E+03 -0.42315513620E+02  0.15671320449E+03  0.00000000000E+00 0.  1.
         21    1    1    2  505  503 -0.12979988078E+03  0.31615304352E+02 -0.13876244470E+03  0.19262022890E+03  0.00000000000E+00 0. -1.
          2    1    1    2  501    0 -0.23690030152E+02  0.28782632653E+02  0.59812211838E+03  0.59928267617E+03  0.00000000000E+00 0.  1.
<scales pt_clust_3="84.03211" pt_clust_4="14000.00000" pt_clust_5="133.00157" pt_clust_6="37.27811"></scales>
<clustering>
<clus scale="   37.278">  1  6  2 -1</clus>
<clus scale="   84.032">  1  3  2 -1</clus>
<clus scale="  133.002">  2  5  1 -1</clus>
<clus scale="  133.002">  2  3  1 -1</clus>
</clustering>
</event>
<event>
 6    0  0.4945982E+002  0.7142699E+02  0.7546771E-02  0.1355307E+00
         21   -1    0    0  503  502  0.00000000000E+00  0.00000000000E+00  0.99588002293E+02  0.99588002293E+02  0.00000000000E+00 0.  1.
          2   -1    0    0  502    0 -0.00000000000E+00 -0.00000000000E+00 -0.84945322866E+03  0.84945322866E+03  0.00000000000E+00 0.  1.
         21    1    1    2  503  505 -0.47781353866E+02 -0.94776822389E+01  0.12466605987E+01  0.48728209494E+02  0.00000000000E+00 0.  1.
         21    1    1    2  504  501 -0.79651231808E+02 -0.30486012996E+02 -0.93970142787E+02  0.12690194424E+03  0.00000000000E+00 0.  1.
         21    1    1    2  505  504  0.99454597183E+02  0.21092856342E+02  0.12933906999E+02  0.10248615243E+03  0.00000000000E+00 0.  1.
          2    1    1    2  501    0  0.27977988490E+02  0.18870838892E+02 -0.67007565118E+03  0.67092492479E+03  0.00000000000E+00 0.  1.
<scales pt_clust_3="44.61809" pt_clust_4="14000.00000" pt_clust_5="71.42699" pt_clust_6="33.74724"></scales>
<clustering>
<clus scale="   33.747">  2  6  1 -1</clus>
<clus scale="   44.618">  1  3  2 -1</clus>
<clus scale="   71.427">  1  5  2 -1</clus>
<clus scale="   44.618">  1  3  2 -1</clus>
</clustering>
</event>
<event>
 6    0  0.4945982E+002  0.1031807E+03  0.7546771E-02  0.1273746E+00
          2   -1    0    0  504    0 -0.00000000000E+00  0.00000000000E+00  0.32803016660E+03  0.32803016660E+03  0.00000000000E+00 0. -1.
         21   -1    0    0  505  502  0.00000000000E+00 -0.00000000000E+00 -0.24570121619E+03  0.24570121619E+03  0.00000000000E+00 0. -1.
         21    1    1    2  503  501  0.87485536564E+01 -0.62820922492E+02 -0.81532792370E+02  0.10329860466E+03  0.00000000000E+00 0. -1.
         21    1    1    2  504  502  0.30848685545E+02  0.26650818190E+02 -0.14126296479E+01  0.40790967536E+02  0.00000000000E+00 0. -1.
         21    1    1    2  505  503 -0.14386418356E+02 -0.57936233047E+02 -0.11682493308E+03  0.13119314434E+03  0.00000000000E+00 0. -1.
          2    1    1    2  501    0 -0.25210820845E+02  0.94106337350E+02  0.28209930551E+03  0.29844866625E+03  0.00000000000E+00 0. -1.
<scales pt_clust_3="31.08257" pt_clust_4="40.76650" pt_clust_5="31.08257" pt_clust_6="98.08029"></scales>
<clustering>
<clus scale="   31.083">  3  5 -1 -1</clus>
<clus scale="   40.766">  2  4  1 -1</clus>
<clus scale="   98.080">  1  6  2 -1</clus>
<clus scale="   40.766">  2  3  1 -1</clus>
</clustering>
</event>
<event>
 6    0  0.4945982E+002  0.1341423E+03  0.7546771E-02  0.1221436E+00
          2   -1    0    0  505    0 -0.00000000000E+00  0.00000000000E+00  0.19154597360E+04  0.19154597360E+04  0.00000000000E+00 0.  1.
         21   -1    0    0  504  502  0.00000000000E+00 -0.00000000000E+00 -0.20310007496E+03  0.20310007496E+03  0.00000000000E+00 0.  1.
         21    1    1    2  503  501 -0.16263023472E+03 -0.43235386601E+02  0.26945304309E+03  0.31768354432E+03  0.00000000000E+00 0.  1.
         21    1    1    2  504  503  0.43314650379E+02  0.11406717226E+02 -0.16876488467E+03  0.17460772730E+03  0.00000000000E+00 0.  1.
         21    1    1    2  505  502  0.83770994762E+00 -0.34261790857E+02  0.63448415129E+02  0.72112921541E+02  0.00000000000E+00 0.  1.
          2    1    1    2  501    0  0.11847787440E+03  0.66090460232E+02  0.15482230875E+04  0.15541556178E+04  0.00000000000E+00 0.  1.
<scales pt_clust_3="14000.00000" pt_clust_4="44.77895" pt_clust_5="34.27203" pt_clust_6="134.14229"></scales>
<clustering>
<clus scale="   34.272">  1  5  2 -1</clus>
<clus scale="   44.779">  2  4  1 -1</clus>
<clus scale="  134.142">  1  6  2 -1</clus>
<clus scale="   44.779">  2  3  1 -1</clus>
</clustering>
</event>
<event>
 6    0  0.4945982E+002  0.1422332E+03  0.7546771E-02  0.1210355E+00
         21   -1    0    0  503  502  0.00000000000E+00  0.00000000000E+00  0.24619349387E+03  0.24619349387E+03  0.00000000000E+00 0.  1.
          2   -1    0    0  505    0 -0.00000000000E+00 -0.00000000000E+00 -0.12637504659E+04  0.12637504659E+04  0.00000000000E+00 0.  1.
         21    1    1    2  503  501 -0.11554975644E+03  0.73349465208E+02  0.21677722193E+03  0.25636742033E+03  0.00000000000E+00 0.  1.
         21    1    1    2  504  502  0.26887168513E+02 -0.54291660902E+02 -0.27213903337E+03  0.27880128722E+03  0.00000000000E+00 0. -1.
         21    1    1    2  505  504  0.25383842973E+02 -0.27824155506E+02 -0.63623490610E+02  0.73935591369E+02  0.00000000000E+00 0. -1.
          2    1    1    2  501    0  0.63278744951E+02  0.87663511998E+01 -0.89857166994E+03  0.90083966081E+03  0.00000000000E+00 0.  1.
<scales pt_clust_3="134.23381" pt_clust_4="37.07898" pt_clust_5="37.07898" pt_clust_6="63.88308"></scales>
<clustering>
<clus scale="   37.079">  4  5 -1 -1</clus>
<clus scale="   63.883">  2  6  1 -1</clus>
<clus scale="  134.234">  1  3  2 -1</clus>
<clus scale="  134.234">  1  3  2 -1</clus>
</clustering>
</event>
<event>
 6    0  0.4945982E+002  0.1115736E+03  0.7546771E-02  0.1257683E+00
         21   -1    0    0  501  502  0.00000000000E+00  0.00000000000E+00  0.21347314931E+04  0.21347314931E+04  0.00000000000E+00 0. -1.
          2   -1    0    0  503    0 -0.00000000000E+00 -0.00000000000E+00 -0.14859308175E+04  0.14859308175E+04  0.00000000000E+00 0. -1.
         21    1    1    2  503  505 -0.13288022398E+03  0.75489730997E+02 -0.40381500493E+03  0.43176661707E+03  0.00000000000E+00 0. -1.
         21    1    1    2  504  502  0.30902222708E+02 -0.14902340800E+02  0.20943039485E+04  0.20945849364E+04  0.00000000000E+00 0. -1.
         21    1    1    2  505  504  0.58817462243E+02 -0.57182671452E+02 -0.39251897730E+02  0.90939888138E+02  0.00000000000E+00 0.  1.
          2    1    1    2  501    0  0.43160539027E+02 -0.34047187451E+01 -0.10024363702E+04  0.10033708689E+04  0.00000000000E+00 0. -1.
<scales pt_clust_3="14000.00000" pt_clust_4="34.30783" pt_clust_5="111.57359" pt_clust_6="43.66575"></scales>
<clustering>
<clus scale="   34.308">  1  4  2 -1</clus>
<clus scale="   43.666">  2  6  1 -1</clus>
<clus scale="  111.574">  1  5  2 -1</clus>
<clus scale="   34.308">  1  3  2 -1</clus>
</clustering>
</event>
<event>
 6    0  0.4945982E+002  0.6152190E+02  0.7546771E-02  0.1391554E+00
          2   -1    0    0  504    0 -0.00000000000E+00  0.00000000000E+00  0.15639846680E+04  0.15639846680E+04  0.00000000000E+00 0. -1.
         21   -1    0    0  503  502  0.00000000000E+00 -0.00000000000E+00 -0.21569256909E+02  0.21569256909E+02  0.00000000000E+00 0. -1.
         21    1    1    2  503  501  0.32725690511E+02 -0.90686653809E+01  0.33009854855E+02  0.47358864310E+02  0.00000000000E+00 0.  1.
         21    1    1    2  504  505  0.65857719403E+02  0.55373480082E+02  0.41252802514E+03  0.42140578191E+03  0.00000000000E+00 0. -1.
         21    1    1    2  505  502 -0.72426794564E+02  0.52088111952E+01  0.13595512466E+03  0.15413165867E+03  0.00000000000E+00 0. -1.
          2    1    1    2  501    0 -0.26156615350E+02 -0.51513625896E+02  0.96092240645E+03  0.96265762003E+03  0.00000000000E+00 0. -1.
<scales pt_clust_3="33.95897" pt_clust_4="14000.00000" pt_clust_5="51.76769" pt_clust_6="61.52190"></scales>
<clustering>
<clus scale="   33.959">  2  3  1 -1</clus>
<clus scale="   51.768">  2  5  1 -1</clus>
<clus scale="   61.522">  1  6  2 -1</clus>
<clus scale="   33.959">  2  3  1 -1</clus>
</clustering>
</event>
<event>
 6    0  0.4945982E+002  0.6793997E+02  0.7546771E-02  0.1367242E+00
         21   -1    0    0  504  502  0.00000000000E+00  0.00000000000E+00  0.60134982578E+03  0.60134982578E+03  0.00000000000E+00 0.  1.
          2   -1    0    0  505    0 -0.00000000000E+00 -0.00000000000E+00 -0.15490486711E+04  0.15490486711E+04  0.00000000000E+00 0. -1.
         21    1    1    2  503  501 -0.61592397458E+02 -0.36228499691E+02 -0.39563528833E+02  0.81678641200E+02  0.00000000000E+00 0. -1.
         21    1    1    2  504  503 -0.67793211689E+02 -0.30023193853E+01  0.56698723399E+03  0.57103367412E+03  0.00000000000E+00 0.  1.
         21    1    1    2  505  502  0.72618407883E+02  0.43744537337E+02 -0.15777882252E+03  0.17911218424E+03  0.00000000000E+00 0. -1.
          2    1    1    2  501    0  0.56767201265E+02 -0.45137182599E+01 -0.13173437279E+04  0.13185739973E+04  0.00000000000E+00 0. -1.
<scales pt_clust_3="59.83868" pt_clust_4="14000.00000" pt_clust_5="67.93997" pt_clust_6="56.94637"></scales>
<clustering>
<clus scale="   56.946">  2  6  1 -1</clus>
<clus scale="   59.839">  2  3  1 -1</clus>
<clus scale="   67.940">  2  5  1 -1</clus>
<clus scale="   67.940">  1  3  2 -1</clus>
</clustering>
</event>
<event>
 6    0  0.4945982E+002  0.2148672E+03  0.7546771E-02  0.1137769E+00
          1   -1    0    0  504    0 -0.00000000000E+00  0.00000000000E+00  0.44189819477E+03  0.44189819477E+03  0.00000000000E+00 0. -1.
         21   -1    0    0  503  502  0.00000000000E+00 -0.00000000000E+00 -0.28872080752E+03  0.28872080752E+03  0.00000000000E+00 0.  1.
         21    1    1    2  503  505  0.84907436346E+02 -0.51971263349E+02 -0.70045163722E+02  0.12172349782E+03  0.00000000000E+00 0.  1.
         21    1    1    2  504  502 -0.85349053770E+02  0.12707704885E+03  0.22626464156E+02  0.15474170157E+03  0.00000000000E+00 0.  1.
         21    1    1    2  505  501  0.83268232721E+02 -0.13417825602E+03 -0.64215276171E+02  0.17047288542E+03  0.00000000000E+00 0.  1.
          1    1    1    2  501    0 -0.82826615297E+02  0.59072470518E+02  0.26481136299E+03  0.28368091748E+03  0.00000000000E+00 0. -1.
<scales pt_clust_3="52.77516" pt_clust_4="204.32755" pt_clust_5="52.77516" pt_clust_6="101.73399"></scales>
<clustering>
<clus scale="   52.775">  3  5 -1 -1</clus>
<clus scale="  101.734">  1  6  2 -1</clus>
<clus scale="  204.328">  1  4  2 -1</clus>
<clus scale="  214.867">  2  3  1 -1</clus>
</clustering>
</event>
<event>
 6    0  0.4945982E+002  0.1384467E+03  0.7546771E-02  0.1215434E+00
         -1   -1    0    0    0  501 -0.00000000000E+00  0.00000000000E+00  0.36702632806E+03  0.36702632806E+03  0.00000000000E+00 0.  1.
         21   -1    0    0  504  502  0.00000000000E+00 -0.00000000000E+00 -0.12961936820E+03  0.12961936820E+03  0.00000000000E+00 0. -1.
         21    1    1    2  503  501 -0.11333810739E+03  0.24995750307E+02 -0.20414624318E+02  0.11784341732E+03  0.00000000000E+00 0. -1.
         21    1    1    2  504  503 -0.50106390730E+02 -0.30944495065E+02  0.14465515640E+02  0.60642091897E+02  0.00000000000E+00 0. -1.
         21    1    1    2  505  502  0.51414544049E+02 -0.62405863483E+01  0.20444646555E+01  0.51832230257E+02  0.00000000000E+00 0.  1.
         -1    1    1    2    0  505  0.11202995407E+03  0.12189331107E+02  0.24131160388E+03  0.26632795679E+03  0.00000000000E+00 0.  1.
<scales pt_clust_3="50.73176" pt_clust_4="50.73176" pt_clust_5="51.79189" pt_clust_6="118.72363"></scales>
<clustering>
<clus scale="   50.732">  3  4 -1 -1</clus>
<clus scale="   51.792">  2  5  1 -1</clus>
<clus scale="  118.724">  1  6  2 -1</clus>
<clus scale="   51.792">  2  3  1 -1</clus>
</clustering>
</event>
<event>
 6    0  0.4945982E+002  0.1860615E+03  0.7546771E-02  0.1162062E+00
         21   -1    0    0  503  502  0.00000000000E+00  0.00000000000E+00  0.15739544817E+03  0.15739544817E+03  0.00000000000E+00 0. -1.
          1   -1    0    0  504    0 -0.00000000000E+00 -0.00000000000E+00 -0.14484665339E+04  0.14484665339E+04  0.00000000000E+00 0. -1.
         21    1    1    2  503  501 -0.32578857700E+02  0.17371923922E+02 -0.45001356425E+02  0.58209000936E+02  0.00000000000E+00 0.  1.
         21    1    1    2  504  505  0.16707677322E+03  0.59999042253E+02  0.63741552561E+02  0.18862003802E+03  0.00000000000E+00 0. -1.
         21    1    1    2  505  502  0.12244297725E+02  0.38503436941E+02 -0.47913229512E+01  0.40686536578E+02  0.00000000000E+00 0. -1.
          1    1    1    2  501    0 -0.14674221324E+03 -0.11587440312E+03 -0.13050199589E+04  0.13183464065E+04  0.00000000000E+00 0. -1.
<scales pt_clust_3="36.92107" pt_clust_4="186.06151" pt_clust_5="41.42481" pt_clust_6="14000.00000"></scales>
<clustering>
<clus scale="   36.921">  1  3  2 -1</clus>
<clus scale="   41.425">  1  5  2 -1</clus>
<clus scale="  186.062">  1  4  2 -1</clus>
<clus scale="   36.921">  1  3  2 -1</clus>
</clustering>
</event>
<event>
 6    0  0.4945982E+002  0.8635399E+02  0.7546771E-02  0.1311929E+00
         21   -1    0    0  505  502  0.00000000000E+00  0.00000000000E+00  0.11348680068E+04  0.11348680068E+04  0.00000000000E+00 0.  1.
         -1   -1    0    0    0  501 -0.00000000000E+00 -0.00000000000E+00 -0.35956370854E+02  0.35956370854E+02  0.00000000000E+00 0. -1.
         21    1    1    2  503  501 -0.10147225069E+03 -0.83938985251E+02  0.36389708609E+03  0.38699284253E+03  0.00000000000E+00 0.  1.
         21    1    1    2  504  502  0.41028107302E+02  0.38039412261E+02  0.21178256340E+03  0.21904829750E+03  0.00000000000E+00 0.  1.
         21    1    1    2  505  503  0.30283673547E+02  0.27025088169E+02  0.52740079490E+03  0.52896035271E+03  0.00000000000E+00 0.  1.
         -1    1    1    2    0  504  0.30160469843E+02  0.18874484822E+02 -0.41688084690E+01  0.35822884899E+02  0.00000000000E+00 0. -1.
<scales pt_clust_3="14000.00000" pt_clust_4="86.35399" pt_clust_5="42.30329" pt_clust_6="35.57949"></scales>
<clustering>
<clus scale="   35.579">  2  6  1 -1</clus>
<clus scale="   42.303">  1  5  2 -1</clus>
<clus scale="   86.354">  1  4  2 -1</clus>
<clus scale="   42.303">  1  3  2 -1</clus>
</clustering>
</event>
<event>
 6    0  0.4945982E+002  0.8565140E+02  0.7546771E-02  0.1313738E+00
          2   -1    0    0  504    0 -0.00000000000E+00  0.00000000000E+00  0.17509129499E+04  0.17509129499E+04  0.00000000000E+00 0. -1.
         21   -1    0    0  505  502  0.00000000000E+00 -0.00000000000E+00 -0.29917901571E+03  0.29917901571E+03  0.00000000000E+00 0. -1.
         21    1    1    2  503  502  0.14899263835E+02 -0.59012252856E+02  0.27255795171E+01  0.60925059160E+02  0.00000000000E+00 0. -1.
         21    1    1    2  504  503 -0.43055001616E+02 -0.50026639318E+02 -0.46560718980E+02  0.80773128933E+02  0.00000000000E+00 0. -1.
         21    1    1    2  505  501  0.94863678335E+02  0.76196742199E+02 -0.18758859482E+03  0.22359459272E+03  0.00000000000E+00 0. -1.
          2    1    1    2  501    0 -0.66707940554E+02  0.32842149976E+02  0.16831576685E+04  0.16847991848E+04  0.00000000000E+00 0. -1.
<scales pt_clust_3="60.86406" pt_clust_4="85.65140" pt_clust_5="14000.00000" pt_clust_6="74.23456"></scales>
<clustering>
<clus scale="   60.864">  2  3  1 -1</clus>
<clus scale="   74.235">  1  6  2 -1</clus>
<clus scale="   85.651">  1  4  2 -1</clus>
<clus scale="   60.864">  2  3  1 -1</clus>
</clustering>
</event>
<event>
 6    0  0.4945982E+002  0.9436375E+02  0.7546771E-02  0.1292616E+00
          1   -1    0    0  504    0 -0.00000000000E+00  0.00000000000E+00  0.14198591449E+04  0.14198591449E+04  0.00000000000E+00 0. -1.
         21   -1    0    0  503  502  0.00000000000E+00 -0.00000000000E+00 -0.14021344810E+03  0.14021344810E+03  0.00000000000E+00 0. -1.
         21    1    1    2  503  501 -0.24454224166E+02  0.77583816817E+02  0.18037222403E+02  0.83322260552E+02  0.00000000000E+00 0. -1.
         21    1    1    2  504  505 -0.39859356705E+02 -0.98099702379E+02  0.52767295648E+03  0.53819240883E+03  0.00000000000E+00 0. -1.
         21    1    1    2  505  502  0.25650350667E+02  0.19476703961E+02 -0.99316835362E+02  0.10440841093E+03  0.00000000000E+00 0. -1.
          1    1    1    2  501    0  0.38663230205E+02  0.10391816009E+01  0.83325235332E+03  0.83414951273E+03  0.00000000000E+00 0. -1.
<scales pt_clust_3="14000.00000" pt_clust_4="94.36375" pt_clust_5="32.20687" pt_clust_6="38.98385"></scales>
<clustering>
<clus scale="   32.207">  2  5  1 -1</clus>
<clus scale="   38.984">  1  6  2 -1</clus>
<clus scale="   94.364">  1  4  2 -1</clus>
<clus scale="   32.207">  2  3  1 -1</clus>
</clustering>
</event>
<event>
 6    0  0.4945982E+002  0.1237781E+03  0.7546771E-02  0.1236991E+00
         21   -1    0    0  505  502  0.00000000000E+00  0.00000000000E+00  0.47525504238E+03  0.47525504238E+03  0.00000000000E+00 0. -1.
         -3   -1    0    0    0  501 -0.00000000000E+00 -0.00000000000E+00 -0.46405479287E+03  0.46405479287E+03  0.00000000000E+00 0.  1.
         21    1    1    2  503  502  0.19208287345E+02 -0.26082447493E+02  0.25170345067E+03  0.25377919428E+03  0.00000000000E+00 0. -1.
         21    1    1    2  504  501 -0.90576931636E+02 -0.14570397335E+02  0.17225509172E+03  0.19516222392E+03  0.00000000000E+00 0. -1.
         21    1    1    2  505  504 -0.38382233864E+02 -0.20462965399E+02  0.13850983867E+02  0.45648423668E+02  0.00000000000E+00 0.  1.
         -3    1    1    2    0  503  0.10975087815E+03  0.61115810226E+02 -0.42660927674E+03  0.44471999339E+03  0.00000000000E+00 0.  1.
<scales pt_clust_3="32.39217" pt_clust_4="123.77809" pt_clust_5="43.08434" pt_clust_6="14000.00000"></scales>
<clustering>
<clus scale="   32.392">  1  3  2 -1</clus>
<clus scale="   43.084">  1  5  2 -1</clus>
<clus scale="  123.778">  1  4  2 -1</clus>
<clus scale="   32.392">  1  3  2 -1</clus>
</clustering>
</event>
<event>
 6    0  0.4945982E+002  0.1424052E+03  0.7546771E-02  0.1210129E+00
         21   -1    0    0  503  502  0.00000000000E+00  0.00000000000E+00  0.38807104614E+02  0.38807104614E+02  0.00000000000E+00 0. -1.
          2   -1    0    0  504    0 -0.00000000000E+00 -0.00000000000E+00 -0.16258744033E+04  0.16258744033E+04  0.00000000000E+00 0. -1.
         21    1    1    2  503  505 -0.28466231799E+02 -0.23876264745E+02 -0.13630868176E+02  0.39575281910E+02  0.00000000000E+00 0. -1.
         21    1    1    2  504  502  0.97732726316E+02  0.41505437013E+02 -0.28732964137E+03  0.30632125278E+03  0.00000000000E+00 0. -1.
         21    1    1    2  505  501 -0.81179743799E+02 -0.76376168039E+02 -0.18454151791E+03  0.21558998511E+03  0.00000000000E+00 0. -1.
          2    1    1    2  501    0  0.11913249282E+02  0.58746995770E+02 -0.11015652713E+04  0.11031949881E+04  0.00000000000E+00 0. -1.
<scales pt_clust_3="35.42246" pt_clust_4="128.51077" pt_clust_5="35.42246" pt_clust_6="59.94276"></scales>
<clustering>
<clus scale="   35.422">  3  5 -1 -1</clus>
<clus scale="   59.943">  2  6  1 -1</clus>
<clus scale="  128.511">  2  4  1 -1</clus>
<clus scale="  142.405">  1  3  2 -1</clus>
</clustering>
</event>
<event>
 6    0  0.4945982E+002  0.8931317E+02  0.7546771E-02  0.1304524E+00
          2   -1    0    0  503    0 -0.00000000000E+00  0.00000000000E+00  0.81323036274E+03  0.81323036274E+03  0.00000000000E+00 0.  1.
         21   -1    0    0  505  502  0.00000000000E+00 -0.00000000000E+00 -0.11042028280E+03  0.11042028280E+03  0.00000000000E+00 0. -1.
         21    1    1    2  503  502 -0.12829139571E+03 -0.33973275966E+01  0.10565709909E+03  0.16623371089E+03  0.00000000000E+00 0. -1.
         21    1    1    2  504  501  0.49894967745E+02 -0.55042185280E+01  0.54208696041E+02  0.73880897087E+02  0.00000000000E+00 0.  1.
         21    1    1    2  505  504  0.74769354629E+02 -0.39038317863E+02 -0.43651655271E+02  0.94973226022E+02  0.00000000000E+00 0. -1.
          2    1    1    2  501    0  0.36270733340E+01  0.47939863988E+02  0.58659594008E+03  0.58856281155E+03  0.00000000000E+00 0.  1.
<scales pt_clust_3="14000.00000" pt_clust_4="51.56492" pt_clust_5="89.31317" pt_clust_6="48.07688"></scales>
<clustering>
<clus scale="   48.077">  1  6  2 -1</clus>
<clus scale="   51.565">  1  4  2 -1</clus>
<clus scale="   89.313">  2  5  1 -1</clus>
<clus scale="   89.313">  2  3  1 -1</clus>
</clustering>
</event>
<event>
 6    0  0.4945982E+002  0.1454223E+03  0.7546771E-02  0.1206214E+00
         21   -1    0    0  503  502  0.00000000000E+00  0.00000000000E+00  0.87666234807E+02  0.87666234807E+02  0.00000000000E+00 0.  1.
          2   -1    0    0  505    0 -0.00000000000E+00 -0.00000000000E+00 -0.26175671331E+04  0.26175671331E+04  0.00000000000E+00 0.  1.
         21    1    1    2  503  501  0.34925440927E+02  0.43409241298E+02 -0.76750186131E+03  0.76952144595E+03  0.00000000000E+00 0. -1.
         21    1    1    2  504  502  0.76466542352E+01  0.30515271567E+02  0.65112889918E+02  0.72314186390E+02  0.00000000000E+00 0.  1.
         21    1    1    2  505  504 -0.25238262652E+02 -0.15769416333E+03 -0.36527359542E+03  0.39865927627E+03  0.00000000000E+00 0.  1.
          2    1    1    2  501    0 -0.17333832511E+02  0.83769650465E+02 -0.14622383314E+04  0.14647384593E+04  0.00000000000E+00 0.  1.
<scales pt_clust_3="49.16882" pt_clust_4="31.45875" pt_clust_5="132.11955" pt_clust_6="49.16882"></scales>
<clustering>
<clus scale="   31.459">  1  4  2 -1</clus>
<clus scale="   49.169">  3  6 -1 -1</clus>
<clus scale="  132.120">  1  5  2 -1</clus>
<clus scale="   31.459">  1  3  2 -1</clus>
</clustering>
</event>
<event>
 6    0  0.4945982E+002  0.1378977E+03  0.7546771E-02  0.1216186E+00
          2   -1    0    0  504    0 -0.00000000000E+00  0.00000000000E+00  0.10943567357E+04  0.10943567357E+04  0.00000000000E+00 0. -1.
         21   -1    0    0  503  502  0.00000000000E+00 -0.00000000000E+00 -0.10928598993E+03  0.10928598993E+03  0.00000000000E+00 0. -1.
         21    1    1    2  503  505 -0.51829457280E+02  0.14202285296E+02  0.40840613558E+01  0.53895056422E+02  0.00000000000E+00 0.  1.
         21    1    1    2  504  502  0.52035900281E+02 -0.14653604313E+03  0.48836005440E+02  0.16298927045E+03  0.00000000000E+00 0. -1.
         21    1    1    2  505  501  0.30550406907E+02  0.13473064810E+03  0.14972008519E+03  0.20371985375E+03  0.00000000000E+00 0. -1.
          2    1    1    2  501    0 -0.30756849908E+02 -0.23968902716E+01  0.78243059378E+03  0.78303854502E+03  0.00000000000E+00 0. -1.
<scales pt_clust_3="56.44904" pt_clust_4="137.89774" pt_clust_5="14000.00000" pt_clust_6="30.85010"></scales>
<clustering>
<clus scale="   30.850">  1  6  2 -1</clus>
<clus scale="   56.449">  2  3  1 -1</clus>
<clus scale="  137.898">  2  4  1 -1</clus>
<clus scale="   56.449">  2  3  1 -1</clus>
</clustering>
</event>
<event>
 6    0  0.4945982E+002  0.8937167E+02  0.7546771E-02  0.1304380E+00
          2   -1    0    0  503    0 -0.00000000000E+00  0.00000000000E+00  0.17316724881E+03  0.17316724881E+03  0.00000000000E+00 0. -1.
         21   -1    0    0  504  502  0.00000000000E+00 -0.00000000000E+00 -0.70490942827E+03  0.70490942827E+03  0.00000000000E+00 0. -1.
         21    1    1    2  503  502  0.10942782069E+02  0.36931954193E+02 -0.20388916159E+03  0.20749579257E+03  0.00000000000E+00 0. -1.
         21    1    1    2  504  505 -0.10284799452E+03 -0.68298410035E+02 -0.44459001188E+03  0.46141376383E+03  0.00000000000E+00 0. -1.
         21    1    1    2  505  501  0.58572509623E+02  0.98156792221E+01 -0.23162106354E+02  0.63746134101E+02  0.00000000000E+00 0.  1.
          2    1    1    2  501    0  0.33332702832E+02  0.21550776620E+02  0.13989910037E+03  0.14542098657E+03  0.00000000000E+00 0. -1.
<scales pt_clust_3="38.51900" pt_clust_4="14000.00000" pt_clust_5="89.37167" pt_clust_6="39.85459"></scales>
<clustering>
<clus scale="   38.519">  2  3  1 -1</clus>
<clus scale="   39.855">  1  6  2 -1</clus>
<clus scale="   89.372">  1  5  2 -1</clus>
<clus scale="   38.519">  2  3  1 -1</clus>
</clustering>
</event>
<event>
 6    0  0.4945982E+002  0.1925779E+03  0.7546771E-02  0.1156157E+00
         -4   -1    0    0    0  501 -0.00000000000E+00  0.00000000000E+00  0.78347843751E+03  0.78347843751E+03  0.00000000000E+00 0. -1.
         21   -1    0    0  503  502  0.00000000000E+00 -0.00000000000E+00 -0.62321424078E+03  0.62321424078E+03  0.00000000000E+00 0. -1.
         21    1    1    2  503  504 -0.23081585602E+03 -0.22004813606E+02 -0.46552344155E+03  0.52006946252E+03  0.00000000000E+00 0. -1.
         21    1    1    2  504  501  0.15805513072E+03 -0.21654023129E+02 -0.13045657654E+02  0.16006408169E+03  0.00000000000E+00 0. -1.
         21    1    1    2  505  502  0.32523079538E+02  0.22098937052E+02 -0.34119313517E+02  0.52059977683E+02  0.00000000000E+00 0. -1.
         -4    1    1    2    0  505  0.40237645764E+02  0.21559899683E+02  0.67295260945E+03  0.67449915639E+03  0.00000000000E+00 0. -1.
<scales pt_clust_3="192.57790" pt_clust_4="14000.00000" pt_clust_5="39.32065" pt_clust_6="45.70185"></scales>
<clustering>
<clus scale="   39.321">  2  5  1 -1</clus>
<clus scale="   45.702">  1  6  2 -1</clus>
<clus scale="  192.578">  2  3  1 -1</clus>
<clus scale="   39.321">  2  3  1 -1</clus>
</clustering>
</event>
<event>
 6    0  0.4945982E+002  0.1424894E+03  0.7546771E-02  0.1210018E+00
          2   -1    0    0  504    0 -0.00000000000E+00  0.00000000000E+00  0.26361540356E+04  0.26361540356E+04  0.00000000000E+00 0.  1.
         21   -1    0    0  505  502  0.00000000000E+00 -0.00000000000E+00 -0.61011868850E+02  0.61011868850E+02  0.00000000000E+00 0. -1.
         21    1    1    2  503  502 -0.12039182605E+03 -0.77706586097E+02  0.10203368212E+03  0.17590729828E+03  0.00000000000E+00 0. -1.
         21    1    1    2  504  503 -0.13373305604E+02 -0.49759634855E+02  0.33502344178E+02  0.61459528383E+02  0.00000000000E+00 0. -1.
         21    1    1    2  505  501  0.72501765155E+02  0.16593826946E+02  0.15748233044E+03  0.17416241111E+03  0.00000000000E+00 0.  1.
          2    1    1    2  501    0  0.61263366496E+02  0.11087239401E+03  0.22821238100E+04  0.22856366667E+04  0.00000000000E+00 0.  1.
<scales pt_clust_3="37.12163" pt_clust_4="37.12163" pt_clust_5="74.37648" pt_clust_6="128.33929"></scales>
<clustering>
<clus scale="   37.122">  3  4 -1 -1</clus>
<clus scale="   74.376">  2  5  1 -1</clus>
<clus scale="  128.339">  1  6  2 -1</clus>
<clus scale="   74.376">  2  3  1 -1</clus>
</clustering>
</event>
<event>
 6    0  0.4945982E+002  0.1979970E+03  0.7546771E-02  0.1151440E+00
         21   -1    0    0  504  502  0.00000000000E+00  0.00000000000E+00  0.21235869081E+03  0.21235869081E+03  0.00000000000E+00 0.  1.
          1   -1    0    0  505    0 -0.00000000000E+00 -0.00000000000E+00 -0.90587142777E+03  0.90587142777E+03  0.00000000000E+00 0.  1.
         21    1    1    2  503  502  0.17932315473E+02 -0.16390801241E+03  0.40486592799E+02  0.16978388812E+03  0.00000000000E+00 0.  1.
         21    1    1    2  504  501  0.65405584505E+02 -0.21061256289E+02  0.45503039328E+02  0.82413552217E+02  0.00000000000E+00 0.  1.
         21    1    1    2  505  503  0.92328609464E+02 -0.18820784679E+02 -0.11211722449E+03  0.14645499680E+03  0.00000000000E+00 0.  1.
          1    1    1    2  501    0 -0.17566650944E+03  0.20379005337E+03 -0.66738514460E+03  0.71957768144E+03  0.00000000000E+00 0.  1.
<scales pt_clust_3="197.99698" pt_clust_4="68.71293" pt_clust_5="102.13229" pt_clust_6="14000.00000"></scales>
<clustering>
<clus scale="   68.713">  1  4  2 -1</clus>
<clus scale="  102.132">  2  5  1 -1</clus>
<clus scale="  197.997">  1  3  2 -1</clus>
<clus scale="   68.713">  1  3  2 -1</clus>
</clustering>
</event>
<event>
 6    0  0.4945982E+002  0.9957125E+02  0.7546771E-02  0.1281200E+00
          2   -1    0    0  503    0 -0.00000000000E+00  0.00000000000E+00  0.26133213418E+04  0.26133213418E+04  0.00000000000E+00 0.  1.
         21   -1    0    0  504  502  0.00000000000E+00 -0.00000000000E+00 -0.27751932445E+03  0.27751932445E+03  0.00000000000E+00 0. -1.
         21    1    1    2  503  502  0.30279228925E+02  0.69467933247E+02 -0.78774082817E+02  0.10930682311E+03  0.00000000000E+00 0. -1.
         21    1    1    2  504  505 -0.46664427914E+02  0.39786563059E+02 -0.33773945226E+02  0.70008705235E+02  0.00000000000E+00 0. -1.
         21    1    1    2  505  501  0.11239750689E+03 -0.82507068631E+02 -0.93399911085E+02  0.16782180824E+03  0.00000000000E+00 0. -1.
          2    1    1    2  501    0 -0.96012307904E+02 -0.26747427675E+02  0.25417499565E+04  0.25437033297E+04  0.00000000000E+00 0.  1.
<scales pt_clust_3="86.72955" pt_clust_4="61.32324" pt_clust_5="99.57125" pt_clust_6="14000.00000"></scales>
<clustering>
<clus scale="   61.323">  2  4  1 -1</clus>
<clus scale="   86.730">  2  3  1 -1</clus>
<clus scale="   99.571">  2  5  1 -1</clus>
<clus scale="   61.323">  2  3  1 -1</clus>
</clustering>
</event>
<event>
 6    0  0.4945982E+002  0.1013367E+03  0.7546771E-02  0.1277510E+00
         21   -1    0    0  503  502  0.00000000000E+00  0.00000000000E+00  0.49049820358E+02  0.49049820358E+02  0.00000000000E+00 0.  1.
          2   -1    0    0  505    0 -0.00000000000E+00 -0.00000000000E+00 -0.84247124862E+03  0.84247124862E+03  0.00000000000E+00 0.  1.
         21    1    1    2  503  504 -0.34393498388E+02 -0.20724880985E+02 -0.54380108395E+02  0.67599035587E+02  0.00000000000E+00 0.  1.
         21    1    1    2  504  501 -0.35215192079E+02  0.14226459941E+02 -0.75670495279E+02  0.84667146942E+02  0.00000000000E+00 0.  1.
         21    1    1    2  505  502  0.90838211965E+02  0.10280242782E+03 -0.10637379340E+03  0.17359522989E+03  0.00000000000E+00 0.  1.
          2    1    1    2  501    0 -0.21229521499E+02 -0.96304006777E+02 -0.55699703119E+03  0.56565965656E+03  0.00000000000E+00 0.  1.
<scales pt_clust_3="79.19489" pt_clust_4="36.18370" pt_clust_5="14000.00000" pt_clust_6="101.33667"></scales>
<clustering>
<clus scale="   36.184">  3  4 -1 -1</clus>
<clus scale="   79.195">  1  3  2 -1</clus>
<clus scale="  101.337">  2  6  1 -1</clus>
<clus scale="   79.195">  1  3  2 -1</clus>
</clustering>
</event>
<event>
 6    0  0.4945982E+002  0.1102225E+03  0.7546771E-02  0.1260158E+00
         21   -1    0    0  503  502  0.00000000000E+00  0.00000000000E+00  0.28641283378E+02  0.28641283378E+02  0.00000000000E+00 0.  1.
          2   -1    0    0  504    0 -0.00000000000E+00 -0.00000000000E+00 -0.23101897178E+04  0.23101897178E+04  0.00000000000E+00 0.  1.
         21    1    1    2  503  501  0.43302490828E+02  0.17012843101E+00 -0.24468354656E+03  0.24848575937E+03  0.00000000000E+00 0. -1.
         21    1    1    2  504  505 -0.71322566423E+02 -0.53498023401E+02 -0.10811125199E+04  0.10847825716E+04  0.00000000000E+00 0.  1.
         21    1    1    2  505  502 -0.55950015373E+02  0.19340719665E+02 -0.15821091746E+02  0.61276215626E+02  0.00000000000E+00 0.  1.
          2    1    1    2  501    0  0.83970090968E+02  0.33987175305E+02 -0.93993127628E+03  0.94428645463E+03  0.00000000000E+00 0.  1.
<scales pt_clust_3="31.13752" pt_clust_4="100.60194" pt_clust_5="59.19854" pt_clust_6="31.13752"></scales>
<clustering>
<clus scale="   31.138">  3  6 -1 -1</clus>
<clus scale="   59.199">  1  5  2 -1</clus>
<clus scale="  100.602">  2  4  1 -1</clus>
<clus scale="   59.199">  1  3  2 -1</clus>
</clustering>
</event>
<event>
 6    0  0.4945982E+002  0.9522804E+02  0.7546771E-02  0.1290663E+00
         21   -1    0    0  504  502  0.00000000000E+00  0.00000000000E+00  0.14843223180E+03  0.14843223180E+03  0.00000000000E+00 0. -1.
          2   -1    0    0  503    0 -0.00000000000E+00 -0.00000000000E+00 -0.10055079173E+04  0.10055079173E+04  0.00000000000E+00 0. -1.
         21    1    1    2  503  502 -0.22461218488E+02  0.57515711939E+02  0.61850268718E+02  0.87395761890E+02  0.00000000000E+00 0. -1.
         21    1    1    2  504  505  0.31499435615E+02  0.44043521840E+02  0.25977627933E+02  0.60057334383E+02  0.00000000000E+00 0. -1.
         21    1    1    2  505  501 -0.32936861951E+02 -0.12307865965E+03 -0.10264014391E+03  0.16360987891E+03  0.00000000000E+00 0. -1.
          2    1    1    2  501    0  0.23898644824E+02  0.21519425866E+02 -0.84226343828E+03  0.84287717396E+03  0.00000000000E+00 0. -1.
<scales pt_clust_3="14000.00000" pt_clust_4="57.43734" pt_clust_5="95.22804" pt_clust_6="32.15946"></scales>
<clustering>
<clus scale="   32.159">  2  6  1 -1</clus>
<clus scale="   57.437">  1  4  2 -1</clus>
<clus scale="   95.228">  2  5  1 -1</clus>
<clus scale="   57.437">  1  3  2 -1</clus>
</clustering>
</event>
<event>
 6    0  0.4945982E+002  0.7950182E+02  0.7546771E-02  0.1330471E+00
          2   -1    0    0  504    0 -0.00000000000E+00  0.00000000000E+00  0.75278715293E+03  0.75278715293E+03  0.00000000000E+00 0. -1.
         21   -1    0    0  503  502  0.00000000000E+00 -0.00000000000E+00 -0.71210285692E+03  0.71210285692E+03  0.00000000000E+00 0.  1.
         21    1    1    2  503  501  0.14386433624E+02  0.65971211405E+02 -0.24559191773E+03  0.25470484931E+03  0.00000000000E+00 0. -1.
         21    1    1    2  504  505 -0.25982839984E+02 -0.96762590092E+02 -0.31689974876E+03  0.33236058367E+03  0.00000000000E+00 0.  1.
         21    1    1    2  505  502  0.35668269599E+02 -0.19553266463E+02 -0.13323318426E+03  0.13930411722E+03  0.00000000000E+00 0. -1.
          2    1    1    2  501    0 -0.24071863238E+02  0.50344645150E+02  0.73640914676E+03  0.73852045965E+03  0.00000000000E+00 0. -1.
<scales pt_clust_3="14000.00000" pt_clust_4="79.50182" pt_clust_5="40.67623" pt_clust_6="55.74304"></scales>
<clustering>
<clus scale="   40.676">  2  5  1 -1</clus>
<clus scale="   55.743">  1  6  2 -1</clus>
<clus scale="   79.502">  1  4  2 -1</clus>
<clus scale="   40.676">  2  3  1 -1</clus>
</clustering>
</event>
<event>
 6    0  0.4945982E+002  0.1102030E+03  0.7546771E-02  0.1260194E+00
         21   -1    0    0  503  502  0.00000000000E+00  0.00000000000E+00  0.14962827254E+03  0.14962827254E+03  0.00000000000E+00 0.  1.
          2   -1    0    0  505    0 -0.00000000000E+00 -0.00000000000E+00 -0.83795070737E+03  0.83795070737E+03  0.00000000000E+00 0.  1.
         21    1    1    2  503  504 -0.33102172197E+02  0.17313068268E+02  0.36629987921E+01  0.37535499159E+02  0.00000000000E+00 0.  1.
         21    1    1    2  504  501  0.33689722635E+02  0.88810088528E+02  0.12876677166E+02  0.95854254211E+02  0.00000000000E+00 0. -1.
         21    1    1    2  505  502 -0.87879806696E+02 -0.16716812218E+03 -0.56492617521E+02  0.19712802270E+03  0.00000000000E+00 0.  1.
          2    1    1    2  501    0  0.87292256258E+02  0.61044965382E+02 -0.64836949326E+03  0.65706120384E+03  0.00000000000E+00 0.  1.
<scales pt_clust_3="37.35634" pt_clust_4="98.11166" pt_clust_5="14000.00000" pt_clust_6="110.20300"></scales>
<clustering>
<clus scale="   37.356">  1  3  2 -1</clus>
<clus scale="   98.112">  1  4  2 -1</clus>
<clus scale="  110.203">  2  6  1 -1</clus>
<clus scale="   37.356">  1  3  2 -1</clus>
</clustering>
</event>
<event>
 6    0  0.4945982E+002  0.1108811E+03  0.7546771E-02  0.1258947E+00
         21   -1    0    0  501  502  0.00000000000E+00  0.00000000000E+00  0.18783044043E+03  0.18783044043E+03  0.00000000000E+00 0.  1.
          1   -1    0    0  503    0 -0.00000000000E+00 -0.00000000000E+00 -0.27779407737E+03  0.27779407737E+03  0.00000000000E+00 0. -1.
         21    1    1    2  503  505  0.10577595542E+02  0.28129250297E+02 -0.27547273301E+02  0.40767542433E+02  0.00000000000E+00 0.  1.
         21    1    1    2  504  502 -0.10577993747E+02  0.36430249198E+02  0.11543019319E+02  0.39652216878E+02  0.00000000000E+00 0.  1.
         21    1    1    2  505  504 -0.49315678617E+02  0.60666757081E+02  0.12354410316E+03  0.14620409364E+03  0.00000000000E+00 0.  1.
          1    1    1    2  501    0  0.49316076822E+02 -0.12522625657E+03 -0.19750348612E+03  0.23900066485E+03  0.00000000000E+00 0. -1.
<scales pt_clust_3="30.05229" pt_clust_4="39.33679" pt_clust_5="110.88111" pt_clust_6="14000.00000"></scales>
<clustering>
<clus scale="   30.052">  2  3  1 -1</clus>
<clus scale="   39.337">  1  4  2 -1</clus>
<clus scale="  110.881">  1  5  2 -1</clus>
<clus scale="   39.337">  1  3  2 -1</clus>
</clustering>
</event>
<event>
 6    0  0.4945982E+002  0.1322666E+03  0.7546771E-02  0.1224131E+00
          2   -1    0    0  504    0 -0.00000000000E+00  0.00000000000E+00  0.12699609725E+04  0.12699609725E+04  0.00000000000E+00 0.  1.
         21   -1    0    0  505  502  0.00000000000E+00 -0.00000000000E+00 -0.77559217482E+02  0.77559217482E+02  0.00000000000E+00 0.  1.
         21    1    1    2  503  502 -0.51138718932E+02 -0.43207846646E+02  0.29331657077E+02  0.73091946839E+02  0.00000000000E+00 0.  1.
         21    1    1    2  504  503 -0.39162773210E+02 -0.78828764170E+02  0.53361660670E+01  0.88182603354E+02  0.00000000000E+00 0.  1.
         21    1    1    2  505  501  0.70616847828E+01  0.30023341067E+02  0.10889273022E+02  0.32708480059E+02  0.00000000000E+00 0.  1.
          2    1    1    2  501    0  0.83239807359E+02  0.92013269749E+02  0.11468446589E+04  0.11535371598E+04  0.00000000000E+00 0.  1.
<scales pt_clust_3="38.69957" pt_clust_4="38.69957" pt_clust_5="30.84264" pt_clust_6="125.43574"></scales>
<clustering>
<clus scale="   30.843">  2  5  1 -1</clus>
<clus scale="   38.700">  3  4 -1 -1</clus>
<clus scale="  125.436">  1  6  2 -1</clus>
<clus scale="   30.843">  2  3  1 -1</clus>
</clustering>
</event>
<event>
 6    0  0.5905944E+002  0.1376426E+03  0.7546771E-02  0.1216537E+00
         21   -1    0    0  504  502  0.00000000000E+00  0.00000000000E+00  0.11688607216E+04  0.11688607216E+04  0.00000000000E+00 0. -1.
          2   -1    0    0  503    0 -0.00000000000E+00 -0.00000000000E+00 -0.13061702133E+04  0.13061702133E+04  0.00000000000E+00 0.  1.
         21    1    1    2  503  502  0.14309985763E+02 -0.64691624650E+02 -0.77354026710E+02  0.10185002425E+03  0.00000000000E+00 0. -1.
         21    1    1    2  504  505  0.12605313220E+01  0.68991942805E+02  0.85262466763E+03  0.85541235726E+03  0.00000000000E+00 0. -1.
         21    1    1    2  505  501  0.19454986429E+02  0.53835292501E+02  0.29892864984E+03  0.30436010401E+03  0.00000000000E+00 0. -1.
          2    1    1    2  501    0 -0.35025503514E+02 -0.58135610656E+02 -0.12115087824E+04  0.12134084494E+04  0.00000000000E+00 0.  1.
<scales pt_clust_3="66.25543" pt_clust_4="53.74096" pt_clust_5="53.74096" pt_clust_6="124.35446"></scales>
<clustering>
<clus scale="   53.741">  4  5 -1 -1</clus>
<clus scale="   66.255">  2  3  1 -1</clus>
<clus scale="  124.354">  2  6  1 -1</clus>
<clus scale="  137.643">  1  3  2 -1</clus>
</clustering>
</event>
<event>
 6    0  0.4945982E+002  0.1711137E+03  0.7546771E-02  0.1176691E+00
         21   -1    0    0  503  502  0.00000000000E+00  0.00000000000E+00  0.41907445803E+03  0.41907445803E+03  0.00000000000E+00 0.  1.
          2   -1    0    0  504    0 -0.00000000000E+00 -0.00000000000E+00 -0.21548894389E+03  0.21548894389E+03  0.00000000000E+00 0.  1.
         21    1    1    2  503  505 -0.18569313495E+01 -0.73408916108E+02  0.79607193115E+02  0.10830338108E+03  0.00000000000E+00 0. -1.
         21    1    1    2  504  502  0.14680846911E+02  0.17268052713E+03  0.11345489936E+03  0.20713789104E+03  0.00000000000E+00 0.  1.
         21    1    1    2  505  501 -0.39894973267E+02 -0.82898446468E+02  0.15007505901E+03  0.17602921535E+03  0.00000000000E+00 0.  1.
          2    1    1    2  501    0  0.27071057705E+02 -0.16373164553E+02 -0.13955163734E+03  0.14309291445E+03  0.00000000000E+00 0.  1.
<scales pt_clust_3="39.80393" pt_clust_4="165.42078" pt_clust_5="39.80393" pt_clust_6="31.63736"></scales>
<clustering>
<clus scale="   31.637">  2  6  1 -1</clus>
<clus scale="   39.804">  3  5 -1 -1</clus>
<clus scale="  165.421">  2  4  1 -1</clus>
<clus scale="  171.114">  1  3  2 -1</clus>
</clustering>
</event>
<event>
 6    0  0.4945982E+002  0.1192660E+03  0.7546771E-02  0.1244313E+00
          4   -1    0    0  503    0 -0.00000000000E+00  0.00000000000E+00  0.15839101549E+03  0.15839101549E+03  0.00000000000E+00 0. -1.
         21   -1    0    0  505  502  0.00000000000E+00 -0.00000000000E+00 -0.31099294728E+03  0.31099294728E+03  0.00000000000E+00 0. -1.
         21    1    1    2  503  502 -0.87300003167E+02  0.44743203039E+02 -0.14394504921E+03  0.17419363353E+03  0.00000000000E+00 0.  1.
         21    1    1    2  504  501  0.13463486102E+02 -0.42254694476E+02 -0.41404029688E+01  0.44540628644E+02  0.00000000000E+00 0. -1.
         21    1    1    2  505  504  0.64557124658E+02 -0.80512030500E+02 -0.88277024413E+02  0.13580369081E+03  0.00000000000E+00 0. -1.
          4    1    1    2  501    0  0.92793924072E+01  0.78023521937E+02  0.83760544794E+02  0.11484600978E+03  0.00000000000E+00 0. -1.
<scales pt_clust_3="106.77159" pt_clust_4="34.83764" pt_clust_5="34.83764" pt_clust_6="78.57339"></scales>
<clustering>
<clus scale="   34.838">  4  5 -1 -1</clus>
<clus scale="   78.573">  1  6  2 -1</clus>
<clus scale="  106.772">  2  3  1 -1</clus>
<clus scale="  106.772">  2  3  1 -1</clus>
</clustering>
</event>
<event>
 6    0  0.4945982E+002  0.1021155E+03  0.7546771E-02  0.1275909E+00
         21   -1    0    0  504  502  0.00000000000E+00  0.00000000000E+00  0.20500360763E+03  0.20500360763E+03  0.00000000000E+00 0.  1.
         -2   -1    0    0    0  501 -0.00000000000E+00 -0.00000000000E+00 -0.69746703020E+03  0.69746703020E+03  0.00000000000E+00 0. -1.
         21    1    1    2  503  505 -0.51812333671E+02  0.15752031574E+03  0.82227925234E+02  0.18509078712E+03  0.00000000000E+00 0.  1.
         21    1    1    2  504  501  0.84271339793E+01 -0.36260917471E+02 -0.27058316007E+01  0.37325490588E+02  0.00000000000E+00 0.  1.
         21    1    1    2  505  502  0.31176575705E+02 -0.21734393957E+02  0.42746571895E+02  0.57198183207E+02  0.00000000000E+00 0.  1.
         -2    1    1    2    0  503  0.12208623986E+02 -0.99525004308E+02 -0.61473208810E+03  0.62285617692E+03  0.00000000000E+00 0. -1.
<scales pt_clust_3="102.11550" pt_clust_4="37.22728" pt_clust_5="45.84933" pt_clust_6="14000.00000"></scales>
<clustering>
<clus scale="   37.227">  1  4  2 -1</clus>
<clus scale="   45.849">  1  5  2 -1</clus>
<clus scale="  102.115">  1  3  2 -1</clus>
<clus scale="   37.227">  1  3  2 -1</clus>
</clustering>
</event>
<event>
 6    0  0.4945982E+002  0.9040391E+02  0.7546771E-02  0.1301877E+00
         21   -1    0    0  505  502  0.00000000000E+00  0.00000000000E+00  0.27386041436E+02  0.27386041436E+02  0.00000000000E+00 0. -1.
          2   -1    0    0  503    0 -0.00000000000E+00 -0.00000000000E+00 -0.12860547986E+04  0.12860547986E+04  0.00000000000E+00 0. -1.
         21    1    1    2  503  504 -0.17130429061E+02 -0.95412301395E+02 -0.23436058436E+03  0.25361751193E+03  0.00000000000E+00 0. -1.
         21    1    1    2  504  502 -0.19653904857E+02  0.35727663428E+02 -0.97143369544E+02  0.10535452604E+03  0.00000000000E+00 0.  1.
         21    1    1    2  505  501  0.20115264843E+02 -0.27678187216E+02 -0.13977177477E+02  0.36960349261E+02  0.00000000000E+00 0. -1.
          2    1    1    2  501    0  0.16669069075E+02  0.87362825183E+02 -0.91318762577E+03  0.91750845279E+03  0.00000000000E+00 0. -1.
<scales pt_clust_3="90.40391" pt_clust_4="32.02743" pt_clust_5="34.21558" pt_clust_6="14000.00000"></scales>
<clustering>
<clus scale="   34.216">  1  5  2 -1</clus>
<clus scale="   32.027">  1  4  2 -1</clus>
<clus scale="   90.404">  1  3  2 -1</clus>
<clus scale="   34.216">  1  3  2 -1</clus>
</clustering>
</event>
<event>
 6    0  0.4945982E+002  0.8861614E+02  0.7546771E-02  0.1306238E+00
         21   -1    0    0  505  502  0.00000000000E+00  0.00000000000E+00  0.61570571931E+02  0.61570571931E+02  0.00000000000E+00 0.  1.
          1   -1    0    0  503    0 -0.00000000000E+00 -0.00000000000E+00 -0.21840637093E+04  0.21840637093E+04  0.00000000000E+00 0.  1.
         21    1    1    2  503  504  0.36893573162E+02 -0.12693204069E+02 -0.15895392188E+03  0.16367224093E+03  0.00000000000E+00 0.  1.
         21    1    1    2  504  502 -0.84280951120E+02 -0.25736885397E+02  0.21340427672E+02  0.90670170645E+02  0.00000000000E+00 0.  1.
         21    1    1    2  505  501  0.94244423419E+02  0.46372174922E+02 -0.10597948109E+04  0.10649870568E+04  0.00000000000E+00 0.  1.
          1    1    1    2  501    0 -0.46857045461E+02 -0.79420854567E+01 -0.92508483228E+03  0.92630481287E+03  0.00000000000E+00 0.  1.
<scales pt_clust_3="39.01606" pt_clust_4="14000.00000" pt_clust_5="88.61614" pt_clust_6="32.97684"></scales>
<clustering>
<clus scale="   39.016">  2  3  1 -1</clus>
<clus scale="   32.977">  2  6  1 -1</clus>
<clus scale="   88.616">  2  5  1 -1</clus>
<clus scale="   88.616">  1  3  2 -1</clus>
</clustering>
</event>
<event>
 6    0  0.4945982E+002  0.1553764E+03  0.7546771E-02  0.1194018E+00
         21   -1    0    0  503  502  0.00000000000E+00  0.00000000000E+00  0.93884339610E+02  0.93884339610E+02  0.00000000000E+00 0.  1.
          2   -1    0    0  502    0 -0.00000000000E+00 -0.00000000000E+00 -0.15429998698E+04  0.15429998698E+04  0.00000000000E+00 0. -1.
         21    1    1    2  503  505 -0.36139026113E+02 -0.11374950094E+03 -0.98219506153E+00  0.11935636924E+03  0.00000000000E+00 0.  1.
         21    1    1    2  504  501 -0.34560351554E+02  0.12222800958E+03 -0.14853467203E+03  0.19543964035E+03  0.00000000000E+00 0.  1.
         21    1    1    2  505  504 -0.20661194518E+02 -0.38359554045E+02 -0.41010641372E+02  0.59834881559E+02  0.00000000000E+00 0. -1.
          2    1    1    2  501    0  0.91360572186E+02  0.29881045402E+02 -0.12585880218E+04  0.12622533183E+04  0.00000000000E+00 0. -1.
<scales pt_clust_3="38.12989" pt_clust_4="141.98290" pt_clust_5="38.12989" pt_clust_6="96.12300"></scales>
<clustering>
<clus scale="   38.130">  3  5 -1 -1</clus>
<clus scale="   96.123">  2  6  1 -1</clus>
<clus scale="  141.983">  2  4  1 -1</clus>
<clus scale="  155.376">  1  3  2 -1</clus>
</clustering>
</event>
<event>
 6    0  0.4945982E+002  0.1386137E+03  0.7546771E-02  0.1215207E+00
         21   -1    0    0  501  502  0.00000000000E+00  0.00000000000E+00  0.71212607380E+03  0.71212607380E+03  0.00000000000E+00 0.  1.
          2   -1    0    0  503    0 -0.00000000000E+00 -0.00000000000E+00 -0.89637819388E+03  0.89637819388E+03  0.00000000000E+00 0.  1.
         21    1    1    2  503  505  0.13070358831E+03  0.23634831126E+02  0.88688788746E+02  0.15971141001E+03  0.00000000000E+00 0.  1.
         21    1    1    2  504  502  0.28061765049E+02  0.51828381233E+02  0.52146290364E+03  0.52478300623E+03  0.00000000000E+00 0.  1.
         21    1    1    2  505  504 -0.20927733836E+02 -0.58401696682E+02  0.42796149851E+02  0.75367358060E+02  0.00000000000E+00 0.  1.
          2    1    1    2  501    0 -0.13783761952E+03 -0.17061515677E+02 -0.83719996232E+03  0.84864249338E+03  0.00000000000E+00 0.  1.
<scales pt_clust_3="14000.00000" pt_clust_4="58.93763" pt_clust_5="43.91615" pt_clust_6="138.61371"></scales>
<clustering>
<clus scale="   58.938">  1  4  2 -1</clus>
<clus scale="   43.916">  1  5  2 -1</clus>
<clus scale="  138.614">  2  6  1 -1</clus>
<clus scale="   58.938">  1  3  2 -1</clus>
</clustering>
</event>
<event>
 6    0  0.4945982E+002  0.1014228E+03  0.7546771E-02  0.1277332E+00
          1   -1    0    0  505    0 -0.00000000000E+00  0.00000000000E+00  0.29634135917E+04  0.29634135917E+04  0.00000000000E+00 0.  1.
         21   -1    0    0  504  502  0.00000000000E+00 -0.00000000000E+00 -0.30650428886E+02  0.30650428886E+02  0.00000000000E+00 0.  1.
         21    1    1    2  503  501 -0.49484422479E+01  0.95224827060E+02  0.38084140666E+03  0.39259703488E+03  0.00000000000E+00 0. -1.
         21    1    1    2  504  503 -0.30356600170E+02 -0.26903765442E+02  0.23886147027E+02  0.47073174830E+02  0.00000000000E+00 0.  1.
         21    1    1    2  505  502  0.13351529170E+02 -0.94317925690E+02  0.16068608327E+03  0.18679976390E+03  0.00000000000E+00 0.  1.
          1    1    1    2  501    0  0.21953513248E+02  0.25996864073E+02  0.23673495259E+04  0.23675940470E+04  0.00000000000E+00 0.  1.
<scales pt_clust_3="101.42282" pt_clust_4="38.55913" pt_clust_5="14000.00000" pt_clust_6="34.02637"></scales>
<clustering>
<clus scale="   34.026">  1  6  2 -1</clus>
<clus scale="   38.559">  2  4  1 -1</clus>
<clus scale="  101.423">  1  3  2 -1</clus>
<clus scale="   38.559">  2  3  1 -1</clus>
</clustering>
</event>
<event>
 6    0  0.4945982E+002  0.8694340E+02  0.7546771E-02  0.1310427E+00
         21   -1    0    0  503  502  0.00000000000E+00  0.00000000000E+00  0.19937444468E+02  0.19937444468E+02  0.00000000000E+00 0. -1.
          2   -1    0    0  505    0 -0.00000000000E+00 -0.00000000000E+00 -0.18643262750E+04  0.18643262750E+04  0.00000000000E+00 0. -1.
         21    1    1    2  503  501  0.14335416485E+02 -0.62270285777E+02 -0.10881135613E+03  0.12618638547E+03  0.00000000000E+00 0. -1.
         21    1    1    2  504  502  0.60273585322E+02  0.30822931080E+02 -0.31810732325E+03  0.32523103676E+03  0.00000000000E+00 0. -1.
         21    1    1    2  505  504 -0.12299484596E+03  0.13876555981E+02 -0.54585734000E+03  0.55971468319E+03  0.00000000000E+00 0. -1.
          2    1    1    2  501    0  0.48385844157E+02  0.17570798715E+02 -0.87161281120E+03  0.87313161409E+03  0.00000000000E+00 0. -1.
<scales pt_clust_3="63.44597" pt_clust_4="14000.00000" pt_clust_5="86.94340" pt_clust_6="51.47740"></scales>
<clustering>
<clus scale="   51.477">  2  6  1 -1</clus>
<clus scale="   63.446">  1  3  2 -1</clus>
<clus scale="   86.943">  2  5  1 -1</clus>
<clus scale="   63.446">  1  3  2 -1</clus>
</clustering>
</event>
<event>
 6    0  0.4945982E+002  0.3389069E+03  0.7546771E-02  0.1067262E+00
         21   -1    0    0  504  502  0.00000000000E+00  0.00000000000E+00  0.18089448983E+04  0.18089448983E+04  0.00000000000E+00 0. -1.
          2   -1    0    0  503    0 -0.00000000000E+00 -0.00000000000E+00 -0.16586681758E+04  0.16586681758E+04  0.00000000000E+00 0. -1.
         21    1    1    2  503  502 -0.13285234380E+03  0.40901053011E+03  0.58053085367E+02  0.43394644798E+03  0.00000000000E+00 0. -1.
         21    1    1    2  504  505 -0.54571988241E+01 -0.38729281968E+02  0.15131838026E+04  0.15136891883E+04  0.00000000000E+00 0. -1.
         21    1    1    2  505  501  0.57049118322E+02 -0.48571719836E+02 -0.16325951136E+02  0.76683443778E+02  0.00000000000E+00 0. -1.
          2    1    1    2  501    0  0.81260424306E+02 -0.32170952830E+03 -0.14046342143E+04  0.14432939940E+04  0.00000000000E+00 0. -1.
<scales pt_clust_3="14000.00000" pt_clust_4="39.11187" pt_clust_5="77.13886" pt_clust_6="338.90692"></scales>
<clustering>
<clus scale="   39.112">  1  4  2 -1</clus>
<clus scale="   77.139">  1  5  2 -1</clus>
<clus scale="  338.907">  2  6  1 -1</clus>
<clus scale="   39.112">  1  3  2 -1</clus>
</clustering>
</event>
<event>
 6    0  0.4945982E+002  0.1245154E+03  0.7546771E-02  0.1235829E+00
         21   -1    0    0  505  502  0.00000000000E+00  0.00000000000E+00  0.27407416789E+03  0.27407416789E+03  0.00000000000E+00 0. -1.
          1   -1    0    0  504    0 -0.00000000000E+00 -0.00000000000E+00 -0.96028151857E+03  0.96028151857E+03  0.00000000000E+00 0.  1.
         21    1    1    2  503  502 -0.10237629695E+03 -0.75926580416E+02  0.24387627149E+03  0.27517519435E+03  0.00000000000E+00 0. -1.
         21    1    1    2  504  503  0.38409666881E+01  0.63482474708E+02 -0.11450811087E+03  0.13098429324E+03  0.00000000000E+00 0.  1.
         21    1    1    2  505  501  0.87125808294E+02 -0.15384311089E+02 -0.32888826890E+03  0.34058049991E+03  0.00000000000E+00 0.  1.
          1    1    1    2  501    0  0.11409521968E+02  0.27828416797E+02 -0.48668724240E+03  0.48761569897E+03  0.00000000000E+00 0.  1.
<scales pt_clust_3="124.51539" pt_clust_4="71.02847" pt_clust_5="14000.00000" pt_clust_6="30.07654"></scales>
<clustering>
<clus scale="   30.077">  2  6  1 -1</clus>
<clus scale="   71.028">  2  4  1 -1</clus>
<clus scale="  124.515">  1  3  2 -1</clus>
<clus scale="  124.515">  1  3  2 -1</clus>
</clustering>
</event>
<event>
 6    0  0.4945982E+002  0.9153192E+02  0.7546771E-02  0.1299184E+00
         21   -1    0    0  504  502  0.00000000000E+00  0.00000000000E+00  0.66795303798E+02  0.66795303798E+02  0.00000000000E+00 0.  1.
          2   -1    0    0  503    0 -0.00000000000E+00 -0.00000000000E+00 -0.20349377812E+04  0.20349377812E+04  0.00000000000E+00 0.  1.
         21    1    1    2  503  505  0.11396587296E+02 -0.77700323522E+02 -0.88680256571E+02  0.11845425439E+03  0.00000000000E+00 0.  1.
         21    1    1    2  504  501 -0.93137058988E+02  0.90861111540E+01 -0.15417062953E+03  0.18034869609E+03  0.00000000000E+00 0.  1.
         21    1    1    2  505  502  0.88796948218E+02  0.26085185800E+02 -0.17003435782E+02  0.94098096471E+02  0.00000000000E+00 0.  1.
          2    1    1    2  501    0 -0.70564765260E+01  0.42529026568E+02 -0.17082881555E+04  0.17088320381E+04  0.00000000000E+00 0.  1.
<scales pt_clust_3="64.85463" pt_clust_4="91.53192" pt_clust_5="14000.00000" pt_clust_6="43.11046"></scales>
<clustering>
<clus scale="   43.110">  2  6  1 -1</clus>
<clus scale="   64.855">  2  3  1 -1</clus>
<clus scale="   91.532">  2  4  1 -1</clus>
<clus scale="   91.532">  1  3  2 -1</clus>
</clustering>
</event>
<event>
 6    0  0.4945982E+002  0.1240398E+03  0.7546771E-02  0.1236578E+00
         -3   -1    0    0    0  501 -0.00000000000E+00  0.00000000000E+00  0.12098404735E+04  0.12098404735E+04  0.00000000000E+00 0. -1.
         21   -1    0    0  504  502  0.00000000000E+00 -0.00000000000E+00 -0.52156987478E+03  0.52156987478E+03  0.00000000000E+00 0. -1.
         21    1    1    2  503  501  0.15453003360E+03  0.34970525263E+02  0.37403845509E+03  0.40621082557E+03  0.00000000000E+00 0. -1.
         21    1    1    2  504  503  0.32001759916E+02 -0.21569835362E+02  0.78902832670E+02  0.87835228916E+02  0.00000000000E+00 0. -1.
         21    1    1    2  505  502 -0.96291227842E+02 -0.44590918434E+02 -0.49224452973E+03  0.50355240802E+03  0.00000000000E+00 0. -1.
         -3    1    1    2    0  505 -0.90240565675E+02  0.31190228533E+02  0.72757384072E+03  0.73381188580E+03  0.00000000000E+00 0. -1.
<scales pt_clust_3="31.02632" pt_clust_4="31.02632" pt_clust_5="106.92926" pt_clust_6="95.47874"></scales>
<clustering>
<clus scale="   31.026">  3  4 -1 -1</clus>
<clus scale="   95.479">  1  6  2 -1</clus>
<clus scale="  106.929">  2  5  1 -1</clus>
<clus scale="  106.929">  2  3  1 -1</clus>
</clustering>
</event>
<event>
 6    0  0.4945982E+002  0.8910611E+02  0.7546771E-02  0.1305031E+00
          2   -1    0    0  504    0 -0.00000000000E+00  0.00000000000E+00  0.42296461290E+03  0.42296461290E+03  0.00000000000E+00 0. -1.
         21   -1    0    0  501  502  0.00000000000E+00 -0.00000000000E+00 -0.59152251674E+02  0.59152251674E+02  0.00000000000E+00 0. -1.
         21    1    1    2  503  505  0.10721836964E+02  0.36995344966E+02  0.60488062735E+02  0.71710662181E+02  0.00000000000E+00 0. -1.
         21    1    1    2  504  503  0.83746266354E+02  0.40523868351E+02  0.61597057695E+02  0.11157875493E+03  0.00000000000E+00 0. -1.
         21    1    1    2  505  502 -0.19782548981E+02 -0.30919934454E+02 -0.48327498519E+01  0.37023601418E+02  0.00000000000E+00 0. -1.
          2    1    1    2  501    0 -0.74685554338E+02 -0.46599278864E+02  0.24655999065E+03  0.26180384605E+03  0.00000000000E+00 0. -1.
<scales pt_clust_3="33.38455" pt_clust_4="14000.00000" pt_clust_5="36.70683" pt_clust_6="89.10611"></scales>
<clustering>
<clus scale="   36.707">  2  5  1 -1</clus>
<clus scale="   33.385">  2  3  1 -1</clus>
<clus scale="   89.106">  1  6  2 -1</clus>
<clus scale="   36.707">  2  3  1 -1</clus>
</clustering>
</event>
<event>
 6    0  0.4945982E+002  0.2112834E+03  0.7546771E-02  0.1140554E+00
         21   -1    0    0  504  502  0.00000000000E+00  0.00000000000E+00  0.69658886481E+02  0.69658886481E+02  0.00000000000E+00 0.  1.
          2   -1    0    0  505    0 -0.00000000000E+00 -0.00000000000E+00 -0.49185494777E+04  0.49185494777E+04  0.00000000000E+00 0. -1.
         21    1    1    2  503  501  0.21473032205E+02  0.29387142049E+02 -0.75165805960E+03  0.75253872578E+03  0.00000000000E+00 0. -1.
         21    1    1    2  504  503 -0.11830376266E+02  0.14337225199E+03 -0.18739489787E+04  0.18794627784E+04  0.00000000000E+00 0. -1.
         21    1    1    2  505  502 -0.11784305920E+02 -0.20379858619E+03 -0.90674711618E+02  0.22337107451E+03  0.00000000000E+00 0.  1.
          2    1    1    2  501    0  0.21416499805E+01  0.31039192147E+02 -0.21326088413E+04  0.21328357855E+04  0.00000000000E+00 0. -1.
<scales pt_clust_3="30.51626" pt_clust_4="30.51626" pt_clust_5="202.38543" pt_clust_6="31.11299"></scales>
<clustering>
<clus scale="   30.516">  3  4 -1 -1</clus>
<clus scale="   31.113">  2  6  1 -1</clus>
<clus scale="  202.385">  1  5  2 -1</clus>
<clus scale="  202.385">  1  3  2 -1</clus>
</clustering>
</event>
<event>
 6    0  0.4945982E+002  0.1030231E+03  0.7546771E-02  0.1274064E+00
          1   -1    0    0  504    0 -0.00000000000E+00  0.00000000000E+00  0.54727952402E+03  0.54727952402E+03  0.00000000000E+00 0. -1.
         21   -1    0    0  503  502  0.00000000000E+00 -0.00000000000E+00 -0.53281317610E+03  0.53281317610E+03  0.00000000000E+00 0.  1.
         21    1    1    2  503  501 -0.47502948179E+00  0.32943481803E+02 -0.48887817758E+02  0.58953518737E+02  0.00000000000E+00 0.  1.
         21    1    1    2  504  505 -0.46251022920E+02 -0.48483635733E+01  0.75163768508E+01  0.47107957623E+02  0.00000000000E+00 0.  1.
         21    1    1    2  505  502  0.97595767405E+02 -0.68375402825E+02 -0.44925358964E+03  0.46478911060E+03  0.00000000000E+00 0.  1.
          1    1    1    2  501    0 -0.50869715003E+02  0.40280284595E+02  0.50509137846E+03  0.50924211317E+03  0.00000000000E+00 0. -1.
<scales pt_clust_3="32.94691" pt_clust_4="46.40183" pt_clust_5="103.02313" pt_clust_6="14000.00000"></scales>
<clustering>
<clus scale="   32.947">  2  3  1 -1</clus>
<clus scale="   46.402">  1  4  2 -1</clus>
<clus scale="  103.023">  2  5  1 -1</clus>
<clus scale="   32.947">  2  3  1 -1</clus>
</clustering>
</event>
<event>
 6    0  0.4945982E+002  0.1062417E+03  0.7546771E-02  0.1267692E+00
         21   -1    0    0  505  502  0.00000000000E+00  0.00000000000E+00  0.26645524573E+03  0.26645524573E+03  0.00000000000E+00 0.  1.
          1   -1    0    0  504    0 -0.00000000000E+00 -0.00000000000E+00 -0.46959170605E+03  0.46959170605E+03  0.00000000000E+00 0.  1.
         21    1    1    2  503  502  0.19120879380E+02  0.83061201702E+02 -0.77009471019E+01  0.85580814688E+02  0.00000000000E+00 0.  1.
         21    1    1    2  504  503  0.65783329744E+02  0.24021467393E+02 -0.40896968451E+02  0.81098948183E+02  0.00000000000E+00 0.  1.
         21    1    1    2  505  501 -0.92319414170E+02 -0.75558543542E+02  0.18943660721E+03  0.22387093577E+03  0.00000000000E+00 0.  1.
          1    1    1    2  501    0  0.74152050471E+01 -0.31524125554E+02 -0.34397515197E+03  0.34549625313E+03  0.00000000000E+00 0.  1.
<scales pt_clust_3="14000.00000" pt_clust_4="69.93930" pt_clust_5="106.24168" pt_clust_6="32.38450"></scales>
<clustering>
<clus scale="   32.384">  2  6  1 -1</clus>
<clus scale="   69.939">  2  4  1 -1</clus>
<clus scale="  106.242">  1  5  2 -1</clus>
<clus scale="  106.242">  1  3  2 -1</clus>
</clustering>
</event>
<event>
 6    0  0.4945982E+002  0.1605061E+03  0.7546771E-02  0.1188127E+00
         21   -1    0    0  505  502  0.00000000000E+00  0.00000000000E+00  0.93639473183E+02  0.93639473183E+02  0.00000000000E+00 0.  1.
          2   -1    0    0  503    0 -0.00000000000E+00 -0.00000000000E+00 -0.30260439482E+04  0.30260439482E+04  0.00000000000E+00 0.  1.
         21    1    1    2  503  504  0.39102758911E+02  0.19343100985E+02 -0.30560280883E+03  0.30870092010E+03  0.00000000000E+00 0.  1.
         21    1    1    2  504  502 -0.69649048694E+02  0.19789665767E+03 -0.19859131859E+04  0.19969640105E+04  0.00000000000E+00 0.  1.
         21    1    1    2  505  501  0.85671110604E+02 -0.13373563086E+03  0.64876469916E+01  0.15895548973E+03  0.00000000000E+00 0.  1.
          2    1    1    2  501    0 -0.55124820821E+02 -0.83504127801E+02 -0.64737612727E+03  0.65506300108E+03  0.00000000000E+00 0.  1.
<scales pt_clust_3="43.62547" pt_clust_4="160.50611" pt_clust_5="14000.00000" pt_clust_6="91.18414"></scales>
<clustering>
<clus scale="   43.625">  2  3  1 -1</clus>
<clus scale="   91.184">  2  6  1 -1</clus>
<clus scale="  160.506">  2  4  1 -1</clus>
<clus scale="  160.506">  1  3  2 -1</clus>
</clustering>
</event>
<event>
 6    0  0.4945982E+002  0.1026639E+03  0.7546771E-02  0.1274792E+00
         21   -1    0    0  501  502  0.00000000000E+00  0.00000000000E+00  0.46963030316E+02  0.46963030316E+02  0.00000000000E+00 0.  1.
          2   -1    0    0  503    0 -0.00000000000E+00 -0.00000000000E+00 -0.89214203453E+03  0.89214203453E+03  0.00000000000E+00 0.  1.
         21    1    1    2  503  505  0.42306211280E+02 -0.10886904151E+02 -0.13679566629E+03  0.14360151291E+03  0.00000000000E+00 0. -1.
         21    1    1    2  504  502 -0.38797204110E+02  0.80743818120E+02 -0.22198389280E+02  0.92290604603E+02  0.00000000000E+00 0.  1.
         21    1    1    2  505  504  0.38632505839E+02 -0.64290190324E+02 -0.17672691769E+03  0.19198464135E+03  0.00000000000E+00 0.  1.
          2    1    1    2  501    0 -0.42141513009E+02 -0.55667236455E+01 -0.50945803095E+03  0.51122830598E+03  0.00000000000E+00 0.  1.
<scales pt_clust_3="35.13045" pt_clust_4="91.76545" pt_clust_5="35.13045" pt_clust_6="42.50759"></scales>
<clustering>
<clus scale="   35.130">  3  5 -1 -1</clus>
<clus scale="   42.508">  2  6  1 -1</clus>
<clus scale="   91.765">  1  4  2 -1</clus>
<clus scale="   91.765">  1  3  2 -1</clus>
</clustering>
</event>
<event>
 6    0  0.4945982E+002  0.7500290E+02  0.7546771E-02  0.1343862E+00
          2   -1    0    0  503    0 -0.00000000000E+00  0.00000000000E+00  0.50018043775E+03  0.50018043775E+03  0.00000000000E+00 0. -1.
         21   -1    0    0  504  502  0.00000000000E+00 -0.00000000000E+00 -0.15185028895E+03  0.15185028895E+03  0.00000000000E+00 0.  1.
         21    1    1    2  503  505  0.14108030617E+02  0.83995471811E+02  0.24903789633E+02  0.88738236126E+02  0.00000000000E+00 0.  1.
         21    1    1    2  504  501  0.61595080607E+02 -0.66363496775E+02 -0.39173871873E+02  0.98654244190E+02  0.00000000000E+00 0.  1.
         21    1    1    2  505  502 -0.56517606903E+02  0.32494351512E+02 -0.27577766651E+02  0.70785987199E+02  0.00000000000E+00 0.  1.
          2    1    1    2  501    0 -0.19185504322E+02 -0.50126326548E+02  0.39017799768E+03  0.39385225918E+03  0.00000000000E+00 0. -1.
<scales pt_clust_3="57.80391" pt_clust_4="14000.00000" pt_clust_5="75.00290" pt_clust_6="53.67245"></scales>
<clustering>
<clus scale="   53.672">  1  6  2 -1</clus>
<clus scale="   57.804">  1  3  2 -1</clus>
<clus scale="   75.003">  2  5  1 -1</clus>
<clus scale="   75.003">  2  3  1 -1</clus>
</clustering>
</event>
<event>
 6    0  0.4945982E+002  0.2199957E+03  0.7546771E-02  0.1133886E+00
          2   -1    0    0  503    0 -0.00000000000E+00  0.00000000000E+00  0.52163511887E+03  0.52163511887E+03  0.00000000000E+00 0. -1.
         21   -1    0    0  504  502  0.00000000000E+00 -0.00000000000E+00 -0.25349887272E+03  0.25349887272E+03  0.00000000000E+00 0.  1.
         21    1    1    2  503  505 -0.27838977086E+02  0.34370586742E+02  0.15201288885E+02  0.46769916206E+02  0.00000000000E+00 0.  1.
         21    1    1    2  504  501 -0.14812925291E+02  0.27665606268E+02 -0.15797189136E+03  0.16105876873E+03  0.00000000000E+00 0.  1.
         21    1    1    2  505  502 -0.16158020065E+03 -0.33846683812E+02  0.96174820674E+02  0.19105851297E+03  0.00000000000E+00 0.  1.
          2    1    1    2  501    0  0.20423210303E+03 -0.28189509198E+02  0.31473202796E+03  0.37624679368E+03  0.00000000000E+00 0. -1.
<scales pt_clust_3="49.02160" pt_clust_4="31.38166" pt_clust_5="49.02160" pt_clust_6="200.30052"></scales>
<clustering>
<clus scale="   31.382">  2  4  1 -1</clus>
<clus scale="   49.022">  3  5 -1 -1</clus>
<clus scale="  200.301">  1  6  2 -1</clus>
<clus scale="   31.382">  2  3  1 -1</clus>
</clustering>
</event>
<event>
 6    0  0.4945982E+002  0.8139045E+02  0.7546771E-02  0.1325151E+00
         -2   -1    0    0    0  501 -0.00000000000E+00  0.00000000000E+00  0.10146930758E+03  0.10146930758E+03  0.00000000000E+00 0.  1.
         21   -1    0    0  503  502  0.00000000000E+00 -0.00000000000E+00 -0.67258838576E+03  0.67258838576E+03  0.00000000000E+00 0.  1.
         21    1    1    2  503  504  0.23428231734E+02  0.68553956987E+02 -0.47924858468E+03  0.48469344227E+03  0.00000000000E+00 0.  1.
         21    1    1    2  504  501  0.41985690129E+02  0.36190804885E+02 -0.94780463697E+02  0.10979940270E+03  0.00000000000E+00 0.  1.
         21    1    1    2  505  502 -0.23532243564E+02 -0.27640591921E+02 -0.61019482670E+02  0.71001028685E+02  0.00000000000E+00 0. -1.
         -2    1    1    2    0  505 -0.41881678299E+02 -0.77104169952E+02  0.63929452872E+02  0.10856381969E+03  0.00000000000E+00 0.  1.
<scales pt_clust_3="46.83096" pt_clust_4="14000.00000" pt_clust_5="36.30109" pt_clust_6="81.39045"></scales>
<clustering>
<clus scale="   36.301">  2  5  1 -1</clus>
<clus scale="   46.831">  2  3  1 -1</clus>
<clus scale="   81.390">  1  6  2 -1</clus>
<clus scale="   36.301">  2  3  1 -1</clus>
</clustering>
</event>
<event>
 6    0  0.4945982E+002  0.1293861E+03  0.7546771E-02  0.1228370E+00
         21   -1    0    0  505  502  0.00000000000E+00  0.00000000000E+00  0.30126080499E+03  0.30126080499E+03  0.00000000000E+00 0.  1.
          2   -1    0    0  503    0 -0.00000000000E+00 -0.00000000000E+00 -0.30783617712E+03  0.30783617712E+03  0.00000000000E+00 0.  1.
         21    1    1    2  503  502  0.81975526585E+02 -0.90342436355E+02  0.69367185825E+02  0.14033370670E+03  0.00000000000E+00 0.  1.
         21    1    1    2  504  501 -0.79262338124E+02  0.10970550546E+03  0.15219127613E+03  0.20366639561E+03  0.00000000000E+00 0.  1.
         21    1    1    2  505  504  0.23897351228E+02  0.21426688629E+02 -0.28153834260E+00  0.32097751403E+02  0.00000000000E+00 0. -1.
          2    1    1    2  501    0 -0.26610539689E+02 -0.40789757730E+02 -0.22785229574E+03  0.23299912839E+03  0.00000000000E+00 0.  1.
<scales pt_clust_3="129.38606" pt_clust_4="14000.00000" pt_clust_5="32.09652" pt_clust_6="48.42288"></scales>
<clustering>
<clus scale="   32.097">  1  5  2 -1</clus>
<clus scale="   48.423">  2  6  1 -1</clus>
<clus scale="  129.386">  2  3  1 -1</clus>
<clus scale="   32.097">  1  3  2 -1</clus>
</clustering>
</event>
<event>
 6    0  0.4945982E+002  0.1468971E+03  0.7546771E-02  0.1204339E+00
          1   -1    0    0  503    0 -0.00000000000E+00  0.00000000000E+00  0.23944717552E+03  0.23944717552E+03  0.00000000000E+00 0. -1.
         21   -1    0    0  505  502  0.00000000000E+00 -0.00000000000E+00 -0.29286436219E+04  0.29286436219E+04  0.00000000000E+00 0.  1.
         21    1    1    2  503  502  0.46174365973E+02  0.60492911768E+02 -0.11087509182E+04  0.11113595561E+04  0.00000000000E+00 0.  1.
         21    1    1    2  504  501 -0.45544485100E+02  0.33418148077E+02 -0.72884739399E+03  0.73103323897E+03  0.00000000000E+00 0.  1.
         21    1    1    2  505  504 -0.27032530928E+02  0.47463670215E+02 -0.10660704529E+04  0.10674688605E+04  0.00000000000E+00 0.  1.
          1    1    1    2  501    0  0.26402650054E+02 -0.14137473006E+03  0.21447231863E+03  0.25822914183E+03  0.00000000000E+00 0. -1.
<scales pt_clust_3="76.10167" pt_clust_4="32.17208" pt_clust_5="32.17208" pt_clust_6="143.20724"></scales>
<clustering>
<clus scale="   32.172">  4  5 -1 -1</clus>
<clus scale="   76.102">  2  3  1 -1</clus>
<clus scale="  143.207">  1  6  2 -1</clus>
<clus scale="   76.102">  2  3  1 -1</clus>
</clustering>
</event>
<event>
 6    0  0.4945982E+002  0.1034121E+03  0.7546771E-02  0.1273280E+00
         21   -1    0    0  503  502  0.00000000000E+00  0.00000000000E+00  0.12911590988E+04  0.12911590988E+04  0.00000000000E+00 0.  1.
         -1   -1    0    0    0  501 -0.00000000000E+00 -0.00000000000E+00 -0.29281079823E+03  0.29281079823E+03  0.00000000000E+00 0.  1.
         21    1    1    2  503  501 -0.43513674797E+02 -0.22232541339E+01  0.45226479680E+03  0.45435870100E+03  0.00000000000E+00 0.  1.
         21    1    1    2  504  505  0.69356420365E+02  0.11740266948E+03  0.53875172368E+03  0.55574015476E+03  0.00000000000E+00 0.  1.
         21    1    1    2  505  502  0.42186301169E+02 -0.37995621119E+02  0.27829778252E+03  0.28402994030E+03  0.00000000000E+00 0.  1.
         -1    1    1    2    0  504 -0.68029046738E+02 -0.77183794224E+02 -0.27096600247E+03  0.28984110093E+03  0.00000000000E+00 0.  1.
<scales pt_clust_3="43.57043" pt_clust_4="14000.00000" pt_clust_5="47.55836" pt_clust_6="103.41214"></scales>
<clustering>
<clus scale="   43.570">  1  3  2 -1</clus>
<clus scale="   47.558">  1  5  2 -1</clus>
<clus scale="  103.412">  2  6  1 -1</clus>
<clus scale="   43.570">  1  3  2 -1</clus>
</clustering>
</event>
<event>
 6    0  0.4945982E+002  0.1408780E+03  0.7546771E-02  0.1212152E+00
         -4   -1    0    0    0  501 -0.00000000000E+00  0.00000000000E+00  0.11938180660E+04  0.11938180660E+04  0.00000000000E+00 0.  1.
         21   -1    0    0  503  502  0.00000000000E+00 -0.00000000000E+00 -0.19614568926E+03  0.19614568926E+03  0.00000000000E+00 0.  1.
         21    1    1    2  503  504 -0.31414885430E+02 -0.24299250669E+02  0.25083955815E+02  0.46973965651E+02  0.00000000000E+00 0. -1.
         21    1    1    2  504  501  0.56002295734E+01 -0.10176389603E+03  0.17342124633E+03  0.20115213592E+03  0.00000000000E+00 0.  1.
         21    1    1    2  505  502 -0.10750016564E+02  0.17133399020E+03 -0.12719004918E+03  0.21365441176E+03  0.00000000000E+00 0.  1.
         -4    1    1    2    0  505  0.36564672421E+02 -0.45270843506E+02  0.92635722373E+03  0.92818324187E+03  0.00000000000E+00 0.  1.
<scales pt_clust_3="39.71585" pt_clust_4="140.87797" pt_clust_5="14000.00000" pt_clust_6="58.18920"></scales>
<clustering>
<clus scale="   39.716">  2  3  1 -1</clus>
<clus scale="   58.189">  1  6  2 -1</clus>
<clus scale="  140.878">  1  4  2 -1</clus>
<clus scale="   39.716">  2  3  1 -1</clus>
</clustering>
</event>
<event>
 6    0  0.4945982E+002  0.1856761E+03  0.7546771E-02  0.1162420E+00
          2   -1    0    0  504    0 -0.00000000000E+00  0.00000000000E+00  0.54075136686E+03  0.54075136686E+03  0.00000000000E+00 0. -1.
         21   -1    0    0  503  502  0.00000000000E+00 -0.00000000000E+00 -0.16575997018E+03  0.16575997018E+03  0.00000000000E+00 0.  1.
         21    1    1    2  503  505 -0.67445306511E+02 -0.15882959297E+03 -0.85521004702E+02  0.19258647725E+03  0.00000000000E+00 0.  1.
         21    1    1    2  504  502 -0.24520159461E+02  0.42585256264E+02  0.46594048140E+02  0.67718148182E+02  0.00000000000E+00 0. -1.
         21    1    1    2  505  501  0.42106155010E+02  0.10744891998E+03  0.26945075798E+03  0.29312439283E+03  0.00000000000E+00 0. -1.
          2    1    1    2  501    0  0.49859310962E+02  0.87954167278E+01  0.14446759526E+03  0.15308231878E+03  0.00000000000E+00 0. -1.
<scales pt_clust_3="169.33389" pt_clust_4="49.14003" pt_clust_5="45.23010" pt_clust_6="45.23010"></scales>
<clustering>
<clus scale="   49.140">  1  4  2 -1</clus>
<clus scale="   45.230">  5  6 -1 -1</clus>
<clus scale="  169.334">  2  3  1 -1</clus>
<clus scale="  169.334">  2  3  1 -1</clus>
</clustering>
</event>
<event>
 6    0  0.4945982E+002  0.1556673E+03  0.7546771E-02  0.1193677E+00
          2   -1    0    0  504    0 -0.00000000000E+00  0.00000000000E+00  0.14823041282E+04  0.14823041282E+04  0.00000000000E+00 0. -1.
         21   -1    0    0  505  502  0.00000000000E+00 -0.00000000000E+00 -0.11129222275E+03  0.11129222275E+03  0.00000000000E+00 0.  1.
         21    1    1    2  503  501  0.83757624134E+02 -0.28528791274E+02  0.15591877719E+02  0.89846191811E+02  0.00000000000E+00 0. -1.
         21    1    1    2  504  502 -0.11592511677E+03  0.97777316877E+01  0.18829834099E+03  0.22133798127E+03  0.00000000000E+00 0.  1.
         21    1    1    2  505  503  0.63665049467E+02  0.63795872587E+01 -0.39579803937E+02  0.75236284710E+02  0.00000000000E+00 0.  1.
          2    1    1    2  501    0 -0.31497556834E+02  0.12371472327E+02  0.12067014907E+04  0.12071758932E+04  0.00000000000E+00 0. -1.
<scales pt_clust_3="58.03939" pt_clust_4="140.63972" pt_clust_5="58.03939" pt_clust_6="33.84006"></scales>
<clustering>
<clus scale="   33.840">  1  6  2 -1</clus>
<clus scale="   58.039">  3  5 -1 -1</clus>
<clus scale="  140.640">  1  4  2 -1</clus>
<clus scale="  155.667">  2  3  1 -1</clus>
</clustering>
</event>
<event>
 6    0  0.4945982E+002  0.3222546E+03  0.7546771E-02  0.1074616E+00
         21   -1    0    0  501  502  0.00000000000E+00  0.00000000000E+00  0.19384154491E+04  0.19384154491E+04  0.00000000000E+00 0.  1.
          1   -1    0    0  504    0 -0.00000000000E+00 -0.00000000000E+00 -0.10179451248E+04  0.10179451248E+04  0.00000000000E+00 0.  1.
         21    1    1    2  503  502 -0.10730527681E+02 -0.16314376706E+03  0.97543724213E+03  0.98904441067E+03  0.00000000000E+00 0.  1.
         21    1    1    2  504  505  0.16360158941E+03  0.12857936750E+03  0.22284683448E+03  0.30489153062E+03  0.00000000000E+00 0.  1.
         21    1    1    2  505  503  0.17998850712E+03  0.92321226904E+02  0.64697491827E+03  0.67786105988E+03  0.00000000000E+00 0.  1.
          1    1    1    2  501    0 -0.33285956884E+03 -0.57756827339E+02 -0.92478867058E+03  0.98456357281E+03  0.00000000000E+00 0.  1.
<scales pt_clust_3="163.49628" pt_clust_4="14000.00000" pt_clust_5="173.79196" pt_clust_6="322.25460"></scales>
<clustering>
<clus scale="  163.496">  1  3  2 -1</clus>
<clus scale="  173.792">  1  5  2 -1</clus>
<clus scale="  322.255">  2  6  1 -1</clus>
<clus scale="  163.496">  1  3  2 -1</clus>
</clustering>
</event>
<event>
 6    0  0.4945982E+002  0.8012654E+02  0.7546771E-02  0.1328693E+00
          2   -1    0    0  504    0 -0.00000000000E+00  0.00000000000E+00  0.20707978490E+04  0.20707978490E+04  0.00000000000E+00 0.  1.
         21   -1    0    0  505  502  0.00000000000E+00 -0.00000000000E+00 -0.53267971287E+02  0.53267971287E+02  0.00000000000E+00 0.  1.
         21    1    1    2  503  502 -0.30190082721E+02  0.18615632923E+02  0.12814162607E+02  0.37711876739E+02  0.00000000000E+00 0.  1.
         21    1    1    2  504  503  0.91101765053E+02 -0.18563841781E+02  0.21485751674E+03  0.23411087185E+03  0.00000000000E+00 0.  1.
         21    1    1    2  505  501 -0.51574906946E+02 -0.50242353662E+02  0.11218148518E+02  0.72870515190E+02  0.00000000000E+00 0.  1.
          2    1    1    2  501    0 -0.93367753859E+01  0.50190562519E+02  0.17786400499E+04  0.17793725565E+04  0.00000000000E+00 0.  1.
<scales pt_clust_3="35.46805" pt_clust_4="80.12654" pt_clust_5="14000.00000" pt_clust_6="51.26592"></scales>
<clustering>
<clus scale="   35.468">  2  3  1 -1</clus>
<clus scale="   51.266">  1  6  2 -1</clus>
<clus scale="   80.127">  1  4  2 -1</clus>
<clus scale="   35.468">  2  3  1 -1</clus>
</clustering>
</event>
<event>
 6    0  0.4945982E+002  0.1244224E+03  0.7546771E-02  0.1235975E+00
         21   -1    0    0  505  502  0.00000000000E+00  0.00000000000E+00  0.40374897148E+03  0.40374897148E+03  0.00000000000E+00 0. -1.
          1   -1    0    0  504    0 -0.00000000000E+00 -0.00000000000E+00 -0.13135417514E+04  0.13135417514E+04  0.00000000000E+00 0. -1.
         21    1    1    2  503  502 -0.18447708343E+02  0.57286481441E+02  0.46024261686E+01  0.60359267935E+02  0.00000000000E+00 0.  1.
         21    1    1    2  504  503 -0.40575806229E+02  0.11621579608E+02  0.24882420540E+02  0.48995836718E+02  0.00000000000E+00 0. -1.
         21    1    1    2  505  501 -0.36780580905E+02 -0.84528190976E+01  0.33073468569E+03  0.33288090003E+03  0.00000000000E+00 0. -1.
          1    1    1    2  501    0  0.95804095477E+02 -0.60455241951E+02 -0.12700123123E+04  0.12750547182E+04  0.00000000000E+00 0. -1.
<scales pt_clust_3="51.73945" pt_clust_4="51.73945" pt_clust_5="37.73939" pt_clust_6="112.35589"></scales>
<clustering>
<clus scale="   37.739">  1  5  2 -1</clus>
<clus scale="   51.739">  3  4 -1 -1</clus>
<clus scale="  112.356">  2  6  1 -1</clus>
<clus scale="   37.739">  1  3  2 -1</clus>
</clustering>
</event>
<event>
 6    0  0.4945982E+002  0.1412076E+03  0.7546771E-02  0.1211713E+00
          1   -1    0    0  505    0 -0.00000000000E+00  0.00000000000E+00  0.15302837834E+04  0.15302837834E+04  0.00000000000E+00 0. -1.
         21   -1    0    0  501  502  0.00000000000E+00 -0.00000000000E+00 -0.58396855885E+02  0.58396855885E+02  0.00000000000E+00 0. -1.
         21    1    1    2  503  504  0.40383541395E+02  0.32935431981E+02  0.14004956598E+01  0.52129976822E+02  0.00000000000E+00 0. -1.
         21    1    1    2  504  502  0.82883068710E+02  0.21216624505E+02  0.47172573233E+02  0.97698515340E+02  0.00000000000E+00 0. -1.
         21    1    1    2  505  503  0.13500133087E+02 -0.51520277879E+02  0.17132466948E+03  0.17941219301E+03  0.00000000000E+00 0. -1.
          1    1    1    2  501    0 -0.13676674319E+03 -0.26317786067E+01  0.12519891891E+04  0.12594399541E+04  0.00000000000E+00 0. -1.
<scales pt_clust_3="34.57048" pt_clust_4="34.57048" pt_clust_5="53.25967" pt_clust_6="134.08003"></scales>
<clustering>
<clus scale="   34.570">  3  4 -1 -1</clus>
<clus scale="   53.260">  1  5  2 -1</clus>
<clus scale="  134.080">  1  6  2 -1</clus>
<clus scale="  141.208">  2  3  1 -1</clus>
</clustering>
</event>
<event>
 6    0  0.4945982E+002  0.6980306E+02  0.7546771E-02  0.1360764E+00
          2   -1    0    0  504    0 -0.00000000000E+00  0.00000000000E+00  0.60957794140E+03  0.60957794140E+03  0.00000000000E+00 0.  1.
         21   -1    0    0  505  502  0.00000000000E+00 -0.00000000000E+00 -0.16724353383E+03  0.16724353383E+03  0.00000000000E+00 0.  1.
         21    1    1    2  503  502 -0.61267866171E+02 -0.28458757031E+02 -0.96116067919E+02  0.11748170406E+03  0.00000000000E+00 0.  1.
         21    1    1    2  504  503 -0.65851168111E+02 -0.27179747661E+02 -0.29460613760E+01  0.71300731428E+02  0.00000000000E+00 0.  1.
         21    1    1    2  505  501  0.72914105962E+02  0.11512848711E+02  0.44378497763E+02  0.86130503292E+02  0.00000000000E+00 0.  1.
          2    1    1    2  501    0  0.54204928319E+02  0.44125655980E+02  0.49701803910E+03  0.50190853645E+03  0.00000000000E+00 0.  1.
<scales pt_clust_3="67.55481" pt_clust_4="69.80306" pt_clust_5="51.78117" pt_clust_6="14000.00000"></scales>
<clustering>
<clus scale="   67.555">  2  3  1 -1</clus>
<clus scale="   51.781">  2  5  1 -1</clus>
<clus scale="   69.803">  2  4  1 -1</clus>
<clus scale="   67.555">  2  3  1 -1</clus>
</clustering>
</event>
<event>
 6    0  0.4945982E+002  0.1716745E+03  0.7546771E-02  0.1176113E+00
         21   -1    0    0  503  502  0.00000000000E+00  0.00000000000E+00  0.40354063796E+03  0.40354063796E+03  0.00000000000E+00 0. -1.
         -3   -1    0    0    0  501 -0.00000000000E+00 -0.00000000000E+00 -0.10668042034E+04  0.10668042034E+04  0.00000000000E+00 0.  1.
         21    1    1    2  503  501  0.14066741327E+02 -0.16214999606E+03  0.14870154505E+03  0.22046007333E+03  0.00000000000E+00 0. -1.
         21    1    1    2  504  505  0.48025357883E+02  0.19010542679E+03  0.14962070785E+03  0.24664319272E+03  0.00000000000E+00 0. -1.
         21    1    1    2  505  502  0.31043148877E+02  0.27102125065E+02 -0.61099585356E+01  0.41659739180E+02  0.00000000000E+00 0. -1.
         -3    1    1    2    0  504 -0.93135248087E+02 -0.55057555800E+02 -0.95547585980E+03  0.96158183611E+03  0.00000000000E+00 0.  1.
<scales pt_clust_3="14000.00000" pt_clust_4="171.67453" pt_clust_5="41.20925" pt_clust_6="107.87138"></scales>
<clustering>
<clus scale="   41.209">  1  5  2 -1</clus>
<clus scale="  107.871">  2  6  1 -1</clus>
<clus scale="  171.675">  2  4  1 -1</clus>
<clus scale="   41.209">  1  3  2 -1</clus>
</clustering>
</event>
<event>
 6    0  0.4945982E+002  0.2322059E+03  0.7546771E-02  0.1125097E+00
          2   -1    0    0  504    0 -0.00000000000E+00  0.00000000000E+00  0.23831804676E+03  0.23831804676E+03  0.00000000000E+00 0.  1.
         21   -1    0    0  505  502  0.00000000000E+00 -0.00000000000E+00 -0.87799900325E+03  0.87799900325E+03  0.00000000000E+00 0.  1.
         21    1    1    2  503  502  0.14797394395E+02 -0.15789287912E+03 -0.26706521359E+02  0.16081779268E+03  0.00000000000E+00 0. -1.
         21    1    1    2  504  503 -0.22312146793E+02 -0.66779015912E+02  0.31398172754E+02  0.77091595606E+02  0.00000000000E+00 0.  1.
         21    1    1    2  505  501  0.10378619472E+03  0.19483293358E+03 -0.71956157411E+03  0.75266214542E+03  0.00000000000E+00 0.  1.
          2    1    1    2  501    0 -0.96271442324E+02  0.29838961453E+02  0.75188966229E+02  0.12574551630E+03  0.00000000000E+00 0.  1.
<scales pt_clust_3="51.80548" pt_clust_4="51.80548" pt_clust_5="218.80276" pt_clust_6="100.78965"></scales>
<clustering>
<clus scale="   51.805">  3  4 -1 -1</clus>
<clus scale="  100.790">  1  6  2 -1</clus>
<clus scale="  218.803">  2  5  1 -1</clus>
<clus scale="  218.803">  2  3  1 -1</clus>
</clustering>
</event>
<event>
 6    0  0.4945982E+002  0.8483054E+02  0.7546771E-02  0.1315876E+00
          1   -1    0    0  502    0 -0.00000000000E+00  0.00000000000E+00  0.29005776902E+04  0.29005776902E+04  0.00000000000E+00 0.  1.
         21   -1    0    0  504  502  0.00000000000E+00 -0.00000000000E+00 -0.26992992573E+03  0.26992992573E+03  0.00000000000E+00 0.  1.
         21    1    1    2  503  505 -0.22000070065E+01  0.46555296891E+02 -0.20948428198E+03  0.21460638410E+03  0.00000000000E+00 0.  1.
         21    1    1    2  504  503  0.37612010855E+02  0.10116981800E+02 -0.38834632396E+02  0.55001321389E+02  0.00000000000E+00 0.  1.
         21    1    1    2  505  501 -0.91223094337E+02  0.87584176116E+01  0.19399919527E+03  0.21455547205E+03  0.00000000000E+00 0.  1.
          1    1    1    2  501    0  0.55811090489E+02 -0.65430696302E+02  0.26849674836E+04  0.26863444384E+04  0.00000000000E+00 0.  1.
<scales pt_clust_3="65.43732" pt_clust_4="38.94890" pt_clust_5="84.83054" pt_clust_6="14000.00000"></scales>
<clustering>
<clus scale="   38.949">  2  4  1 -1</clus>
<clus scale="   65.437">  2  3  1 -1</clus>
<clus scale="   84.831">  2  5  1 -1</clus>
<clus scale="   38.949">  2  3  1 -1</clus>
</clustering>
</event>
<event>
 6    0  0.4945982E+002  0.7954054E+02  0.7546771E-02  0.1330360E+00
         -2   -1    0    0    0  501 -0.00000000000E+00  0.00000000000E+00  0.21411156885E+04  0.21411156885E+04  0.00000000000E+00 0. -1.
         21   -1    0    0  501  502  0.00000000000E+00 -0.00000000000E+00 -0.37554198223E+02  0.37554198223E+02  0.00000000000E+00 0.  1.
         21    1    1    2  503  502  0.77669254116E+01 -0.73547917893E+02  0.15477818429E+02  0.75559143855E+02  0.00000000000E+00 0.  1.
         21    1    1    2  504  505 -0.22434331957E+02 -0.24927230167E+02  0.44065012701E+03  0.44192442848E+03  0.00000000000E+00 0. -1.
         21    1    1    2  505  503  0.45426430508E+02  0.11528434789E+03  0.57590291154E+03  0.58908251118E+03  0.00000000000E+00 0.  1.
         -2    1    1    2    0  504 -0.30759023963E+02 -0.16809199833E+02  0.10715306333E+04  0.10721038032E+04  0.00000000000E+00 0. -1.
<scales pt_clust_3="73.95689" pt_clust_4="31.22940" pt_clust_5="72.85140" pt_clust_6="31.22940"></scales>
<clustering>
<clus scale="   31.229">  4  6 -1 -1</clus>
<clus scale="   73.957">  2  3  1 -1</clus>
<clus scale="   72.851">  2  5  1 -1</clus>
<clus scale="   73.957">  2  3  1 -1</clus>
</clustering>
</event>
<event>
 6    0  0.4945982E+002  0.9884720E+02  0.7546771E-02  0.1282739E+00
         21   -1    0    0  504  502  0.00000000000E+00  0.00000000000E+00  0.93689144367E+03  0.93689144367E+03  0.00000000000E+00 0.  1.
          2   -1    0    0  503    0 -0.00000000000E+00 -0.00000000000E+00 -0.39202323929E+03  0.39202323929E+03  0.00000000000E+00 0. -1.
         21    1    1    2  503  502 -0.29301644591E+02 -0.13326542385E+03  0.84808123784E+03  0.85898780291E+03  0.00000000000E+00 0.  1.
         21    1    1    2  504  505 -0.64809493049E+00  0.33153393045E+02  0.49321616946E+02  0.59432225228E+02  0.00000000000E+00 0. -1.
         21    1    1    2  505  501  0.11452083993E+02  0.64469478519E+02 -0.10745471628E+02  0.66354570670E+02  0.00000000000E+00 0. -1.
          2    1    1    2  501    0  0.18497655529E+02  0.35642552291E+02 -0.34178917878E+03  0.34414008416E+03  0.00000000000E+00 0. -1.
<scales pt_clust_3="98.84720" pt_clust_4="33.15973" pt_clust_5="14000.00000" pt_clust_6="40.19543"></scales>
<clustering>
<clus scale="   33.160">  1  4  2 -1</clus>
<clus scale="   40.195">  2  6  1 -1</clus>
<clus scale="   98.847">  1  3  2 -1</clus>
<clus scale="   33.160">  1  3  2 -1</clus>
</clustering>
</event>
<event>
 6    0  0.4945982E+002  0.3587460E+03  0.7546771E-02  0.1059082E+00
          2   -1    0    0  505    0 -0.00000000000E+00  0.00000000000E+00  0.81391196483E+03  0.81391196483E+03  0.00000000000E+00 0.  1.
         21   -1    0    0  503  502  0.00000000000E+00 -0.00000000000E+00 -0.63828953115E+03  0.63828953115E+03  0.00000000000E+00 0. -1.
         21    1    1    2  503  504 -0.19742067305E+02  0.52892211225E+02 -0.52147250290E+02  0.76854869349E+02  0.00000000000E+00 0. -1.
         21    1    1    2  504  501 -0.29851412704E+03  0.10470099349E+03 -0.35231002053E+03  0.47349269545E+03  0.00000000000E+00 0. -1.
         21    1    1    2  505  502 -0.19239278754E+02 -0.11527765478E+03 -0.91911313859E+02  0.14868347976E+03  0.00000000000E+00 0.  1.
          2    1    1    2  501    0  0.33749547310E+03 -0.42315549934E+02  0.67199101836E+03  0.75317045141E+03  0.00000000000E+00 0.  1.
<scales pt_clust_3="48.48850" pt_clust_4="48.48850" pt_clust_5="116.87210" pt_clust_6="339.88902"></scales>
<clustering>
<clus scale="   48.489">  3  4 -1 -1</clus>
<clus scale="  116.872">  2  5  1 -1</clus>
<clus scale="  339.889">  1  6  2 -1</clus>
<clus scale="  116.872">  2  3  1 -1</clus>
</clustering>
</event>
<event>
 6    0  0.4945982E+002  0.1056906E+03  0.7546771E-02  0.1268765E+00
          1   -1    0    0  504    0 -0.00000000000E+00  0.00000000000E+00  0.94061981742E+03  0.94061981742E+03  0.00000000000E+00 0.  1.
         21   -1    0    0  505  502  0.00000000000E+00 -0.00000000000E+00 -0.13855886855E+03  0.13855886855E+03  0.00000000000E+00 0.  1.
         21    1    1    2  503  501 -0.15321829011E+02 -0.72960365961E+02  0.83379248129E+01  0.75016627727E+02  0.00000000000E+00 0.  1.
         21    1    1    2  504  502  0.10991896898E+03  0.10747561212E+03  0.10672091716E+03  0.18714310327E+03  0.00000000000E+00 0.  1.
         21    1    1    2  505  503 -0.63672203866E+02 -0.21896859027E+02 -0.47091520369E+02  0.82165888732E+02  0.00000000000E+00 0.  1.
          1    1    1    2  501    0 -0.30924936100E+02 -0.12618387136E+02  0.73409362727E+03  0.73485306624E+03  0.00000000000E+00 0.  1.
<scales pt_clust_3="105.69060" pt_clust_4="14000.00000" pt_clust_5="70.16928" pt_clust_6="33.40023"></scales>
<clustering>
<clus scale="   33.400">  1  6  2 -1</clus>
<clus scale="   70.169">  2  5  1 -1</clus>
<clus scale="  105.691">  2  3  1 -1</clus>
<clus scale="   70.169">  2  3  1 -1</clus>
</clustering>
</event>
<event>
 6    0  0.4945982E+002  0.1069552E+03  0.7546771E-02  0.1266315E+00
          2   -1    0    0  504    0 -0.00000000000E+00  0.00000000000E+00  0.31575832322E+03  0.31575832322E+03  0.00000000000E+00 0. -1.
         21   -1    0    0  505  502  0.00000000000E+00 -0.00000000000E+00 -0.63210178689E+02  0.63210178689E+02  0.00000000000E+00 0. -1.
         21    1    1    2  503  501  0.18147586950E+02  0.58404003479E+02  0.62291701280E+02  0.87296154456E+02  0.00000000000E+00 0. -1.
         21    1    1    2  504  502  0.45627239731E+02 -0.10645534161E+03  0.13942938795E+03  0.18125986590E+03  0.00000000000E+00 0. -1.
         21    1    1    2  505  503 -0.43435699402E+02  0.21113624545E+02 -0.12982260958E+01  0.48312840063E+02  0.00000000000E+00 0.  1.
          2    1    1    2  501    0 -0.20339127279E+02  0.26937713591E+02  0.52125281403E+02  0.62099641491E+02  0.00000000000E+00 0. -1.
<scales pt_clust_3="32.72026" pt_clust_4="97.46574" pt_clust_5="48.29539" pt_clust_6="32.72026"></scales>
<clustering>
<clus scale="   32.720">  3  6 -1 -1</clus>
<clus scale="   48.295">  2  5  1 -1</clus>
<clus scale="   97.466">  2  4  1 -1</clus>
<clus scale="   48.295">  2  3  1 -1</clus>
</clustering>
</event>
<event>
 6    0  0.4945982E+002  0.7451936E+02  0.7546771E-02  0.1345366E+00
         21   -1    0    0  505  502  0.00000000000E+00  0.00000000000E+00  0.65354055838E+03  0.65354055838E+03  0.00000000000E+00 0.  1.
          2   -1    0    0  503    0 -0.00000000000E+00 -0.00000000000E+00 -0.10272718481E+03  0.10272718481E+03  0.00000000000E+00 0. -1.
         21    1    1    2  503  502  0.88818723719E+02  0.46733700756E+02  0.22067793346E+03  0.24242845292E+03  0.00000000000E+00 0.  1.
         21    1    1    2  504  501 -0.17322302123E+02 -0.45911096694E+02  0.12041801244E+03  0.13003226011E+03  0.00000000000E+00 0.  1.
         21    1    1    2  505  504 -0.25526996574E+01 -0.30727705375E+02  0.27953478080E+03  0.28123015811E+03  0.00000000000E+00 0.  1.
          2    1    1    2  501    0 -0.68943721939E+02  0.29905101314E+02 -0.69817353134E+02  0.10257687204E+03  0.00000000000E+00 0. -1.
<scales pt_clust_3="74.51936" pt_clust_4="59.08869" pt_clust_5="30.83356" pt_clust_6="14000.00000"></scales>
<clustering>
<clus scale="   30.834">  1  5  2 -1</clus>
<clus scale="   59.089">  1  4  2 -1</clus>
<clus scale="   74.519">  1  3  2 -1</clus>
<clus scale="   30.834">  1  3  2 -1</clus>
</clustering>
</event>
<event>
 6    0  0.4945982E+002  0.8964522E+02  0.7546771E-02  0.1303713E+00
         21   -1    0    0  503  502  0.00000000000E+00  0.00000000000E+00  0.88244761727E+02  0.88244761727E+02  0.00000000000E+00 0. -1.
          1   -1    0    0  505    0 -0.00000000000E+00 -0.00000000000E+00 -0.82478526596E+03  0.82478526596E+03  0.00000000000E+00 0. -1.
         21    1    1    2  503  501  0.36291418166E+02 -0.54016249417E+02 -0.70409920342E+02  0.95876895632E+02  0.00000000000E+00 0. -1.
         21    1    1    2  504  502 -0.40095329948E+02  0.44513627233E+02  0.12221543914E+02  0.61142985114E+02  0.00000000000E+00 0. -1.
         21    1    1    2  505  504 -0.70385192903E+02  0.61577359448E+01  0.29083043971E+01  0.70713869406E+02  0.00000000000E+00 0. -1.
          1    1    1    2  501    0  0.74189104685E+02  0.33448862393E+01 -0.68126043220E+03  0.68529627753E+03  0.00000000000E+00 0. -1.
<scales pt_clust_3="65.07551" pt_clust_4="44.95845" pt_clust_5="44.95845" pt_clust_6="75.18298"></scales>
<clustering>
<clus scale="   44.958">  4  5 -1 -1</clus>
<clus scale="   65.076">  1  3  2 -1</clus>
<clus scale="   75.183">  2  6  1 -1</clus>
<clus scale="   65.076">  1  3  2 -1</clus>
</clustering>
</event>
<event>
 6    0  0.4945982E+002  0.1491836E+03  0.7546771E-02  0.1201480E+00
          3   -1    0    0  503    0 -0.00000000000E+00  0.00000000000E+00  0.32182002770E+03  0.32182002770E+03  0.00000000000E+00 0. -1.
         21   -1    0    0  504  502  0.00000000000E+00 -0.00000000000E+00 -0.28188424348E+03  0.28188424348E+03  0.00000000000E+00 0.  1.
         21    1    1    2  503  505  0.60508090433E+02  0.36450506499E+02 -0.29473162670E+01  0.70700460430E+02  0.00000000000E+00 0.  1.
         21    1    1    2  504  501 -0.16552255372E+03  0.10044215868E+03  0.58288596907E+02  0.20219768436E+03  0.00000000000E+00 0. -1.
         21    1    1    2  505  502  0.10358147169E+03 -0.94093300634E+02 -0.14067205994E+03  0.19842202234E+03  0.00000000000E+00 0.  1.
          3    1    1    2  501    0  0.14329915990E+01 -0.42799364544E+02  0.12526656352E+03  0.13238410406E+03  0.00000000000E+00 0. -1.
<scales pt_clust_3="67.29884" pt_clust_4="149.18360" pt_clust_5="14000.00000" pt_clust_6="42.82335"></scales>
<clustering>
<clus scale="   42.823">  1  6  2 -1</clus>
<clus scale="   67.299">  1  3  2 -1</clus>
<clus scale="  149.184">  1  4  2 -1</clus>
<clus scale="  149.184">  2  3  1 -1</clus>
</clustering>
</event>
<event>
 6    0  0.4945982E+002  0.9080119E+02  0.7546771E-02  0.1300923E+00
         21   -1    0    0  503  502  0.00000000000E+00  0.00000000000E+00  0.42589165577E+03  0.42589165577E+03  0.00000000000E+00 0.  1.
          2   -1    0    0  504    0 -0.00000000000E+00 -0.00000000000E+00 -0.41229946349E+03  0.41229946349E+03  0.00000000000E+00 0. -1.
         21    1    1    2  503  501  0.13520478280E+02  0.52603241458E+02  0.21443929139E+03  0.22121056493E+03  0.00000000000E+00 0.  1.
         21    1    1    2  504  505 -0.75403889463E+02  0.25521976049E+02  0.16368245840E+03  0.18201391429E+03  0.00000000000E+00 0.  1.
         21    1    1    2  505  502  0.40557323046E+02  0.11241143431E+02  0.14843297056E+02  0.44627157940E+02  0.00000000000E+00 0.  1.
          2    1    1    2  501    0  0.21326088136E+02 -0.89366360937E+02 -0.37937285457E+03  0.39033948210E+03  0.00000000000E+00 0. -1.
<scales pt_clust_3="90.80119" pt_clust_4="65.23815" pt_clust_5="42.08634" pt_clust_6="14000.00000"></scales>
<clustering>
<clus scale="   42.086">  1  5  2 -1</clus>
<clus scale="   65.238">  1  4  2 -1</clus>
<clus scale="   90.801">  1  3  2 -1</clus>
<clus scale="   42.086">  1  3  2 -1</clus>
</clustering>
</event>
<event>
 6    0  0.4945982E+002  0.8485800E+02  0.7546771E-02  0.1315804E+00
         21   -1    0    0  503  502  0.00000000000E+00  0.00000000000E+00  0.32144849118E+02  0.32144849118E+02  0.00000000000E+00 0. -1.
          2   -1    0    0  504    0 -0.00000000000E+00 -0.00000000000E+00 -0.90342637582E+03  0.90342637582E+03  0.00000000000E+00 0. -1.
         21    1    1    2  503  501  0.51311357625E+02  0.71048730922E+02 -0.67188193681E+02  0.11043111408E+03  0.00000000000E+00 0. -1.
         21    1    1    2  504  505 -0.10024660077E+02 -0.51219266727E+02 -0.27841110111E+03  0.28326074263E+03  0.00000000000E+00 0. -1.
         21    1    1    2  505  502 -0.83381616392E+02 -0.27631854115E+02 -0.32347076342E+03  0.33518554280E+03  0.00000000000E+00 0. -1.
          2    1    1    2  501    0  0.42094918844E+02  0.78023899202E+01 -0.20221146849E+03  0.20669382543E+03  0.00000000000E+00 0. -1.
<scales pt_clust_3="84.85800" pt_clust_4="48.57529" pt_clust_5="14000.00000" pt_clust_6="42.81191"></scales>
<clustering>
<clus scale="   42.812">  2  6  1 -1</clus>
<clus scale="   48.575">  2  4  1 -1</clus>
<clus scale="   84.858">  1  3  2 -1</clus>
<clus scale="   84.858">  1  3  2 -1</clus>
</clustering>
</event>
<event>
 6    0  0.4945982E+002  0.1167767E+03  0.7546771E-02  0.1248511E+00
         21   -1    0    0  503  502  0.00000000000E+00  0.00000000000E+00  0.83474292821E+02  0.83474292821E+02  0.00000000000E+00 0. -1.
          1   -1    0    0  505    0 -0.00000000000E+00 -0.00000000000E+00 -0.83650477592E+03  0.83650477592E+03  0.00000000000E+00 0.  1.
         21    1    1    2  503  504 -0.20049373993E+02  0.54214010156E+02  0.19717142449E+01  0.57836182030E+02  0.00000000000E+00 0.  1.
         21    1    1    2  504  501  0.14389717323E+03 -0.35143915013E+02 -0.80577179468E+02  0.16862435493E+03  0.00000000000E+00 0. -1.
         21    1    1    2  505  502 -0.56957576947E+02 -0.31645191048E+02 -0.13593803573E+03  0.15074724955E+03  0.00000000000E+00 0.  1.
          1    1    1    2  501    0 -0.66890222287E+02  0.12575095905E+02 -0.53848698214E+03  0.54277128223E+03  0.00000000000E+00 0.  1.
<scales pt_clust_3="57.80256" pt_clust_4="14000.00000" pt_clust_5="64.42698" pt_clust_6="116.77673"></scales>
<clustering>
<clus scale="   57.803">  1  3  2 -1</clus>
<clus scale="   64.427">  2  5  1 -1</clus>
<clus scale="  116.777">  2  6  1 -1</clus>
<clus scale="   57.803">  1  3  2 -1</clus>
</clustering>
</event>
<event>
 6    0  0.4945982E+002  0.2397229E+03  0.7546771E-02  0.1119978E+00
          2   -1    0    0  504    0 -0.00000000000E+00  0.00000000000E+00  0.23957539308E+03  0.23957539308E+03  0.00000000000E+00 0.  1.
         21   -1    0    0  505  502  0.00000000000E+00 -0.00000000000E+00 -0.36516156093E+03  0.36516156093E+03  0.00000000000E+00 0.  1.
         21    1    1    2  503  502 -0.19467005634E+02  0.37543923845E+02 -0.13537509824E+03  0.14182710513E+03  0.00000000000E+00 0.  1.
         21    1    1    2  504  503 -0.18680246107E+03  0.59291451180E+02 -0.52152378265E+02  0.20280657338E+03  0.00000000000E+00 0.  1.
         21    1    1    2  505  501  0.11025716830E+03 -0.10689591175E+03  0.20065341778E+02  0.15487413293E+03  0.00000000000E+00 0.  1.
          2    1    1    2  501    0  0.96012298410E+02  0.10060536727E+02  0.41875966875E+02  0.10522914257E+03  0.00000000000E+00 0.  1.
<scales pt_clust_3="42.29079" pt_clust_4="213.48125" pt_clust_5="89.07874" pt_clust_6="89.07874"></scales>
<clustering>
<clus scale="   42.291">  2  3  1 -1</clus>
<clus scale="   89.079">  5  6 -1 -1</clus>
<clus scale="  213.481">  2  4  1 -1</clus>
<clus scale="   42.291">  2  3  1 -1</clus>
</clustering>
</event>
<event>
 6    0  0.4945982E+002  0.8800158E+02  0.7546771E-02  0.1307765E+00
         21   -1    0    0  505  502  0.00000000000E+00  0.00000000000E+00  0.11133470639E+04  0.11133470639E+04  0.00000000000E+00 0. -1.
         -3   -1    0    0    0  501 -0.00000000000E+00 -0.00000000000E+00 -0.25034116249E+03  0.25034116249E+03  0.00000000000E+00 0.  1.
         21    1    1    2  503  502 -0.48627422003E+02 -0.79880274495E+02  0.29316299664E+03  0.30771744673E+03  0.00000000000E+00 0. -1.
         21    1    1    2  504  501 -0.28223237331E+02  0.16528679003E+02  0.16937325588E+02  0.36832341130E+02  0.00000000000E+00 0.  1.
         21    1    1    2  505  504  0.57166773291E+02 -0.96940141294E+01  0.77877811736E+03  0.78093365272E+03  0.00000000000E+00 0. -1.
         -3    1    1    2    0  503  0.19683886043E+02  0.73045609621E+02 -0.22587253820E+03  0.23820478578E+03  0.00000000000E+00 0.  1.
<scales pt_clust_3="14000.00000" pt_clust_4="32.70701" pt_clust_5="57.84576" pt_clust_6="88.00158"></scales>
<clustering>
<clus scale="   32.707">  2  4  1 -1</clus>
<clus scale="   57.846">  1  5  2 -1</clus>
<clus scale="   88.002">  2  6  1 -1</clus>
<clus scale="   57.846">  1  3  2 -1</clus>
</clustering>
</event>
<event>
 6    0  0.4945982E+002  0.1379124E+03  0.7546771E-02  0.1216166E+00
          1   -1    0    0  504    0 -0.00000000000E+00  0.00000000000E+00  0.76358575682E+03  0.76358575682E+03  0.00000000000E+00 0.  1.
         21   -1    0    0  503  502  0.00000000000E+00 -0.00000000000E+00 -0.90277003259E+02  0.90277003259E+02  0.00000000000E+00 0.  1.
         21    1    1    2  503  501  0.65038850355E+02 -0.19258558142E+02 -0.46947588193E+02  0.82492546053E+02  0.00000000000E+00 0.  1.
         21    1    1    2  504  505 -0.10590207170E+03  0.47412418068E+02  0.41306460690E+03  0.42905192652E+03  0.00000000000E+00 0.  1.
         21    1    1    2  505  502 -0.33680599050E+02  0.38212685527E+02  0.11425567056E+03  0.12509576469E+03  0.00000000000E+00 0.  1.
          1    1    1    2  501    0  0.74543820395E+02 -0.66366545453E+02  0.19293606429E+03  0.21722252282E+03  0.00000000000E+00 0.  1.
<scales pt_clust_3="67.83026" pt_clust_4="31.06311" pt_clust_5="31.06311" pt_clust_6="129.69901"></scales>
<clustering>
<clus scale="   31.063">  4  5 -1 -1</clus>
<clus scale="   67.830">  2  3  1 -1</clus>
<clus scale="  129.699">  1  6  2 -1</clus>
<clus scale="   67.830">  2  3  1 -1</clus>
</clustering>
</event>
<event>
 6    0  0.4945982E+002  0.1996291E+03  0.7546771E-02  0.1150052E+00
         21   -1    0    0  505  502  0.00000000000E+00  0.00000000000E+00  0.97748038869E+02  0.97748038869E+02  0.00000000000E+00 0.  1.
          2   -1    0    0  503    0 -0.00000000000E+00 -0.00000000000E+00 -0.18778148465E+04  0.18778148465E+04  0.00000000000E+00 0.  1.
         21    1    1    2  503  502  0.19351160857E+03  0.28098680563E+01 -0.11399244880E+04  0.11562363411E+04  0.00000000000E+00 0.  1.
         21    1    1    2  504  501  0.40041082720E+02 -0.10204078709E+03 -0.30661149837E+03  0.32561667873E+03  0.00000000000E+00 0.  1.
         21    1    1    2  505  504 -0.92091600087E+01  0.72022576059E+02  0.18917818502E+02  0.75032952408E+02  0.00000000000E+00 0.  1.
          2    1    1    2  501    0 -0.22434353128E+03  0.27208342979E+02 -0.35244863970E+03  0.41867691312E+03  0.00000000000E+00 0.  1.
<scales pt_clust_3="14000.00000" pt_clust_4="96.49505" pt_clust_5="72.60895" pt_clust_6="199.62914"></scales>
<clustering>
<clus scale="   72.609">  1  5  2 -1</clus>
<clus scale="   96.495">  1  4  2 -1</clus>
<clus scale="  199.629">  1  6  2 -1</clus>
<clus scale="   72.609">  1  3  2 -1</clus>
</clustering>
</event>
<event>
 6    0  0.4945982E+002  0.1120761E+03  0.7546771E-02  0.1256773E+00
          3   -1    0    0  504    0 -0.00000000000E+00  0.00000000000E+00  0.25084207848E+03  0.25084207848E+03  0.00000000000E+00 0. -1.
         21   -1    0    0  503  502  0.00000000000E+00 -0.00000000000E+00 -0.56534982112E+03  0.56534982112E+03  0.00000000000E+00 0. -1.
         21    1    1    2  503  501  0.46259846714E+02  0.41379196919E+02 -0.35233653239E+02  0.71369613115E+02  0.00000000000E+00 0.  1.
         21    1    1    2  504  505 -0.95385543811E+02 -0.67774305517E+02 -0.29128253146E+03  0.31390646949E+03  0.00000000000E+00 0. -1.
         21    1    1    2  505  502 -0.21151259315E+02 -0.42440002978E+02 -0.19555447809E+03  0.20122147879E+03  0.00000000000E+00 0.  1.
          3    1    1    2  501    0  0.70276956411E+02  0.68835111576E+02  0.20756292015E+03  0.22969433821E+03  0.00000000000E+00 0. -1.
<scales pt_clust_3="62.06619" pt_clust_4="32.57518" pt_clust_5="32.57518" pt_clust_6="99.71231"></scales>
<clustering>
<clus scale="   32.575">  4  5 -1 -1</clus>
<clus scale="   62.066">  2  3  1 -1</clus>
<clus scale="   99.712">  1  6  2 -1</clus>
<clus scale="   62.066">  2  3  1 -1</clus>
</clustering>
</event>
<event>
 6    0  0.4945982E+002  0.9759236E+02  0.7546771E-02  0.1285442E+00
         21   -1    0    0  504  502  0.00000000000E+00  0.00000000000E+00  0.49137260998E+02  0.49137260998E+02  0.00000000000E+00 0.  1.
          1   -1    0    0  505    0 -0.00000000000E+00 -0.00000000000E+00 -0.32104771759E+04  0.32104771759E+04  0.00000000000E+00 0. -1.
         21    1    1    2  503  502  0.37035242211E+02 -0.23286363177E+02 -0.56174792249E+02  0.71200218819E+02  0.00000000000E+00 0. -1.
         21    1    1    2  504  501 -0.24615918495E+02 -0.21173658464E+02  0.80058502248E+01  0.33441903264E+02  0.00000000000E+00 0.  1.
         21    1    1    2  505  503  0.84840971396E+02  0.30255295269E+02 -0.80786318134E+02  0.12099505162E+03  0.00000000000E+00 0.  1.
          1    1    1    2  501    0 -0.97260295112E+02  0.14204726371E+02 -0.30323846548E+04  0.30339772632E+04  0.00000000000E+00 0. -1.
<scales pt_clust_3="42.02627" pt_clust_4="32.46948" pt_clust_5="97.59236" pt_clust_6="14000.00000"></scales>
<clustering>
<clus scale="   32.469">  1  4  2 -1</clus>
<clus scale="   42.026">  1  3  2 -1</clus>
<clus scale="   97.592">  1  5  2 -1</clus>
<clus scale="   32.469">  1  3  2 -1</clus>
</clustering>
</event>
<event>
 6    0  0.4945982E+002  0.6413233E+02  0.7546771E-02  0.1381265E+00
          2   -1    0    0  504    0 -0.00000000000E+00  0.00000000000E+00  0.23333274814E+03  0.23333274814E+03  0.00000000000E+00 0. -1.
         21   -1    0    0  503  502  0.00000000000E+00 -0.00000000000E+00 -0.90850560437E+03  0.90850560437E+03  0.00000000000E+00 0.  1.
         21    1    1    2  503  501 -0.80475166719E+02 -0.28791822937E+02 -0.29627794964E+03  0.30835992763E+03  0.00000000000E+00 0.  1.
         21    1    1    2  504  505  0.81980666198E+02  0.37582039382E+02 -0.69341760222E+02  0.11376079740E+03  0.00000000000E+00 0.  1.
         21    1    1    2  505  502  0.49445958847E+02 -0.14281225091E+02 -0.51011877400E+03  0.51270851350E+03  0.00000000000E+00 0.  1.
          2    1    1    2  501    0 -0.50951458326E+02  0.54910086461E+01  0.20056562763E+03  0.20700911397E+03  0.00000000000E+00 0. -1.
<scales pt_clust_3="14000.00000" pt_clust_4="64.13233" pt_clust_5="49.25646" pt_clust_6="51.24649"></scales>
<clustering>
<clus scale="   51.246">  1  6  2 -1</clus>
<clus scale="   49.256">  2  5  1 -1</clus>
<clus scale="   64.132">  1  4  2 -1</clus>
<clus scale="   49.256">  2  3  1 -1</clus>
</clustering>
</event>
<event>
 6    0  0.4945982E+002  0.2615904E+03  0.7546771E-02  0.1106191E+00
         -1   -1    0    0    0  501 -0.00000000000E+00  0.00000000000E+00  0.15096594457E+03  0.15096594457E+03  0.00000000000E+00 0. -1.
         21   -1    0    0  501  502  0.00000000000E+00 -0.00000000000E+00 -0.35234285930E+04  0.35234285930E+04  0.00000000000E+00 0.  1.
         21    1    1    2  503  504 -0.15674567303E+03 -0.74881121374E+02 -0.16954014116E+04  0.17042776577E+04  0.00000000000E+00 0.  1.
         21    1    1    2  504  502 -0.21486727604E+02  0.24754098625E+02 -0.11432765326E+04  0.11437463332E+04  0.00000000000E+00 0.  1.
         21    1    1    2  505  503 -0.20880223719E+02 -0.80264137293E+02 -0.57831611473E+03  0.58423269682E+03  0.00000000000E+00 0. -1.
         -1    1    1    2    0  505  0.19911262435E+03  0.13039116004E+03  0.44531410412E+02  0.24213784980E+03  0.00000000000E+00 0. -1.
<scales pt_clust_3="71.75579" pt_clust_4="32.77873" pt_clust_5="71.75579" pt_clust_6="237.82833"></scales>
<clustering>
<clus scale="   32.779">  2  4  1 -1</clus>
<clus scale="   71.756">  3  5 -1 -1</clus>
<clus scale="  237.828">  1  6  2 -1</clus>
<clus scale="   32.779">  2  3  1 -1</clus>
</clustering>
</event>
<event>
 6    0  0.4945982E+002  0.1014642E+03  0.7546771E-02  0.1277247E+00
          2   -1    0    0  505    0 -0.00000000000E+00  0.00000000000E+00  0.76274816523E+03  0.76274816523E+03  0.00000000000E+00 0.  1.
         21   -1    0    0  503  502  0.00000000000E+00 -0.00000000000E+00 -0.76751074662E+03  0.76751074662E+03  0.00000000000E+00 0.  1.
         21    1    1    2  503  504 -0.30683996183E+02 -0.42360922859E+01 -0.23345165694E+02  0.38787225486E+02  0.00000000000E+00 0.  1.
         21    1    1    2  504  501  0.27428433560E+02  0.96991456935E+02 -0.19458544249E+03  0.21914186299E+03  0.00000000000E+00 0.  1.
         21    1    1    2  505  502 -0.86732734595E+02 -0.13905549533E+03 -0.51330952892E+03  0.53883733215E+03  0.00000000000E+00 0.  1.
          2    1    1    2  501    0  0.89988297217E+02  0.46300130678E+02  0.72647755571E+03  0.73349249123E+03  0.00000000000E+00 0.  1.
<scales pt_clust_3="30.97502" pt_clust_4="97.63060" pt_clust_5="101.46418" pt_clust_6="14000.00000"></scales>
<clustering>
<clus scale="   30.975">  2  3  1 -1</clus>
<clus scale="   97.631">  2  4  1 -1</clus>
<clus scale="  101.464">  2  5  1 -1</clus>
<clus scale="   30.975">  2  3  1 -1</clus>
</clustering>
</event>
<event>
 6    0  0.4945982E+002  0.1697620E+03  0.7546771E-02  0.1178096E+00
         21   -1    0    0  503  502  0.00000000000E+00  0.00000000000E+00  0.17707324420E+03  0.17707324420E+03  0.00000000000E+00 0.  1.
          1   -1    0    0  504    0 -0.00000000000E+00 -0.00000000000E+00 -0.20797855946E+04  0.20797855946E+04  0.00000000000E+00 0.  1.
         21    1    1    2  503  505  0.81817231509E+02  0.67139729050E+02  0.19685523942E+02  0.10765371541E+03  0.00000000000E+00 0.  1.
         21    1    1    2  504  502  0.14813316415E+02 -0.16635139658E+03  0.22395780718E+02  0.16850457704E+03  0.00000000000E+00 0.  1.
         21    1    1    2  505  501  0.50131289998E+02  0.38784779756E+02 -0.54028257393E+02  0.83285400728E+02  0.00000000000E+00 0. -1.
          1    1    1    2  501    0 -0.14676183792E+03  0.60426887776E+02 -0.18907653977E+04  0.18974151456E+04  0.00000000000E+00 0.  1.
<scales pt_clust_3="63.09675" pt_clust_4="148.90004" pt_clust_5="63.09675" pt_clust_6="158.71498"></scales>
<clustering>
<clus scale="   63.097">  3  5 -1 -1</clus>
<clus scale="  158.715">  2  6  1 -1</clus>
<clus scale="  148.900">  1  4  2 -1</clus>
<clus scale="  148.900">  1  3  2 -1</clus>
</clustering>
</event>
<event>
 6    0  0.4945982E+002  0.1195265E+03  0.7546771E-02  0.1243880E+00
         21   -1    0    0  504  502  0.00000000000E+00  0.00000000000E+00  0.69403734987E+03  0.69403734987E+03  0.00000000000E+00 0. -1.
          4   -1    0    0  505    0 -0.00000000000E+00 -0.00000000000E+00 -0.13333592876E+04  0.13333592876E+04  0.00000000000E+00 0.  1.
         21    1    1    2  503  501 -0.13738932545E+03  0.47636920738E+01 -0.37821085828E+03  0.40242014466E+03  0.00000000000E+00 0.  1.
         21    1    1    2  504  503  0.43699553457E+02  0.12316765455E+02 -0.10147159932E+02  0.46522237030E+02  0.00000000000E+00 0.  1.
         21    1    1    2  505  502  0.68990203638E+02  0.27920983851E+02  0.66093466571E+03  0.66511191681E+03  0.00000000000E+00 0. -1.
          4    1    1    2  501    0  0.24699568356E+02 -0.45001441379E+02 -0.91189858519E+03  0.91334233893E+03  0.00000000000E+00 0.  1.
<scales pt_clust_3="119.52650" pt_clust_4="45.40213" pt_clust_5="14000.00000" pt_clust_6="51.34513"></scales>
<clustering>
<clus scale="   45.402">  1  4  2 -1</clus>
<clus scale="   51.345">  2  6  1 -1</clus>
<clus scale="  119.526">  2  3  1 -1</clus>
<clus scale="   45.402">  1  3  2 -1</clus>
</clustering>
</event>
<event>
 6    0  0.4945982E+002  0.1018457E+03  0.7546771E-02  0.1276462E+00
         -2   -1    0    0    0  501 -0.00000000000E+00  0.00000000000E+00  0.98015046961E+03  0.98015046961E+03  0.00000000000E+00 0.  1.
         21   -1    0    0  504  502  0.00000000000E+00 -0.00000000000E+00 -0.31059981244E+03  0.31059981244E+03  0.00000000000E+00 0.  1.
         21    1    1    2  503  501  0.32792216935E+02  0.79492282170E+01  0.30867937437E+02  0.45731272477E+02  0.00000000000E+00 0.  1.
         21    1    1    2  504  503  0.39072333491E+02  0.10817035231E+03 -0.17440300585E+03  0.20891117924E+03  0.00000000000E+00 0.  1.
         21    1    1    2  505  502 -0.11190537118E+03 -0.25023987766E+02 -0.78513778795E+02  0.13897275101E+03  0.00000000000E+00 0.  1.
         -2    1    1    2    0  505  0.40040820759E+02 -0.91095592760E+02  0.89159950437E+03  0.89713507932E+03  0.00000000000E+00 0.  1.
<scales pt_clust_3="33.74196" pt_clust_4="101.84573" pt_clust_5="14000.00000" pt_clust_6="109.75741"></scales>
<clustering>
<clus scale="   33.742">  1  3  2 -1</clus>
<clus scale="  109.757">  1  6  2 -1</clus>
<clus scale="  101.846">  2  4  1 -1</clus>
<clus scale="  101.846">  2  3  1 -1</clus>
</clustering>
</event>
<event>
 6    0  0.4945982E+002  0.6552174E+02  0.7546771E-02  0.1376020E+00
          2   -1    0    0  504    0 -0.00000000000E+00  0.00000000000E+00  0.19623501068E+04  0.19623501068E+04  0.00000000000E+00 0. -1.
         21   -1    0    0  505  502  0.00000000000E+00 -0.00000000000E+00 -0.39246870827E+02  0.39246870827E+02  0.00000000000E+00 0. -1.
         21    1    1    2  503  502  0.33755844895E+02  0.10821374027E+02  0.43316663486E+01  0.35711658233E+02  0.00000000000E+00 0. -1.
         21    1    1    2  504  503 -0.73427051464E+02  0.28221274100E+02  0.87943172673E+02  0.11799141417E+03  0.00000000000E+00 0. -1.
         21    1    1    2  505  501  0.19810282622E+02 -0.99336915599E+02  0.31818632740E+03  0.33392036332E+03  0.00000000000E+00 0. -1.
          2    1    1    2  501    0  0.19860923947E+02  0.60294267471E+02  0.15126420695E+04  0.15139735419E+04  0.00000000000E+00 0. -1.
<scales pt_clust_3="35.44798" pt_clust_4="62.66615" pt_clust_5="14000.00000" pt_clust_6="65.52174"></scales>
<clustering>
<clus scale="   35.448">  2  3  1 -1</clus>
<clus scale="   62.666">  2  4  1 -1</clus>
<clus scale="   65.522">  1  6  2 -1</clus>
<clus scale="   35.448">  2  3  1 -1</clus>
</clustering>
</event>
<event>
 6    0  0.4945982E+002  0.1462818E+03  0.7546771E-02  0.1205118E+00
         21   -1    0    0  504  502  0.00000000000E+00  0.00000000000E+00  0.20671421340E+03  0.20671421340E+03  0.00000000000E+00 0. -1.
          2   -1    0    0  503    0 -0.00000000000E+00 -0.00000000000E+00 -0.17955384663E+04  0.17955384663E+04  0.00000000000E+00 0. -1.
         21    1    1    2  503  505 -0.67209703296E+02 -0.32129559665E+02 -0.32488874866E+03  0.33331989414E+03  0.00000000000E+00 0.  1.
         21    1    1    2  504  501  0.73824511746E+02  0.17093784694E+03  0.13271459315E+03  0.22865469443E+03  0.00000000000E+00 0. -1.
         21    1    1    2  505  502  0.45392322837E+01 -0.45778183390E+02 -0.59047489389E+01  0.46380090171E+02  0.00000000000E+00 0. -1.
          2    1    1    2  501    0 -0.11154040734E+02 -0.93030103883E+02 -0.13907453484E+04  0.13938980009E+04  0.00000000000E+00 0. -1.
<scales pt_clust_3="74.85480" pt_clust_4="146.28183" pt_clust_5="46.00268" pt_clust_6="14000.00000"></scales>
<clustering>
<clus scale="   46.003">  1  5  2 -1</clus>
<clus scale="   74.855">  2  3  1 -1</clus>
<clus scale="  146.282">  1  4  2 -1</clus>
<clus scale="   46.003">  1  3  2 -1</clus>
</clustering>
</event>
<event>
 6    0  0.4945982E+002  0.1304326E+03  0.7546771E-02  0.1226815E+00
          1   -1    0    0  504    0 -0.00000000000E+00  0.00000000000E+00  0.64444789124E+03  0.64444789124E+03  0.00000000000E+00 0. -1.
         21   -1    0    0  503  502  0.00000000000E+00 -0.00000000000E+00 -0.29867281777E+03  0.29867281777E+03  0.00000000000E+00 0. -1.
         21    1    1    2  503  501  0.96034655321E+02  0.24467372647E+02  0.25086310258E+01  0.99134255314E+02  0.00000000000E+00 0. -1.
         21    1    1    2  504  505 -0.69920459969E+02 -0.54990276104E+02 -0.12421243323E+03  0.15277934991E+03  0.00000000000E+00 0. -1.
         21    1    1    2  505  502 -0.46105574598E+02  0.11631526593E+01 -0.10653800567E+03  0.11609230631E+03  0.00000000000E+00 0. -1.
          1    1    1    2  501    0  0.19991379245E+02  0.29359750797E+02  0.57401688135E+03  0.57511479748E+03  0.00000000000E+00 0. -1.
<scales pt_clust_3="119.69064" pt_clust_4="38.32079" pt_clust_5="38.32079" pt_clust_6="35.51972"></scales>
<clustering>
<clus scale="   35.520">  1  6  2 -1</clus>
<clus scale="   38.321">  4  5 -1 -1</clus>
<clus scale="  119.691">  1  3  2 -1</clus>
<clus scale="  130.433">  2  3  1 -1</clus>
</clustering>
</event>
<event>
 6    0  0.4945982E+002  0.1249939E+03  0.7546771E-02  0.1235079E+00
         21   -1    0    0  501  502  0.00000000000E+00  0.00000000000E+00  0.11995846401E+03  0.11995846401E+03  0.00000000000E+00 0.  1.
          2   -1    0    0  503    0 -0.00000000000E+00 -0.00000000000E+00 -0.66271999808E+03  0.66271999808E+03  0.00000000000E+00 0. -1.
         21    1    1    2  503  504  0.48856670699E+02 -0.21802018412E+02 -0.15868193989E+02  0.55804138369E+02  0.00000000000E+00 0.  1.
         21    1    1    2  504  505  0.70764756407E+02  0.18923915332E+02 -0.12431516312E+02  0.74298774678E+02  0.00000000000E+00 0.  1.
         21    1    1    2  505  502 -0.13300434056E+02  0.55860875995E+02  0.49760808381E+02  0.75983399922E+02  0.00000000000E+00 0.  1.
          2    1    1    2  501    0 -0.10632099305E+03 -0.52982772915E+02 -0.56422263215E+03  0.57659214911E+03  0.00000000000E+00 0. -1.
<scales pt_clust_3="36.34203" pt_clust_4="36.34203" pt_clust_5="57.42246" pt_clust_6="117.53782"></scales>
<clustering>
<clus scale="   36.342">  3  4 -1 -1</clus>
<clus scale="   57.422">  1  5  2 -1</clus>
<clus scale="  117.538">  2  6  1 -1</clus>
<clus scale="   57.422">  1  3  2 -1</clus>
</clustering>
</event>
<event>
 6    0  0.4945982E+002  0.1114784E+03  0.7546771E-02  0.1257856E+00
         21   -1    0    0  503  502  0.00000000000E+00  0.00000000000E+00  0.32912599135E+03  0.32912599135E+03  0.00000000000E+00 0. -1.
          2   -1    0    0  505    0 -0.00000000000E+00 -0.00000000000E+00 -0.25568423048E+03  0.25568423048E+03  0.00000000000E+00 0. -1.
         21    1    1    2  503  501  0.10108348421E+03 -0.17457516324E+02  0.14385120784E+03  0.17667995261E+03  0.00000000000E+00 0. -1.
         21    1    1    2  504  502 -0.13597370568E+03  0.38018266103E+02  0.16041077810E+02  0.14209698579E+03  0.00000000000E+00 0. -1.
         21    1    1    2  505  504 -0.10262274815E+02  0.10391005303E+03 -0.83327135635E+02  0.13358901503E+03  0.00000000000E+00 0. -1.
          2    1    1    2  501    0  0.45152496287E+02 -0.12447080281E+03 -0.31233891433E+01  0.13244426840E+03  0.00000000000E+00 0. -1.
<scales pt_clust_3="102.57990" pt_clust_4="93.53035" pt_clust_5="14000.00000" pt_clust_6="111.47837"></scales>
<clustering>
<clus scale="  102.580">  1  3  2 -1</clus>
<clus scale="   93.530">  1  4  2 -1</clus>
<clus scale="  111.478">  1  6  2 -1</clus>
<clus scale="  102.580">  1  3  2 -1</clus>
</clustering>
</event>
<event>
 6    0  0.4945982E+002  0.8278478E+02  0.7546771E-02  0.1321329E+00
         21   -1    0    0  505  502  0.00000000000E+00  0.00000000000E+00  0.67425938582E+03  0.67425938582E+03  0.00000000000E+00 0.  1.
         -4   -1    0    0    0  501 -0.00000000000E+00 -0.00000000000E+00 -0.14626598887E+03  0.14626598887E+03  0.00000000000E+00 0. -1.
         21    1    1    2  503  504  0.13523578079E+03 -0.73875495298E+01  0.41522483048E+03  0.43675502532E+03  0.00000000000E+00 0.  1.
         21    1    1    2  504  502  0.10537824670E+02 -0.41877975913E+02  0.47477348777E+02  0.64178729048E+02  0.00000000000E+00 0.  1.
         21    1    1    2  505  501 -0.68887105976E+02  0.23035881422E+02  0.17128310011E+03  0.18604834207E+03  0.00000000000E+00 0.  1.
         -4    1    1    2    0  503 -0.76886499481E+02  0.26229644021E+02 -0.10599188242E+03  0.13354327826E+03  0.00000000000E+00 0. -1.
<scales pt_clust_3="14000.00000" pt_clust_4="43.18345" pt_clust_5="66.74494" pt_clust_6="82.78478"></scales>
<clustering>
<clus scale="   43.183">  1  4  2 -1</clus>
<clus scale="   66.745">  1  5  2 -1</clus>
<clus scale="   82.785">  2  6  1 -1</clus>
<clus scale="   43.183">  1  3  2 -1</clus>
</clustering>
</event>
<event>
 6    0  0.4945982E+002  0.9748391E+02  0.7546771E-02  0.1285678E+00
         21   -1    0    0  505  502  0.00000000000E+00  0.00000000000E+00  0.64743745611E+03  0.64743745611E+03  0.00000000000E+00 0. -1.
          2   -1    0    0  503    0 -0.00000000000E+00 -0.00000000000E+00 -0.16210107588E+04  0.16210107588E+04  0.00000000000E+00 0.  1.
         21    1    1    2  503  502 -0.10960540947E+03  0.90395961431E+02  0.17451833533E+03  0.22503649703E+03  0.00000000000E+00 0. -1.
         21    1    1    2  504  501  0.27900965843E+02 -0.65051342039E+02  0.42175881493E+02  0.82395060384E+02  0.00000000000E+00 0. -1.
         21    1    1    2  505  504  0.43583568207E+02 -0.78494277571E+02  0.37945501281E+03  0.38993202713E+03  0.00000000000E+00 0. -1.
          2    1    1    2  501    0  0.38120875423E+02  0.53149658179E+02 -0.15697225323E+04  0.15710846304E+04  0.00000000000E+00 0.  1.
<scales pt_clust_3="97.48391" pt_clust_4="61.50758" pt_clust_5="14000.00000" pt_clust_6="65.40709"></scales>
<clustering>
<clus scale="   65.407">  2  6  1 -1</clus>
<clus scale="   61.508">  2  4  1 -1</clus>
<clus scale="   97.484">  2  3  1 -1</clus>
<clus scale="   97.484">  1  3  2 -1</clus>
</clustering>
</event>
<event>
 6    0  0.4945982E+002  0.1405090E+03  0.7546771E-02  0.1212646E+00
          2   -1    0    0  505    0 -0.00000000000E+00  0.00000000000E+00  0.35565180981E+04  0.35565180981E+04  0.00000000000E+00 0.  1.
         21   -1    0    0  503  502  0.00000000000E+00 -0.00000000000E+00 -0.15962859213E+03  0.15962859213E+03  0.00000000000E+00 0.  1.
         21    1    1    2  503  504  0.66158295749E+02 -0.10783082977E+02 -0.98396331502E+02  0.11905894770E+03  0.00000000000E+00 0.  1.
         21    1    1    2  504  501  0.79903809676E+02  0.14440147467E+02 -0.14476025155E+02  0.82478433326E+02  0.00000000000E+00 0.  1.
         21    1    1    2  505  502 -0.11506306305E+03 -0.27741106441E+02  0.15718654886E+04  0.15763153846E+04  0.00000000000E+00 0. -1.
          2    1    1    2  501    0 -0.30999042370E+02  0.24084041951E+02  0.19378963741E+04  0.19382939247E+04  0.00000000000E+00 0.  1.
<scales pt_clust_3="66.81137" pt_clust_4="14000.00000" pt_clust_5="140.50897" pt_clust_6="39.25534"></scales>
<clustering>
<clus scale="   39.255">  1  6  2 -1</clus>
<clus scale="   66.811">  2  3  1 -1</clus>
<clus scale="  140.509">  1  5  2 -1</clus>
<clus scale="   66.811">  2  3  1 -1</clus>
</clustering>
</event>
<event>
 6    0  0.4945982E+002  0.3177639E+03  0.7546771E-02  0.1076683E+00
         21   -1    0    0  505  502  0.00000000000E+00  0.00000000000E+00  0.20583298774E+03  0.20583298774E+03  0.00000000000E+00 0.  1.
          1   -1    0    0  503    0 -0.00000000000E+00 -0.00000000000E+00 -0.97015867523E+03  0.97015867523E+03  0.00000000000E+00 0. -1.
         21    1    1    2  503  502 -0.39178968612E+02 -0.58357524887E+01  0.60553755800E+02  0.72358862139E+02  0.00000000000E+00 0.  1.
         21    1    1    2  504  501  0.17929333336E+03  0.64884583498E+02 -0.11931115211E+03  0.22492500880E+03  0.00000000000E+00 0.  1.
         21    1    1    2  505  504  0.11534583264E+03  0.99047402082E+02 -0.54220272074E+02  0.16141526220E+03  0.00000000000E+00 0.  1.
          1    1    1    2  501    0 -0.25546019739E+03 -0.15809623309E+03 -0.65134801911E+03  0.71729252984E+03  0.00000000000E+00 0. -1.
<scales pt_clust_3="39.61121" pt_clust_4="65.75745" pt_clust_5="65.75745" pt_clust_6="309.05364"></scales>
<clustering>
<clus scale="   39.611">  1  3  2 -1</clus>
<clus scale="   65.757">  4  5 -1 -1</clus>
<clus scale="  309.054">  2  6  1 -1</clus>
<clus scale="   39.611">  1  3  2 -1</clus>
</clustering>
</event>
<event>
 6    0  0.4945982E+002  0.9587052E+02  0.7546771E-02  0.1289227E+00
          2   -1    0    0  504    0 -0.00000000000E+00  0.00000000000E+00  0.30456482537E+03  0.30456482537E+03  0.00000000000E+00 0. -1.
         21   -1    0    0  503  502  0.00000000000E+00 -0.00000000000E+00 -0.24358331289E+03  0.24358331289E+03  0.00000000000E+00 0. -1.
         21    1    1    2  503  501 -0.91691785571E+02  0.42373640741E+02 -0.18968777714E+03  0.21490547170E+03  0.00000000000E+00 0. -1.
         21    1    1    2  504  505  0.19947129174E+02 -0.61478602510E+02  0.51133644849E+02  0.82414538550E+02  0.00000000000E+00 0.  1.
         21    1    1    2  505  502  0.66965221428E+02 -0.27076623629E+02  0.35761253092E+02  0.80599948206E+02  0.00000000000E+00 0. -1.
          2    1    1    2  501    0  0.47794349690E+01  0.46181585398E+02  0.16377439168E+03  0.17022817980E+03  0.00000000000E+00 0. -1.
<scales pt_clust_3="95.87052" pt_clust_4="44.96274" pt_clust_5="14000.00000" pt_clust_6="46.42824"></scales>
<clustering>
<clus scale="   46.428">  1  6  2 -1</clus>
<clus scale="   44.963">  1  4  2 -1</clus>
<clus scale="   95.871">  2  3  1 -1</clus>
<clus scale="   95.871">  2  3  1 -1</clus>
</clustering>
</event>
<event>
 6    0  0.4945982E+002  0.2410828E+03  0.7546771E-02  0.1119074E+00
         21   -1    0    0  503  502  0.00000000000E+00  0.00000000000E+00  0.91713220586E+03  0.91713220586E+03  0.00000000000E+00 0.  1.
         -1   -1    0    0    0  501 -0.00000000000E+00 -0.00000000000E+00 -0.23604487792E+03  0.23604487792E+03  0.00000000000E+00 0.  1.
         21    1    1    2  503  501 -0.17205992901E+02  0.37113374390E+02  0.89663373612E+02  0.98554397759E+02  0.00000000000E+00 0.  1.
         21    1    1    2  504  505 -0.24555559505E+03 -0.10932533457E+03  0.41934897557E+03  0.49809953056E+03  0.00000000000E+00 0.  1.
         21    1    1    2  505  502  0.40621349301E+02 -0.95952799622E+01  0.28934731866E+03  0.29234232371E+03  0.00000000000E+00 0.  1.
         -1    1    1    2    0  504  0.22214023865E+03  0.81807240146E+02 -0.11727233989E+03  0.26418083176E+03  0.00000000000E+00 0.  1.
<scales pt_clust_3="40.90781" pt_clust_4="241.08277" pt_clust_5="34.71990" pt_clust_6="14000.00000"></scales>
<clustering>
<clus scale="   40.908">  1  3  2 -1</clus>
<clus scale="   34.720">  1  5  2 -1</clus>
<clus scale="  241.083">  1  4  2 -1</clus>
<clus scale="   40.908">  1  3  2 -1</clus>
</clustering>
</event>
<event>
 6    0  0.4945982E+002  0.1327132E+03  0.7546771E-02  0.1223484E+00
         21   -1    0    0  505  502  0.00000000000E+00  0.00000000000E+00  0.76965613990E+02  0.76965613990E+02  0.00000000000E+00 0. -1.
          1   -1    0    0  504    0 -0.00000000000E+00 -0.00000000000E+00 -0.22031245591E+04  0.22031245591E+04  0.00000000000E+00 0. -1.
         21    1    1    2  503  502  0.10962861962E+03  0.31226617264E+02 -0.71934631164E+03  0.72832180520E+03  0.00000000000E+00 0. -1.
         21    1    1    2  504  503  0.76927628237E+02 -0.14564732804E+02 -0.74640445308E+03  0.75049956630E+03  0.00000000000E+00 0. -1.
         21    1    1    2  505  501 -0.11690905793E+03  0.63600932145E+00  0.18684868640E+02  0.11839449586E+03  0.00000000000E+00 0. -1.
          1    1    1    2  501    0 -0.69647189927E+02 -0.17297893782E+02 -0.67909304906E+03  0.68287430577E+03  0.00000000000E+00 0. -1.
<scales pt_clust_3="48.37120" pt_clust_4="48.37120" pt_clust_5="119.19024" pt_clust_6="71.76314"></scales>
<clustering>
<clus scale="   48.371">  3  4 -1 -1</clus>
<clus scale="   71.763">  2  6  1 -1</clus>
<clus scale="  119.190">  1  5  2 -1</clus>
<clus scale="  119.190">  1  3  2 -1</clus>
</clustering>
</event>
<event>
 6    0  0.4945982E+002  0.2006187E+03  0.7546771E-02  0.1149218E+00
         21   -1    0    0  505  502  0.00000000000E+00  0.00000000000E+00  0.45550949824E+03  0.45550949824E+03  0.00000000000E+00 0. -1.
          2   -1    0    0  502    0 -0.00000000000E+00 -0.00000000000E+00 -0.40534344090E+03  0.40534344090E+03  0.00000000000E+00 0. -1.
         21    1    1    2  503  501  0.12915232314E+03  0.47153650278E+01 -0.90868997405E+02  0.15798649287E+03  0.00000000000E+00 0. -1.
         21    1    1    2  504  503 -0.87132690708E+02 -0.28356119253E+02  0.19250441847E+03  0.21319973363E+03  0.00000000000E+00 0. -1.
         21    1    1    2  505  504 -0.11941485992E+03  0.20348670656E+02  0.19596873636E+03  0.23038602995E+03  0.00000000000E+00 0. -1.
          2    1    1    2  501    0  0.77395227480E+02  0.32920835690E+01 -0.24743810007E+03  0.25928068269E+03  0.00000000000E+00 0. -1.
<scales pt_clust_3="192.65756" pt_clust_4="48.66536" pt_clust_5="48.66536" pt_clust_6="77.46521"></scales>
<clustering>
<clus scale="   48.665">  4  5 -1 -1</clus>
<clus scale="   77.465">  2  6  1 -1</clus>
<clus scale="  192.658">  2  3  1 -1</clus>
<clus scale="  200.619">  1  3  2 -1</clus>
</clustering>
</event>
<event>
 6    0  0.4945982E+002  0.2086878E+03  0.7546771E-02  0.1142609E+00
          2   -1    0    0  504    0 -0.00000000000E+00  0.00000000000E+00  0.19433917895E+04  0.19433917895E+04  0.00000000000E+00 0. -1.
         21   -1    0    0  503  502  0.00000000000E+00 -0.00000000000E+00 -0.92741919610E+02  0.92741919610E+02  0.00000000000E+00 0. -1.
         21    1    1    2  503  505  0.17185432205E+02 -0.20415269542E+03  0.64178117695E+02  0.21469162284E+03  0.00000000000E+00 0. -1.
         21    1    1    2  504  502 -0.30292155900E+02  0.11152118321E+02  0.29425536558E+03  0.29602061520E+03  0.00000000000E+00 0. -1.
         21    1    1    2  505  501  0.34910042916E+01  0.23284300310E+03  0.83315535773E+03  0.86508722179E+03  0.00000000000E+00 0. -1.
          2    1    1    2  501    0  0.96157194040E+01 -0.39842426001E+02  0.65906102888E+03  0.66033424927E+03  0.00000000000E+00 0. -1.
<scales pt_clust_3="14000.00000" pt_clust_4="32.27978" pt_clust_5="208.68783" pt_clust_6="35.46771"></scales>
<clustering>
<clus scale="   32.280">  1  4  2 -1</clus>
<clus scale="   35.468">  1  6  2 -1</clus>
<clus scale="  208.688">  1  5  2 -1</clus>
<clus scale="  208.688">  2  3  1 -1</clus>
</clustering>
</event>
<event>
 6    0  0.4945982E+002  0.1113429E+03  0.7546771E-02  0.1258103E+00
         21   -1    0    0  501  502  0.00000000000E+00  0.00000000000E+00  0.10707808529E+04  0.10707808529E+04  0.00000000000E+00 0. -1.
          3   -1    0    0  505    0 -0.00000000000E+00 -0.00000000000E+00 -0.25745980755E+03  0.25745980755E+03  0.00000000000E+00 0. -1.
         21    1    1    2  503  504  0.76970402389E+02 -0.67952028644E+01  0.26335329356E+02  0.81634350601E+02  0.00000000000E+00 0. -1.
         21    1    1    2  504  502 -0.83078980631E+02 -0.32244266594E+02  0.98945070175E+03  0.99345583744E+03  0.00000000000E+00 0. -1.
         21    1    1    2  505  503  0.64198448072E+02  0.11350569589E+02 -0.35542555514E+02  0.74253278832E+02  0.00000000000E+00 0. -1.
          3    1    1    2  501    0 -0.58089869829E+02  0.27688899869E+02 -0.16692243024E+03  0.17889719358E+03  0.00000000000E+00 0. -1.
<scales pt_clust_3="59.99980" pt_clust_4="90.16901" pt_clust_5="59.99980" pt_clust_6="64.35144"></scales>
<clustering>
<clus scale="   60.000">  3  5 -1 -1</clus>
<clus scale="   64.351">  2  6  1 -1</clus>
<clus scale="   90.169">  1  4  2 -1</clus>
<clus scale="   90.169">  1  3  2 -1</clus>
</clustering>
</event>
<event>
 6    0  0.4945982E+002  0.7460069E+02  0.7546771E-02  0.1345112E+00
          2   -1    0    0  504    0 -0.00000000000E+00  0.00000000000E+00  0.39379090407E+04  0.39379090407E+04  0.00000000000E+00 0. -1.
         21   -1    0    0  505  502  0.00000000000E+00 -0.00000000000E+00 -0.12170788784E+02  0.12170788784E+02  0.00000000000E+00 0.  1.
         21    1    1    2  503  502 -0.35356844959E+02 -0.12588018375E+02  0.43528744252E+02  0.57474483628E+02  0.00000000000E+00 0.  1.
         21    1    1    2  504  503  0.65187482866E+02  0.26613515139E+02  0.45405466008E+03  0.45948157901E+03  0.00000000000E+00 0. -1.
         21    1    1    2  505  501 -0.14651263707E+02  0.63068823119E+02  0.53524802364E+03  0.53915005591E+03  0.00000000000E+00 0.  1.
          2    1    1    2  501    0 -0.15179374199E+02 -0.77094319883E+02  0.28929068240E+04  0.28939737110E+04  0.00000000000E+00 0. -1.
<scales pt_clust_3="37.53085" pt_clust_4="50.84687" pt_clust_5="14000.00000" pt_clust_6="74.60069"></scales>
<clustering>
<clus scale="   37.531">  2  3  1 -1</clus>
<clus scale="   50.847">  2  4  1 -1</clus>
<clus scale="   74.601">  1  6  2 -1</clus>
<clus scale="   37.531">  2  3  1 -1</clus>
</clustering>
</event>
<event>
 6    0  0.4945982E+002  0.9769556E+02  0.7546771E-02  0.1285218E+00
          1   -1    0    0  505    0 -0.00000000000E+00  0.00000000000E+00  0.69373624077E+03  0.69373624077E+03  0.00000000000E+00 0. -1.
         21   -1    0    0  503  502  0.00000000000E+00 -0.00000000000E+00 -0.69033338573E+03  0.69033338573E+03  0.00000000000E+00 0. -1.
         21    1    1    2  503  504 -0.37223464650E+02 -0.57426088853E+02 -0.47908893457E+03  0.48395201129E+03  0.00000000000E+00 0. -1.
         21    1    1    2  504  501  0.88615997436E+02 -0.49449876575E+02 -0.33017646824E+02  0.10671574531E+03  0.00000000000E+00 0. -1.
         21    1    1    2  505  502 -0.86701095670E+01  0.13164623147E+03 -0.10642757408E+03  0.16950731425E+03  0.00000000000E+00 0. -1.
          1    1    1    2  501    0 -0.42722423219E+02 -0.24770266038E+02  0.62193701052E+03  0.62389455566E+03  0.00000000000E+00 0. -1.
<scales pt_clust_3="69.95066" pt_clust_4="97.69556" pt_clust_5="14000.00000" pt_clust_6="49.38392"></scales>
<clustering>
<clus scale="   49.384">  1  6  2 -1</clus>
<clus scale="   69.951">  2  3  1 -1</clus>
<clus scale="   97.696">  1  4  2 -1</clus>
<clus scale="   69.951">  2  3  1 -1</clus>
</clustering>
</event>
<event>
 6    0  0.4945982E+002  0.9732597E+02  0.7546771E-02  0.1286022E+00
         21   -1    0    0  501  502  0.00000000000E+00  0.00000000000E+00  0.32479851518E+03  0.32479851518E+03  0.00000000000E+00 0. -1.
          2   -1    0    0  505    0 -0.00000000000E+00 -0.00000000000E+00 -0.98540836438E+03  0.98540836438E+03  0.00000000000E+00 0. -1.
         21    1    1    2  503  504  0.69898190351E+02 -0.46763411500E+01  0.99643352204E+02  0.12180485548E+03  0.00000000000E+00 0. -1.
         21    1    1    2  504  502 -0.26727602190E+02 -0.15009802306E+02  0.17102597729E+03  0.17375138501E+03  0.00000000000E+00 0. -1.
         21    1    1    2  505  503  0.56250709507E+02  0.29525590328E+02  0.13213744173E+02  0.64888410670E+02  0.00000000000E+00 0. -1.
          2    1    1    2  501    0 -0.99421297668E+02 -0.98394468715E+01 -0.94449292287E+03  0.94976222840E+03  0.00000000000E+00 0. -1.
<scales pt_clust_3="52.83067" pt_clust_4="30.65386" pt_clust_5="97.32597" pt_clust_6="14000.00000"></scales>
<clustering>
<clus scale="   30.654">  1  4  2 -1</clus>
<clus scale="   52.831">  1  3  2 -1</clus>
<clus scale="   97.326">  1  5  2 -1</clus>
<clus scale="   30.654">  1  3  2 -1</clus>
</clustering>
</event>
<event>
 6    0  0.4945982E+002  0.7732232E+02  0.7546771E-02  0.1336827E+00
          2   -1    0    0  504    0 -0.00000000000E+00  0.00000000000E+00  0.15726821933E+04  0.15726821933E+04  0.00000000000E+00 0. -1.
         21   -1    0    0  505  502  0.00000000000E+00 -0.00000000000E+00 -0.11039401216E+03  0.11039401216E+03  0.00000000000E+00 0. -1.
         21    1    1    2  503  502 -0.45164702908E+02 -0.25800127591E+02  0.23122686100E+02  0.56922364541E+02  0.00000000000E+00 0. -1.
         21    1    1    2  504  503 -0.97082091971E+02  0.14904392981E+02  0.29015475233E+03  0.30632801670E+03  0.00000000000E+00 0. -1.
         21    1    1    2  505  501  0.69320661640E+02 -0.77740523746E+01 -0.69807114056E+02  0.98685476101E+02  0.00000000000E+00 0. -1.
          2    1    1    2  501    0  0.72926133239E+02  0.18669786985E+02  0.12188178567E+04  0.12211403481E+04  0.00000000000E+00 0. -1.
<scales pt_clust_3="52.01439" pt_clust_4="14000.00000" pt_clust_5="42.20988" pt_clust_6="77.32232"></scales>
<clustering>
<clus scale="   52.014">  2  3  1 -1</clus>
<clus scale="   42.210">  2  5  1 -1</clus>
<clus scale="   77.322">  1  6  2 -1</clus>
<clus scale="   52.014">  2  3  1 -1</clus>
</clustering>
</event>
<event>
 6    0  0.4945982E+002  0.1240815E+03  0.7546771E-02  0.1236512E+00
          2   -1    0    0  504    0 -0.00000000000E+00  0.00000000000E+00  0.37090321032E+03  0.37090321032E+03  0.00000000000E+00 0. -1.
         21   -1    0    0  505  502  0.00000000000E+00 -0.00000000000E+00 -0.43086343367E+03  0.43086343367E+03  0.00000000000E+00 0. -1.
         21    1    1    2  503  502 -0.50368339345E+02 -0.67264927580E+01 -0.19107165532E+03  0.19771341073E+03  0.00000000000E+00 0. -1.
         21    1    1    2  504  503  0.12997041987E+03  0.10816758000E+03 -0.18777054991E+03  0.25268619832E+03  0.00000000000E+00 0.  1.
         21    1    1    2  505  501 -0.45376486305E+02 -0.69258778580E+02  0.11238268693E+03  0.13959108941E+03  0.00000000000E+00 0. -1.
          2    1    1    2  501    0 -0.34225594223E+02 -0.32182308665E+02  0.20649929495E+03  0.21177594554E+03  0.00000000000E+00 0. -1.
<scales pt_clust_3="51.60245" pt_clust_4="14000.00000" pt_clust_5="124.08153" pt_clust_6="46.97970"></scales>
<clustering>
<clus scale="   46.980">  1  6  2 -1</clus>
<clus scale="   51.602">  2  3  1 -1</clus>
<clus scale="  124.082">  1  5  2 -1</clus>
<clus scale="   51.602">  2  3  1 -1</clus>
</clustering>
</event>
<event>
 6    0  0.4945982E+002  0.1675449E+03  0.7546771E-02  0.1180433E+00
         21   -1    0    0  504  502  0.00000000000E+00  0.00000000000E+00  0.13628463723E+04  0.13628463723E+04  0.00000000000E+00 0.  1.
          2   -1    0    0  505    0 -0.00000000000E+00 -0.00000000000E+00 -0.16324197201E+04  0.16324197201E+04  0.00000000000E+00 0.  1.
         21    1    1    2  503  501  0.14204416232E+03  0.73209427504E+01  0.30402871115E+03  0.33565398472E+03  0.00000000000E+00 0.  1.
         21    1    1    2  504  503  0.30943923555E+02  0.54578472076E+01  0.56262344287E+03  0.56350018010E+03  0.00000000000E+00 0.  1.
         21    1    1    2  505  502 -0.11315771525E+02  0.32664461954E+02  0.47495069097E+03  0.47620706905E+03  0.00000000000E+00 0. -1.
          2    1    1    2  501    0 -0.16167231435E+03 -0.45443251912E+02 -0.16111761929E+04  0.16199048586E+04  0.00000000000E+00 0.  1.
<scales pt_clust_3="167.54486" pt_clust_4="31.42156" pt_clust_5="36.60205" pt_clust_6="14000.00000"></scales>
<clustering>
<clus scale="   31.422">  1  4  2 -1</clus>
<clus scale="   36.602">  1  5  2 -1</clus>
<clus scale="  167.545">  1  3  2 -1</clus>
<clus scale="   31.422">  1  3  2 -1</clus>
</clustering>
</event>
<event>
 6    0  0.4945982E+002  0.8296487E+02  0.7546771E-02  0.1320842E+00
         -4   -1    0    0    0  501 -0.00000000000E+00  0.00000000000E+00  0.15980393913E+04  0.15980393913E+04  0.00000000000E+00 0. -1.
         21   -1    0    0  505  502  0.00000000000E+00 -0.00000000000E+00 -0.12501984738E+02  0.12501984738E+02  0.00000000000E+00 0.  1.
         21    1    1    2  503  501 -0.76496592442E+02  0.46266441990E+02  0.58923991726E+03  0.59598321487E+03  0.00000000000E+00 0.  1.
         21    1    1    2  504  502 -0.40660198319E+02 -0.35249238406E+02  0.38185227157E+03  0.38562535944E+03  0.00000000000E+00 0.  1.
         21    1    1    2  505  503  0.39873795802E+02  0.66467494096E+01  0.91756817516E+02  0.10026670649E+03  0.00000000000E+00 0.  1.
         -4    1    1    2    0  504  0.77282994958E+02 -0.17663952994E+02  0.52268840018E+03  0.52866609521E+03  0.00000000000E+00 0. -1.
<scales pt_clust_3="14000.00000" pt_clust_4="46.17718" pt_clust_5="40.42399" pt_clust_6="82.96487"></scales>
<clustering>
<clus scale="   40.424">  2  5  1 -1</clus>
<clus scale="   46.177">  2  4  1 -1</clus>
<clus scale="   82.965">  1  6  2 -1</clus>
<clus scale="   40.424">  2  3  1 -1</clus>
</clustering>
</event>
<event>
 6    0  0.4945982E+002  0.1036827E+03  0.7546771E-02  0.1272737E+00
         21   -1    0    0  505  502  0.00000000000E+00  0.00000000000E+00  0.20473575037E+02  0.20473575037E+02  0.00000000000E+00 0.  1.
          1   -1    0    0  503    0 -0.00000000000E+00 -0.00000000000E+00 -0.45833197872E+04  0.45833197872E+04  0.00000000000E+00 0.  1.
         21    1    1    2  503  502 -0.24732738363E+02 -0.89445187590E+02 -0.79063823174E+03  0.79606592906E+03  0.00000000000E+00 0.  1.
         21    1    1    2  504  501  0.16651902927E+03  0.28456350878E+02 -0.82684758422E+03  0.84392847952E+03  0.00000000000E+00 0.  1.
         21    1    1    2  505  504 -0.86501554200E+02  0.18208494471E+02 -0.21392452166E+03  0.23146872168E+03  0.00000000000E+00 0.  1.
          1    1    1    2  501    0 -0.55284736705E+02  0.42780342241E+02 -0.27314358745E+04  0.27323302320E+04  0.00000000000E+00 0.  1.
<scales pt_clust_3="86.03420" pt_clust_4="103.68271" pt_clust_5="14000.00000" pt_clust_6="69.90393"></scales>
<clustering>
<clus scale="   69.904">  2  6  1 -1</clus>
<clus scale="   86.034">  2  3  1 -1</clus>
<clus scale="  103.683">  2  4  1 -1</clus>
<clus scale="  103.683">  1  3  2 -1</clus>
</clustering>
</event>
<event>
 6    0  0.4945982E+002  0.1061433E+03  0.7546771E-02  0.1267883E+00
          3   -1    0    0  503    0 -0.00000000000E+00  0.00000000000E+00  0.26721030702E+03  0.26721030702E+03  0.00000000000E+00 0.  1.
         21   -1    0    0  505  502  0.00000000000E+00 -0.00000000000E+00 -0.82081835758E+03  0.82081835758E+03  0.00000000000E+00 0. -1.
         21    1    1    2  503  504  0.23998855533E+02  0.97877112155E+02 -0.28913079633E+03  0.30619028649E+03  0.00000000000E+00 0. -1.
         21    1    1    2  504  502  0.92904694549E+02  0.32411599204E+02 -0.43616278961E+03  0.44712389007E+03  0.00000000000E+00 0. -1.
         21    1    1    2  505  501 -0.59525365814E+02 -0.40481186803E+02 -0.50742915665E+02  0.88072919507E+02  0.00000000000E+00 0.  1.
          3    1    1    2  501    0 -0.57378184268E+02 -0.89807524556E+02  0.22242845105E+03  0.24664156854E+03  0.00000000000E+00 0.  1.
<scales pt_clust_3="14000.00000" pt_clust_4="58.55626" pt_clust_5="71.98608" pt_clust_6="106.14325"></scales>
<clustering>
<clus scale="   71.986">  2  5  1 -1</clus>
<clus scale="   58.556">  2  4  1 -1</clus>
<clus scale="  106.143">  1  6  2 -1</clus>
<clus scale="   71.986">  2  3  1 -1</clus>
</clustering>
</event>
<event>
 6    0  0.4945982E+002  0.1096630E+03  0.7546771E-02  0.1261195E+00
         21   -1    0    0  501  502  0.00000000000E+00  0.00000000000E+00  0.13645710435E+04  0.13645710435E+04  0.00000000000E+00 0.  1.
          1   -1    0    0  505    0 -0.00000000000E+00 -0.00000000000E+00 -0.10075790559E+03  0.10075790559E+03  0.00000000000E+00 0.  1.
         21    1    1    2  503  502 -0.19879531758E+02  0.11482692031E+03  0.11317866450E+04  0.11377703755E+04  0.00000000000E+00 0.  1.
         21    1    1    2  504  503  0.31922140852E+02 -0.36927989468E+02 -0.61451214097E+02  0.78478985701E+02  0.00000000000E+00 0.  1.
         21    1    1    2  505  504  0.40167958493E+02  0.80706172920E+01  0.13921934987E+02  0.43271468969E+02  0.00000000000E+00 0. -1.
          1    1    1    2  501    0 -0.52210567587E+02 -0.85969548135E+02  0.17955577199E+03  0.20580811896E+03  0.00000000000E+00 0.  1.
<scales pt_clust_3="109.66304" pt_clust_4="71.35417" pt_clust_5="40.97072" pt_clust_6="14000.00000"></scales>
<clustering>
<clus scale="   40.971">  2  5  1 -1</clus>
<clus scale="   71.354">  2  4  1 -1</clus>
<clus scale="  109.663">  1  3  2 -1</clus>
<clus scale="  109.663">  1  3  2 -1</clus>
</clustering>
</event>
<event>
 6    0  0.4945982E+002  0.1869189E+03  0.7546771E-02  0.1161270E+00
         21   -1    0    0  505  502  0.00000000000E+00  0.00000000000E+00  0.15109886689E+03  0.15109886689E+03  0.00000000000E+00 0.  1.
          2   -1    0    0  502    0 -0.00000000000E+00 -0.00000000000E+00 -0.23278581242E+04  0.23278581242E+04  0.00000000000E+00 0.  1.
         21    1    1    2  503  504  0.14885491755E+03  0.16509293773E+02 -0.34405609505E+03  0.37523984304E+03  0.00000000000E+00 0.  1.
         21    1    1    2  504  501  0.31268997541E+02  0.72049920955E+02 -0.20445122685E+03  0.21901882448E+03  0.00000000000E+00 0.  1.
         21    1    1    2  505  503 -0.18899182494E+03 -0.47300248687E+02  0.53803222337E+02  0.20211385444E+03  0.00000000000E+00 0.  1.
          2    1    1    2  501    0  0.88679098519E+01 -0.41258966041E+02 -0.16820551578E+04  0.16825844692E+04  0.00000000000E+00 0.  1.
<scales pt_clust_3="14000.00000" pt_clust_4="67.76696" pt_clust_5="186.91895" pt_clust_6="42.20121"></scales>
<clustering>
<clus scale="   42.201">  2  6  1 -1</clus>
<clus scale="   67.767">  2  4  1 -1</clus>
<clus scale="  186.919">  1  5  2 -1</clus>
<clus scale="  186.919">  1  3  2 -1</clus>
</clustering>
</event>
<event>
 6    0  0.4945982E+002  0.1385663E+03  0.7546771E-02  0.1215271E+00
         21   -1    0    0  503  502  0.00000000000E+00  0.00000000000E+00  0.16309988687E+03  0.16309988687E+03  0.00000000000E+00 0. -1.
          2   -1    0    0  504    0 -0.00000000000E+00 -0.00000000000E+00 -0.12816528932E+04  0.12816528932E+04  0.00000000000E+00 0.  1.
         21    1    1    2  503  501 -0.26217111830E+02 -0.90861774106E+02 -0.79611715784E+02  0.12361724894E+03  0.00000000000E+00 0. -1.
         21    1    1    2  504  505 -0.27380707720E+02  0.62263622943E+02  0.20367950902E+02  0.71002220537E+02  0.00000000000E+00 0. -1.
         21    1    1    2  505  502  0.16425864167E+02  0.73473296375E+02  0.79698664512E+02  0.10963581267E+03  0.00000000000E+00 0. -1.
          2    1    1    2  501    0  0.37171955383E+02 -0.44875145212E+02 -0.11390079060E+04  0.11404974979E+04  0.00000000000E+00 0.  1.
<scales pt_clust_3="122.99744" pt_clust_4="57.44372" pt_clust_5="57.44372" pt_clust_6="58.27120"></scales>
<clustering>
<clus scale="   58.271">  2  6  1 -1</clus>
<clus scale="   57.444">  4  5 -1 -1</clus>
<clus scale="  122.997">  2  3  1 -1</clus>
<clus scale="  138.566">  1  3  2 -1</clus>
</clustering>
</event>
<event>
 6    0  0.4945982E+002  0.1170348E+03  0.7546771E-02  0.1248071E+00
          1   -1    0    0  503    0 -0.00000000000E+00  0.00000000000E+00  0.32716702654E+03  0.32716702654E+03  0.00000000000E+00 0. -1.
         21   -1    0    0  501  502  0.00000000000E+00 -0.00000000000E+00 -0.69733363413E+02  0.69733363413E+02  0.00000000000E+00 0. -1.
         21    1    1    2  503  504  0.27958508709E+02  0.38357615027E+02  0.45697422146E+02  0.65888081096E+02  0.00000000000E+00 0. -1.
         21    1    1    2  504  505 -0.49905723674E+01 -0.65497204212E+02  0.10836793170E+02  0.66574962698E+02  0.00000000000E+00 0. -1.
         21    1    1    2  505  502  0.24970049319E+02 -0.54294034877E+02  0.25034056006E+02  0.64792357160E+02  0.00000000000E+00 0. -1.
          1    1    1    2  501    0 -0.47937985661E+02  0.81433624062E+02  0.17586539181E+03  0.19964498900E+03  0.00000000000E+00 0. -1.
<scales pt_clust_3="47.46562" pt_clust_4="33.33657" pt_clust_5="33.33657" pt_clust_6="111.69422"></scales>
<clustering>
<clus scale="   33.337">  4  5 -1 -1</clus>
<clus scale="   47.466">  1  3  2 -1</clus>
<clus scale="  111.694">  1  6  2 -1</clus>
<clus scale="  117.035">  2  3  1 -1</clus>
</clustering>
</event>
<event>
 6    0  0.4945982E+002  0.8833049E+02  0.7546771E-02  0.1306946E+00
          2   -1    0    0  503    0 -0.00000000000E+00  0.00000000000E+00  0.10149167937E+04  0.10149167937E+04  0.00000000000E+00 0. -1.
         21   -1    0    0  504  502  0.00000000000E+00 -0.00000000000E+00 -0.41010668024E+03  0.41010668024E+03  0.00000000000E+00 0.  1.
         21    1    1    2  503  505  0.85587403196E+02 -0.29873621934E+01 -0.68400826446E+02  0.10960292413E+03  0.00000000000E+00 0.  1.
         21    1    1    2  504  501  0.34424693352E+02  0.16068204568E+02 -0.11633414873E+03  0.12238006730E+03  0.00000000000E+00 0.  1.
         21    1    1    2  505  502 -0.51310569860E+02 -0.69309976293E+02 -0.19043328878E+03  0.20904900112E+03  0.00000000000E+00 0.  1.
          2    1    1    2  501    0 -0.68701526687E+02  0.56229133918E+02  0.97997837739E+03  0.98399148138E+03  0.00000000000E+00 0. -1.
<scales pt_clust_3="14000.00000" pt_clust_4="37.99009" pt_clust_5="64.50343" pt_clust_6="88.33049"></scales>
<clustering>
<clus scale="   37.990">  2  4  1 -1</clus>
<clus scale="   64.503">  2  5  1 -1</clus>
<clus scale="   88.330">  1  6  2 -1</clus>
<clus scale="   37.990">  2  3  1 -1</clus>
</clustering>
</event>
<event>
 6    0  0.4945982E+002  0.8982036E+02  0.7546771E-02  0.1303287E+00
         21   -1    0    0  505  502  0.00000000000E+00  0.00000000000E+00  0.42669117176E+03  0.42669117176E+03  0.00000000000E+00 0. -1.
          1   -1    0    0  503    0 -0.00000000000E+00 -0.00000000000E+00 -0.45940396374E+03  0.45940396374E+03  0.00000000000E+00 0. -1.
         21    1    1    2  503  504  0.33371158819E+02 -0.85141872052E+01 -0.33889149512E+02  0.48317699442E+02  0.00000000000E+00 0. -1.
         21    1    1    2  504  502 -0.54986806562E+02  0.71569505269E+02  0.39618529700E+03  0.40633549259E+03  0.00000000000E+00 0. -1.
         21    1    1    2  505  501 -0.56112574371E+01 -0.99953867660E+02 -0.13865498113E+03  0.17101890440E+03  0.00000000000E+00 0. -1.
          1    1    1    2  501    0  0.27226905180E+02  0.36898549596E+02 -0.25635395834E+03  0.26042303908E+03  0.00000000000E+00 0. -1.
<scales pt_clust_3="34.44017" pt_clust_4="14000.00000" pt_clust_5="89.82036" pt_clust_6="57.35648"></scales>
<clustering>
<clus scale="   34.440">  2  3  1 -1</clus>
<clus scale="   57.356">  2  6  1 -1</clus>
<clus scale="   89.820">  2  5  1 -1</clus>
<clus scale="   89.820">  1  3  2 -1</clus>
</clustering>
</event>
<event>
 6    0  0.4945982E+002  0.2750233E+03  0.7546771E-02  0.1098439E+00
          2   -1    0    0  503    0 -0.00000000000E+00  0.00000000000E+00  0.69098534472E+03  0.69098534472E+03  0.00000000000E+00 0.  1.
         21   -1    0    0  504  502  0.00000000000E+00 -0.00000000000E+00 -0.23502861588E+03  0.23502861588E+03  0.00000000000E+00 0. -1.
         21    1    1    2  503  505 -0.23390074799E+03  0.10825812949E+03  0.17944210403E+03  0.31405230649E+03  0.00000000000E+00 0. -1.
         21    1    1    2  504  501 -0.69884259660E+02 -0.23577745302E+02 -0.44774446194E+02  0.86281347079E+02  0.00000000000E+00 0. -1.
         21    1    1    2  505  502  0.15744780288E+02 -0.35168571424E+02 -0.43591394205E+02  0.58180204289E+02  0.00000000000E+00 0. -1.
          2    1    1    2  501    0  0.28804022736E+03 -0.49511812765E+02  0.36488046520E+03  0.46750010275E+03  0.00000000000E+00 0.  1.
<scales pt_clust_3="275.02327" pt_clust_4="73.72094" pt_clust_5="38.53215" pt_clust_6="14000.00000"></scales>
<clustering>
<clus scale="   38.532">  2  5  1 -1</clus>
<clus scale="   73.721">  2  4  1 -1</clus>
<clus scale="  275.023">  2  3  1 -1</clus>
<clus scale="   38.532">  2  3  1 -1</clus>
</clustering>
</event>
<event>
 6    0  0.4945982E+002  0.1176945E+03  0.7546771E-02  0.1246950E+00
          4   -1    0    0  502    0 -0.00000000000E+00  0.00000000000E+00  0.33066749563E+03  0.33066749563E+03  0.00000000000E+00 0.  1.
         21   -1    0    0  503  502  0.00000000000E+00 -0.00000000000E+00 -0.18926490624E+03  0.18926490624E+03  0.00000000000E+00 0. -1.
         21    1    1    2  503  505  0.94587041513E+01  0.29358728852E+02 -0.20994451879E+02  0.37311781701E+02  0.00000000000E+00 0.  1.
         21    1    1    2  504  501 -0.76604371965E+02 -0.26972949792E+02  0.58442473878E+02  0.10005644696E+03  0.00000000000E+00 0. -1.
         21    1    1    2  505  504  0.13342101817E+03 -0.30047286884E+02 -0.97980730370E+02  0.16823861347E+03  0.00000000000E+00 0. -1.
          4    1    1    2  501    0 -0.66275350352E+02  0.27661507824E+02  0.20193529776E+03  0.21432555974E+03  0.00000000000E+00 0.  1.
<scales pt_clust_3="30.84481" pt_clust_4="117.69453" pt_clust_5="14000.00000" pt_clust_6="71.92593"></scales>
<clustering>
<clus scale="   30.845">  2  3  1 -1</clus>
<clus scale="   71.926">  1  6  2 -1</clus>
<clus scale="  117.695">  1  4  2 -1</clus>
<clus scale="   30.845">  2  3  1 -1</clus>
</clustering>
</event>
<event>
 6    0  0.4945982E+002  0.1733781E+03  0.7546771E-02  0.1174370E+00
         21   -1    0    0  503  502  0.00000000000E+00  0.00000000000E+00  0.17244466028E+03  0.17244466028E+03  0.00000000000E+00 0.  1.
          1   -1    0    0  505    0 -0.00000000000E+00 -0.00000000000E+00 -0.12798484986E+04  0.12798484986E+04  0.00000000000E+00 0. -1.
         21    1    1    2  503  501 -0.17089747379E+02 -0.57490345733E+02 -0.33045820547E+02  0.68477920336E+02  0.00000000000E+00 0.  1.
         21    1    1    2  504  502 -0.30047068609E+02 -0.14711162060E+02  0.52359750333E+02  0.62135240211E+02  0.00000000000E+00 0.  1.
         21    1    1    2  505  504  0.34286176614E+02 -0.10586927081E+03  0.56683387736E+02  0.12488735265E+03  0.00000000000E+00 0.  1.
          1    1    1    2  501    0  0.12850639374E+02  0.17807077860E+03 -0.11834011559E+04  0.11967926457E+04  0.00000000000E+00 0. -1.
<scales pt_clust_3="63.57472" pt_clust_4="33.45511" pt_clust_5="14000.00000" pt_clust_6="173.37813"></scales>
<clustering>
<clus scale="   33.455">  1  4  2 -1</clus>
<clus scale="   63.575">  1  3  2 -1</clus>
<clus scale="  173.378">  2  6  1 -1</clus>
<clus scale="   33.455">  1  3  2 -1</clus>
</clustering>
</event>
<event>
 6    0  0.4945982E+002  0.1488229E+03  0.7546771E-02  0.1201927E+00
          2   -1    0    0  504    0 -0.00000000000E+00  0.00000000000E+00  0.78006503820E+03  0.78006503820E+03  0.00000000000E+00 0.  1.
         21   -1    0    0  503  502  0.00000000000E+00 -0.00000000000E+00 -0.32372196965E+04  0.32372196965E+04  0.00000000000E+00 0.  1.
         21    1    1    2  503  505 -0.43785124865E+01  0.51384839396E+02 -0.50850648606E+03  0.51111487892E+03  0.00000000000E+00 0.  1.
         21    1    1    2  504  502 -0.81920399743E+02 -0.13692312335E+03 -0.16731854374E+04  0.16807761307E+04  0.00000000000E+00 0.  1.
         21    1    1    2  505  501  0.50575243921E+02  0.65791668192E+02 -0.10482498205E+04  0.10515294029E+04  0.00000000000E+00 0.  1.
          2    1    1    2  501    0  0.35723668308E+02  0.19746615758E+02  0.77278708570E+03  0.77386432218E+03  0.00000000000E+00 0.  1.
<scales pt_clust_3="39.43577" pt_clust_4="140.16343" pt_clust_5="39.43577" pt_clust_6="40.81800"></scales>
<clustering>
<clus scale="   39.436">  3  5 -1 -1</clus>
<clus scale="   40.818">  1  6  2 -1</clus>
<clus scale="  140.163">  1  4  2 -1</clus>
<clus scale="  148.823">  2  3  1 -1</clus>
</clustering>
</event>
<event>
 6    0  0.4945982E+002  0.7916798E+02  0.7546771E-02  0.1331429E+00
         -2   -1    0    0    0  501 -0.00000000000E+00  0.00000000000E+00  0.65277725961E+02  0.65277725961E+02  0.00000000000E+00 0.  1.
         21   -1    0    0  504  502  0.00000000000E+00 -0.00000000000E+00 -0.21818381386E+04  0.21818381386E+04  0.00000000000E+00 0. -1.
         21    1    1    2  503  502 -0.62255524506E+02  0.68823148614E+02 -0.15413463984E+04  0.15441376544E+04  0.00000000000E+00 0. -1.
         21    1    1    2  504  501  0.18214877880E+02 -0.56882242570E+02 -0.37084272221E+03  0.37562174579E+03  0.00000000000E+00 0. -1.
         21    1    1    2  505  503  0.72018559914E+02  0.22992147533E+02 -0.25134893962E+03  0.26247209617E+03  0.00000000000E+00 0.  1.
         -2    1    1    2    0  505 -0.27977913288E+02 -0.34933053577E+02  0.46977647542E+02  0.64884368169E+02  0.00000000000E+00 0.  1.
<scales pt_clust_3="79.16798" pt_clust_4="14000.00000" pt_clust_5="55.41478" pt_clust_6="44.75580"></scales>
<clustering>
<clus scale="   44.756">  1  6  2 -1</clus>
<clus scale="   55.415">  1  5  2 -1</clus>
<clus scale="   79.168">  2  3  1 -1</clus>
<clus scale="   79.168">  2  3  1 -1</clus>
</clustering>
</event>
<event>
 6    0  0.4945982E+002  0.1350775E+03  0.7546771E-02  0.1220110E+00
         21   -1    0    0  501  502  0.00000000000E+00  0.00000000000E+00  0.59869763663E+03  0.59869763663E+03  0.00000000000E+00 0. -1.
          2   -1    0    0  505    0 -0.00000000000E+00 -0.00000000000E+00 -0.31096736194E+04  0.31096736194E+04  0.00000000000E+00 0. -1.
         21    1    1    2  503  504 -0.58713312748E+02 -0.10139109535E+03 -0.90402842819E+01  0.11751227191E+03  0.00000000000E+00 0. -1.
         21    1    1    2  504  502 -0.42747834643E+02  0.82328696357E+01  0.54108056719E+03  0.54282901332E+03  0.00000000000E+00 0. -1.
         21    1    1    2  505  503  0.41029242516E+02  0.23465961311E+02 -0.32199551871E+03  0.32544610023E+03  0.00000000000E+00 0. -1.
          2    1    1    2  501    0  0.60431904875E+02  0.69692264405E+02 -0.27210207470E+04  0.27225838706E+04  0.00000000000E+00 0. -1.
<scales pt_clust_3="14000.00000" pt_clust_4="43.53341" pt_clust_5="46.26979" pt_clust_6="135.07754"></scales>
<clustering>
<clus scale="   43.533">  1  4  2 -1</clus>
<clus scale="   46.270">  2  5  1 -1</clus>
<clus scale="  135.078">  2  6  1 -1</clus>
<clus scale="   43.533">  1  3  2 -1</clus>
</clustering>
</event>
<event>
 6    0  0.4945982E+002  0.2227278E+03  0.7546771E-02  0.1131866E+00
         21   -1    0    0  501  502  0.00000000000E+00  0.00000000000E+00  0.23067348841E+03  0.23067348841E+03  0.00000000000E+00 0. -1.
          2   -1    0    0  505    0 -0.00000000000E+00 -0.00000000000E+00 -0.10094741130E+04  0.10094741130E+04  0.00000000000E+00 0.  1.
         21    1    1    2  503  502 -0.14150045077E+03  0.74291143575E+02  0.25588810938E+02  0.16185283077E+03  0.00000000000E+00 0.  1.
         21    1    1    2  504  503 -0.45311061552E+02 -0.28613197644E+02  0.99204156018E+01  0.54499743340E+02  0.00000000000E+00 0. -1.
         21    1    1    2  505  504  0.63550398466E+02 -0.24105902215E+03 -0.92473876827E+02  0.26589381941E+03  0.00000000000E+00 0. -1.
          2    1    1    2  501    0  0.12326111386E+03  0.19538107622E+03 -0.72183597426E+03  0.75790120786E+03  0.00000000000E+00 0.  1.
<scales pt_clust_3="213.41868" pt_clust_4="53.58308" pt_clust_5="14000.00000" pt_clust_6="222.72775"></scales>
<clustering>
<clus scale="   53.583">  3  4 -1 -1</clus>
<clus scale="  213.419">  1  3  2 -1</clus>
<clus scale="  222.728">  2  6  1 -1</clus>
<clus scale="  213.419">  1  3  2 -1</clus>
</clustering>
</event>
<event>
 6    0  0.4945982E+002  0.8559207E+02  0.7546771E-02  0.1313891E+00
          1   -1    0    0  504    0 -0.00000000000E+00  0.00000000000E+00  0.25019169061E+04  0.25019169061E+04  0.00000000000E+00 0.  1.
         21   -1    0    0  505  502  0.00000000000E+00 -0.00000000000E+00 -0.10670647386E+03  0.10670647386E+03  0.00000000000E+00 0. -1.
         21    1    1    2  503  501 -0.75843887231E+02 -0.20712856690E+02  0.15111042278E+03  0.17033988827E+03  0.00000000000E+00 0.  1.
         21    1    1    2  504  502 -0.51335107937E+01 -0.30439548182E+02  0.53863316844E+02  0.62082009697E+02  0.00000000000E+00 0. -1.
         21    1    1    2  505  503  0.71707299148E+02  0.88223820799E+02 -0.58007021337E+02  0.12763304365E+03  0.00000000000E+00 0. -1.
          1    1    1    2  501    0  0.92700988768E+01 -0.37071415927E+02  0.22482437140E+04  0.22485684384E+04  0.00000000000E+00 0.  1.
<scales pt_clust_3="14000.00000" pt_clust_4="30.86939" pt_clust_5="85.59207" pt_clust_6="38.25765"></scales>
<clustering>
<clus scale="   30.869">  2  4  1 -1</clus>
<clus scale="   38.258">  1  6  2 -1</clus>
<clus scale="   85.592">  2  5  1 -1</clus>
<clus scale="   30.869">  2  3  1 -1</clus>
</clustering>
</event>
<event>
 6    0  0.4945982E+002  0.9604268E+02  0.7546771E-02  0.1288845E+00
          2   -1    0    0  504    0 -0.00000000000E+00  0.00000000000E+00  0.55528556703E+03  0.55528556703E+03  0.00000000000E+00 0.  1.
         21   -1    0    0  503  502  0.00000000000E+00 -0.00000000000E+00 -0.79448475510E+03  0.79448475510E+03  0.00000000000E+00 0.  1.
         21    1    1    2  503  501 -0.51743627507E+02 -0.10591271983E+02  0.68343742483E+02  0.86373868539E+02  0.00000000000E+00 0. -1.
         21    1    1    2  504  505 -0.66683484153E+02  0.20809755948E+02  0.28626113439E+03  0.29466111054E+03  0.00000000000E+00 0. -1.
         21    1    1    2  505  502  0.91643439712E+02 -0.29618507517E+02 -0.77681380994E+03  0.78276143961E+03  0.00000000000E+00 0.  1.
          2    1    1    2  501    0  0.26783671949E+02  0.19400023552E+02  0.18300974500E+03  0.18597390344E+03  0.00000000000E+00 0.  1.
<scales pt_clust_3="46.61732" pt_clust_4="96.04268" pt_clust_5="14000.00000" pt_clust_6="33.07153"></scales>
<clustering>
<clus scale="   33.072">  1  6  2 -1</clus>
<clus scale="   46.617">  1  3  2 -1</clus>
<clus scale="   96.043">  1  4  2 -1</clus>
<clus scale="   96.043">  2  3  1 -1</clus>
</clustering>
</event>
<event>
 6    0  0.4945982E+002  0.2160013E+03  0.7546771E-02  0.1136900E+00
         -2   -1    0    0    0  501 -0.00000000000E+00  0.00000000000E+00  0.91113226053E+03  0.91113226053E+03  0.00000000000E+00 0. -1.
         21   -1    0    0  504  502  0.00000000000E+00 -0.00000000000E+00 -0.18121873568E+04  0.18121873568E+04  0.00000000000E+00 0. -1.
         21    1    1    2  503  505 -0.85470614994E+02  0.89597872824E+02  0.14376380579E+03  0.18973939153E+03  0.00000000000E+00 0. -1.
         21    1    1    2  504  501 -0.53344000537E+02  0.68606155366E+02  0.37350502201E+03  0.38348192710E+03  0.00000000000E+00 0. -1.
         21    1    1    2  505  502  0.11735384152E+03 -0.18590097076E+03 -0.17765811442E+04  0.17901317430E+04  0.00000000000E+00 0. -1.
         -2    1    1    2    0  503  0.21460774013E+02  0.27696942568E+02  0.35825722018E+03  0.35996655575E+03  0.00000000000E+00 0. -1.
<scales pt_clust_3="216.00135" pt_clust_4="95.73607" pt_clust_5="14000.00000" pt_clust_6="35.03834"></scales>
<clustering>
<clus scale="   35.038">  1  6  2 -1</clus>
<clus scale="   95.736">  1  4  2 -1</clus>
<clus scale="  216.001">  1  3  2 -1</clus>
<clus scale="  216.001">  2  3  1 -1</clus>
</clustering>
</event>
<event>
 6    0  0.4945982E+002  0.8225461E+02  0.7546771E-02  0.1322772E+00
          2   -1    0    0  505    0 -0.00000000000E+00  0.00000000000E+00  0.20433837581E+04  0.20433837581E+04  0.00000000000E+00 0. -1.
         21   -1    0    0  503  502  0.00000000000E+00 -0.00000000000E+00 -0.12130029431E+02  0.12130029431E+02  0.00000000000E+00 0. -1.
         21    1    1    2  503  501  0.20457804731E+02 -0.35420110137E+02  0.16746742257E+03  0.17239038140E+03  0.00000000000E+00 0. -1.
         21    1    1    2  504  502 -0.30887906037E+02 -0.55712330041E+02  0.35006796895E+03  0.35581667940E+03  0.00000000000E+00 0. -1.
         21    1    1    2  505  504  0.76562288680E+02  0.20226143783E+02  0.31982974405E+03  0.32948739903E+03  0.00000000000E+00 0. -1.
          2    1    1    2  501    0 -0.66132187375E+02  0.70906296394E+02  0.11938885931E+04  0.11978193277E+04  0.00000000000E+00 0. -1.
<scales pt_clust_3="40.90362" pt_clust_4="70.73462" pt_clust_5="82.25461" pt_clust_6="14000.00000"></scales>
<clustering>
<clus scale="   40.904">  2  3  1 -1</clus>
<clus scale="   70.735">  2  4  1 -1</clus>
<clus scale="   82.255">  2  5  1 -1</clus>
<clus scale="   40.904">  2  3  1 -1</clus>
</clustering>
</event>
<event>
 6    0  0.4945982E+002  0.1203150E+03  0.7546771E-02  0.1242578E+00
          2   -1    0    0  504    0 -0.00000000000E+00  0.00000000000E+00  0.19852166766E+03  0.19852166766E+03  0.00000000000E+00 0.  1.
         21   -1    0    0  505  502  0.00000000000E+00 -0.00000000000E+00 -0.21666248950E+03  0.21666248950E+03  0.00000000000E+00 0. -1.
         21    1    1    2  503  502  0.51072272465E+02  0.45948976204E+02 -0.88039210121E+02  0.11167178671E+03  0.00000000000E+00 0. -1.
         21    1    1    2  504  503  0.87434105575E+01  0.60334461860E+02 -0.74339062314E+02  0.96140473797E+02  0.00000000000E+00 0. -1.
         21    1    1    2  505  501 -0.58210857123E+02 -0.61502765322E+02  0.39479848896E+02  0.93433144537E+02  0.00000000000E+00 0.  1.
          2    1    1    2  501    0 -0.16048258993E+01 -0.44780672742E+02  0.10475760170E+03  0.11393875211E+03  0.00000000000E+00 0.  1.
<scales pt_clust_3="41.54676" pt_clust_4="41.54676" pt_clust_5="111.93990" pt_clust_6="44.80942"></scales>
<clustering>
<clus scale="   41.547">  3  4 -1 -1</clus>
<clus scale="   44.809">  1  6  2 -1</clus>
<clus scale="  111.940">  1  5  2 -1</clus>
<clus scale="  120.315">  2  3  1 -1</clus>
</clustering>
</event>
<event>
 6    0  0.4945982E+002  0.1322954E+03  0.7546771E-02  0.1224089E+00
         21   -1    0    0  505  502  0.00000000000E+00  0.00000000000E+00  0.14346205807E+03  0.14346205807E+03  0.00000000000E+00 0.  1.
          2   -1    0    0  504    0 -0.00000000000E+00 -0.00000000000E+00 -0.14706958503E+04  0.14706958503E+04  0.00000000000E+00 0.  1.
         21    1    1    2  503  502 -0.10688780836E+02  0.13766980407E+03  0.82998489598E+02  0.16110857911E+03  0.00000000000E+00 0.  1.
         21    1    1    2  504  503  0.89298173992E+02 -0.51072841506E+01 -0.19462766691E+03  0.21419658483E+03  0.00000000000E+00 0. -1.
         21    1    1    2  505  501  0.78047554582E+01 -0.95607658158E+02 -0.23600542308E+03  0.25475536938E+03  0.00000000000E+00 0. -1.
          2    1    1    2  501    0 -0.86414148614E+02 -0.36954861761E+02 -0.97959919186E+03  0.98409737505E+03  0.00000000000E+00 0.  1.
<scales pt_clust_3="132.29537" pt_clust_4="89.44411" pt_clust_5="14000.00000" pt_clust_6="44.37330"></scales>
<clustering>
<clus scale="   89.444">  2  4  1 -1</clus>
<clus scale="   44.373">  2  6  1 -1</clus>
<clus scale="  132.295">  1  3  2 -1</clus>
<clus scale="  132.295">  1  3  2 -1</clus>
</clustering>
</event>
<event>
 6    0  0.4945982E+002  0.8990784E+02  0.7546771E-02  0.1303075E+00
         21   -1    0    0  503  502  0.00000000000E+00  0.00000000000E+00  0.19642321547E+02  0.19642321547E+02  0.00000000000E+00 0.  1.
          2   -1    0    0  504    0 -0.00000000000E+00 -0.00000000000E+00 -0.15516897552E+04  0.15516897552E+04  0.00000000000E+00 0.  1.
         21    1    1    2  503  505 -0.97717821581E+01 -0.61690393537E+02 -0.34947462329E+03  0.35501225994E+03  0.00000000000E+00 0.  1.
         21    1    1    2  504  502 -0.12488301141E+02  0.39348787562E+02 -0.34456977401E+02  0.53773302294E+02  0.00000000000E+00 0.  1.
         21    1    1    2  505  501  0.76144545266E+02 -0.50939900646E+02 -0.56522140355E+03  0.57259767750E+03  0.00000000000E+00 0.  1.
          2    1    1    2  501    0 -0.53884461967E+02  0.73281506621E+02 -0.58289442937E+03  0.58994883697E+03  0.00000000000E+00 0.  1.
<scales pt_clust_3="52.47463" pt_clust_4="41.28298" pt_clust_5="14000.00000" pt_clust_6="89.90784"></scales>
<clustering>
<clus scale="   41.283">  1  4  2 -1</clus>
<clus scale="   52.475">  1  3  2 -1</clus>
<clus scale="   89.908">  2  6  1 -1</clus>
<clus scale="   41.283">  1  3  2 -1</clus>
</clustering>
</event>
<event>
 6    0  0.4945982E+002  0.4602498E+03  0.7546771E-02  0.1024709E+00
         -1   -1    0    0    0  501 -0.00000000000E+00  0.00000000000E+00  0.35704488336E+03  0.35704488336E+03  0.00000000000E+00 0.  1.
         21   -1    0    0  503  502  0.00000000000E+00 -0.00000000000E+00 -0.12313265540E+04  0.12313265540E+04  0.00000000000E+00 0. -1.
         21    1    1    2  503  501  0.40099288926E+03 -0.17666010999E+03 -0.28323615871E+03  0.52175359443E+03  0.00000000000E+00 0. -1.
         21    1    1    2  504  502 -0.34523758508E+03  0.14058204233E+03 -0.65763587328E+03  0.75593468144E+03  0.00000000000E+00 0. -1.
         21    1    1    2  505  504 -0.89411117694E+02  0.19395929164E+02 -0.10254518887E+03  0.13742658329E+03  0.00000000000E+00 0. -1.
         -1    1    1    2    0  505  0.33655813516E+02  0.16682138504E+02  0.16913555023E+03  0.17325657817E+03  0.00000000000E+00 0.  1.
<scales pt_clust_3="454.00796" pt_clust_4="37.42509" pt_clust_5="37.42509" pt_clust_6="37.56338"></scales>
<clustering>
<clus scale="   37.425">  4  5 -1 -1</clus>
<clus scale="   37.563">  1  6  2 -1</clus>
<clus scale="  454.008">  1  3  2 -1</clus>
<clus scale="  460.250">  2  3  1 -1</clus>
</clustering>
</event>
<event>
 6    0  0.4945982E+002  0.1114045E+03  0.7546771E-02  0.1257991E+00
          3   -1    0    0  502    0 -0.00000000000E+00  0.00000000000E+00  0.72088010977E+03  0.72088010977E+03  0.00000000000E+00 0. -1.
         21   -1    0    0  504  502  0.00000000000E+00 -0.00000000000E+00 -0.13325462280E+03  0.13325462280E+03  0.00000000000E+00 0.  1.
         21    1    1    2  503  501 -0.42756637493E+02 -0.16111470652E+02  0.52186149730E+02  0.69362120498E+02  0.00000000000E+00 0.  1.
         21    1    1    2  504  505 -0.26002496950E+02  0.67738451146E+02 -0.10023179710E+03  0.12373779035E+03  0.00000000000E+00 0.  1.
         21    1    1    2  505  503 -0.30323509395E+02  0.20016129045E+02  0.44980729450E+02  0.57822371672E+02  0.00000000000E+00 0.  1.
          3    1    1    2  501    0  0.99082643839E+02 -0.71643109538E+02  0.59069040489E+03  0.60321245004E+03  0.00000000000E+00 0. -1.
<scales pt_clust_3="33.10919" pt_clust_4="72.55775" pt_clust_5="33.10919" pt_clust_6="105.03535"></scales>
<clustering>
<clus scale="   33.109">  3  5 -1 -1</clus>
<clus scale="   72.558">  2  4  1 -1</clus>
<clus scale="  105.035">  1  6  2 -1</clus>
<clus scale="   72.558">  2  3  1 -1</clus>
</clustering>
</event>
<event>
 6    0  0.4945982E+002  0.9174030E+02  0.7546771E-02  0.1298691E+00
         21   -1    0    0  501  502  0.00000000000E+00  0.00000000000E+00  0.15705851186E+03  0.15705851186E+03  0.00000000000E+00 0. -1.
         -1   -1    0    0    0  501 -0.00000000000E+00 -0.00000000000E+00 -0.43719400263E+03  0.43719400263E+03  0.00000000000E+00 0. -1.
         21    1    1    2  503  505 -0.25926090302E+02  0.90549460102E+02 -0.30498703350E+02  0.99002716069E+02  0.00000000000E+00 0. -1.
         21    1    1    2  504  503 -0.86147749651E+02 -0.10327371224E+03 -0.15452072573E+02  0.13537230498E+03  0.00000000000E+00 0. -1.
         21    1    1    2  505  502  0.36909732330E+02 -0.32404455546E+02  0.45390631051E+02  0.66878146409E+02  0.00000000000E+00 0. -1.
         -1    1    1    2    0  504  0.75164107623E+02  0.45128707679E+02 -0.27957534590E+03  0.29299934704E+03  0.00000000000E+00 0. -1.
<scales pt_clust_3="80.67251" pt_clust_4="91.74030" pt_clust_5="49.11596" pt_clust_6="14000.00000"></scales>
<clustering>
<clus scale="   49.116">  1  5  2 -1</clus>
<clus scale="   80.673">  1  3  2 -1</clus>
<clus scale="   91.740">  1  4  2 -1</clus>
<clus scale="   49.116">  1  3  2 -1</clus>
</clustering>
</event>
<event>
 6    0  0.4945982E+002  0.1019947E+03  0.7546771E-02  0.1276156E+00
         21   -1    0    0  504  502  0.00000000000E+00  0.00000000000E+00  0.17489567654E+02  0.17489567654E+02  0.00000000000E+00 0.  1.
          2   -1    0    0  503    0 -0.00000000000E+00 -0.00000000000E+00 -0.21887668549E+04  0.21887668549E+04  0.00000000000E+00 0. -1.
         21    1    1    2  503  505 -0.54635934745E+02 -0.47652512559E+02 -0.25312161988E+03  0.26329907286E+03  0.00000000000E+00 0.  1.
         21    1    1    2  504  501  0.45214029076E+02  0.57544208805E+02 -0.25306961244E+03  0.26343855666E+03  0.00000000000E+00 0. -1.
         21    1    1    2  505  502 -0.77480727079E+02 -0.10041027558E+02 -0.25364855976E+03  0.26540850998E+03  0.00000000000E+00 0.  1.
          2    1    1    2  501    0  0.86902632748E+02  0.14933131155E+00 -0.14114374952E+04  0.14141102831E+04  0.00000000000E+00 0. -1.
<scales pt_clust_3="42.34449" pt_clust_4="73.18227" pt_clust_5="42.34449" pt_clust_6="92.03582"></scales>
<clustering>
<clus scale="   42.344">  3  5 -1 -1</clus>
<clus scale="   73.182">  1  4  2 -1</clus>
<clus scale="   92.036">  2  6  1 -1</clus>
<clus scale="   73.182">  1  3  2 -1</clus>
</clustering>
</event>
<event>
 6    0  0.4945982E+002  0.1504917E+03  0.7546771E-02  0.1199870E+00
         21   -1    0    0  504  502  0.00000000000E+00  0.00000000000E+00  0.39861041555E+02  0.39861041555E+02  0.00000000000E+00 0. -1.
          2   -1    0    0  502    0 -0.00000000000E+00 -0.00000000000E+00 -0.49243920708E+04  0.49243920708E+04  0.00000000000E+00 0. -1.
         21    1    1    2  503  501  0.74916830269E+02 -0.24465522921E+02 -0.52167308031E+03  0.52759254732E+03  0.00000000000E+00 0. -1.
         21    1    1    2  504  505 -0.46831399034E+02 -0.46830899391E+02 -0.13718211261E+01  0.66243452253E+02  0.00000000000E+00 0. -1.
         21    1    1    2  505  503  0.56961137285E+02 -0.50726960270E+02 -0.47492354893E+03  0.48100953524E+03  0.00000000000E+00 0. -1.
          2    1    1    2  501    0 -0.85046568520E+02  0.12202338258E+03 -0.38865625789E+04  0.38894075776E+04  0.00000000000E+00 0. -1.
<scales pt_clust_3="31.53640" pt_clust_4="66.22925" pt_clust_5="31.53640" pt_clust_6="147.03787"></scales>
<clustering>
<clus scale="   31.536">  3  5 -1 -1</clus>
<clus scale="   66.229">  1  4  2 -1</clus>
<clus scale="  147.038">  2  6  1 -1</clus>
<clus scale="   66.229">  1  3  2 -1</clus>
</clustering>
</event>
<event>
 6    0  0.4945982E+002  0.1242492E+03  0.7546771E-02  0.1236247E+00
          2   -1    0    0  502    0 -0.00000000000E+00  0.00000000000E+00  0.12002259660E+04  0.12002259660E+04  0.00000000000E+00 0. -1.
         21   -1    0    0  503  502  0.00000000000E+00 -0.00000000000E+00 -0.18653344672E+03  0.18653344672E+03  0.00000000000E+00 0.  1.
         21    1    1    2  503  505 -0.18376492845E+02  0.44362765590E+02 -0.15472032315E+03  0.16200039770E+03  0.00000000000E+00 0.  1.
         21    1    1    2  504  501  0.63392075968E+02 -0.82003002691E+01  0.59258719153E+02  0.87163042717E+02  0.00000000000E+00 0.  1.
         21    1    1    2  505  504  0.62073719326E+02  0.18628368927E+02  0.87514035858E+02  0.10889843540E+03  0.00000000000E+00 0. -1.
          2    1    1    2  501    0 -0.10708930245E+03 -0.54790834247E+02  0.10216400875E+04  0.10286975370E+04  0.00000000000E+00 0. -1.
<scales pt_clust_3="48.01823" pt_clust_4="32.14176" pt_clust_5="32.14176" pt_clust_6="119.96002"></scales>
<clustering>
<clus scale="   32.142">  4  5 -1 -1</clus>
<clus scale="   48.018">  2  3  1 -1</clus>
<clus scale="  119.960">  1  6  2 -1</clus>
<clus scale="   48.018">  2  3  1 -1</clus>
</clustering>
</event>
<event>
 6    0  0.4945982E+002  0.1865408E+03  0.7546771E-02  0.1161619E+00
          2   -1    0    0  504    0 -0.00000000000E+00  0.00000000000E+00  0.18412735648E+04  0.18412735648E+04  0.00000000000E+00 0.  1.
         21   -1    0    0  501  502  0.00000000000E+00 -0.00000000000E+00 -0.15209879809E+03  0.15209879809E+03  0.00000000000E+00 0. -1.
         21    1    1    2  503  502  0.43453159039E+02 -0.26070225797E+02 -0.12432654107E+03  0.13425692727E+03  0.00000000000E+00 0. -1.
         21    1    1    2  504  505  0.60080549035E+02 -0.64536341713E+02  0.13281349789E+03  0.15941780639E+03  0.00000000000E+00 0. -1.
         21    1    1    2  505  503  0.43508266916E+02 -0.29510334887E+02  0.19636482018E+03  0.20328052480E+03  0.00000000000E+00 0. -1.
          2    1    1    2  501    0 -0.14704197499E+03  0.12011690240E+03  0.14843229897E+04  0.14964171044E+04  0.00000000000E+00 0.  1.
<scales pt_clust_3="50.67380" pt_clust_4="46.43442" pt_clust_5="46.43442" pt_clust_6="176.58195"></scales>
<clustering>
<clus scale="   46.434">  4  5 -1 -1</clus>
<clus scale="   50.674">  2  3  1 -1</clus>
<clus scale="  176.582">  1  6  2 -1</clus>
<clus scale="   50.674">  2  3  1 -1</clus>
</clustering>
</event>
<event>
 6    0  0.4945982E+002  0.1077729E+03  0.7546771E-02  0.1264751E+00
         21   -1    0    0  504  502  0.00000000000E+00  0.00000000000E+00  0.41467417508E+03  0.41467417508E+03  0.00000000000E+00 0.  1.
          4   -1    0    0  505    0 -0.00000000000E+00 -0.00000000000E+00 -0.21752395555E+03  0.21752395555E+03  0.00000000000E+00 0.  1.
         21    1    1    2  503  501 -0.27482800597E+02 -0.30191726708E+02  0.36175688212E+02  0.54548374017E+02  0.00000000000E+00 0.  1.
         21    1    1    2  504  503 -0.13999820040E+02  0.28489829369E+02  0.84231746976E+02  0.90014735112E+02  0.00000000000E+00 0.  1.
         21    1    1    2  505  502  0.55258647156E+02 -0.10496932281E+03  0.25397860831E+03  0.28031626834E+03  0.00000000000E+00 0.  1.
          4    1    1    2  501    0 -0.13776026520E+02  0.10667122015E+03 -0.17723582397E+03  0.20731875317E+03  0.00000000000E+00 0.  1.
<scales pt_clust_3="39.42709" pt_clust_4="31.74374" pt_clust_5="107.77288" pt_clust_6="14000.00000"></scales>
<clustering>
<clus scale="   31.744">  1  4  2 -1</clus>
<clus scale="   39.427">  1  3  2 -1</clus>
<clus scale="  107.773">  1  5  2 -1</clus>
<clus scale="   31.744">  1  3  2 -1</clus>
</clustering>
</event>
<event>
 6    0  0.4945982E+002  0.1183696E+03  0.7546771E-02  0.1245811E+00
          1   -1    0    0  503    0 -0.00000000000E+00  0.00000000000E+00  0.94657967797E+03  0.94657967797E+03  0.00000000000E+00 0.  1.
         21   -1    0    0  505  502  0.00000000000E+00 -0.00000000000E+00 -0.73163761394E+03  0.73163761394E+03  0.00000000000E+00 0.  1.
         21    1    1    2  503  502  0.20402207942E+02 -0.10207341242E+03 -0.67781494678E+03  0.68576113458E+03  0.00000000000E+00 0.  1.
         21    1    1    2  504  501 -0.32929641872E+02  0.76426408655E+02  0.29514977187E+02  0.88297741376E+02  0.00000000000E+00 0.  1.
         21    1    1    2  505  504  0.22483878436E+02  0.54642790284E+02  0.23077083281E+02  0.63434305326E+02  0.00000000000E+00 0. -1.
          1    1    1    2  501    0 -0.99564445056E+01 -0.28995786517E+02  0.84016495034E+03  0.84072411063E+03  0.00000000000E+00 0.  1.
<scales pt_clust_3="105.08534" pt_clust_4="43.98058" pt_clust_5="43.98058" pt_clust_6="30.65757"></scales>
<clustering>
<clus scale="   30.658">  1  6  2 -1</clus>
<clus scale="   43.981">  4  5 -1 -1</clus>
<clus scale="  105.085">  2  3  1 -1</clus>
<clus scale="  105.085">  2  3  1 -1</clus>
</clustering>
</event>
<event>
 6    0  0.4945982E+002  0.1043495E+03  0.7546771E-02  0.1271407E+00
          2   -1    0    0  505    0 -0.00000000000E+00  0.00000000000E+00  0.16606075360E+04  0.16606075360E+04  0.00000000000E+00 0. -1.
         21   -1    0    0  501  502  0.00000000000E+00 -0.00000000000E+00 -0.17691500115E+02  0.17691500115E+02  0.00000000000E+00 0. -1.
         21    1    1    2  503  502 -0.22585968736E+01  0.33810034395E+02  0.39155050398E+02  0.51781634363E+02  0.00000000000E+00 0. -1.
         21    1    1    2  504  503  0.20583595422E+02 -0.35901377758E+02  0.99900985448E+02  0.10813325214E+03  0.00000000000E+00 0. -1.
         21    1    1    2  505  504  0.17017711367E+02 -0.99969938566E+02  0.70515819593E+03  0.71241257176E+03  0.00000000000E+00 0. -1.
          2    1    1    2  501    0 -0.35342709915E+02  0.10206128193E+03  0.79870180413E+03  0.80597157787E+03  0.00000000000E+00 0. -1.
<scales pt_clust_3="33.88539" pt_clust_4="30.83835" pt_clust_5="104.34953" pt_clust_6="14000.00000"></scales>
<clustering>
<clus scale="   33.885">  2  3  1 -1</clus>
<clus scale="   30.838">  2  4  1 -1</clus>
<clus scale="  104.350">  1  5  2 -1</clus>
<clus scale="   33.885">  2  3  1 -1</clus>
</clustering>
</event>
<event>
 6    0  0.4945982E+002  0.1328280E+03  0.7546771E-02  0.1223319E+00
          1   -1    0    0  505    0 -0.00000000000E+00  0.00000000000E+00  0.10770646469E+04  0.10770646469E+04  0.00000000000E+00 0.  1.
         21   -1    0    0  504  502  0.00000000000E+00 -0.00000000000E+00 -0.15108166105E+03  0.15108166105E+03  0.00000000000E+00 0. -1.
         21    1    1    2  503  502 -0.73060051151E+02 -0.40874968180E+02 -0.68173748226E+02  0.10796385527E+03  0.00000000000E+00 0. -1.
         21    1    1    2  504  501  0.69494642715E+02  0.28215578994E+02  0.25286967967E+03  0.26375878974E+03  0.00000000000E+00 0. -1.
         21    1    1    2  505  503 -0.51763996373E+02  0.17520190857E+02 -0.43392430904E+02  0.69780881823E+02  0.00000000000E+00 0. -1.
          1    1    1    2  501    0  0.55329404808E+02 -0.48608016717E+01  0.78467948532E+03  0.78664278114E+03  0.00000000000E+00 0.  1.
<scales pt_clust_3="44.39805" pt_clust_4="120.92798" pt_clust_5="44.39805" pt_clust_6="55.54251"></scales>
<clustering>
<clus scale="   44.398">  3  5 -1 -1</clus>
<clus scale="   55.543">  1  6  2 -1</clus>
<clus scale="  120.928">  1  4  2 -1</clus>
<clus scale="  132.828">  2  3  1 -1</clus>
</clustering>
</event>
<event>
 6    0  0.4945982E+002  0.9505168E+02  0.7546771E-02  0.1291060E+00
          2   -1    0    0  503    0 -0.00000000000E+00  0.00000000000E+00  0.36288259423E+04  0.36288259423E+04  0.00000000000E+00 0. -1.
         21   -1    0    0  505  502  0.00000000000E+00 -0.00000000000E+00 -0.42749917091E+03  0.42749917091E+03  0.00000000000E+00 0.  1.
         21    1    1    2  503  504  0.31623822661E+02  0.22177564737E+02 -0.61093172779E+02  0.72279224522E+02  0.00000000000E+00 0.  1.
         21    1    1    2  504  502  0.29837840654E+02 -0.22874378549E+02 -0.98034349067E+02  0.10499651197E+03  0.00000000000E+00 0.  1.
         21    1    1    2  505  501 -0.23385129656E+02 -0.86461503802E+02 -0.25091788649E+03  0.26642492693E+03  0.00000000000E+00 0.  1.
          2    1    1    2  501    0 -0.38076533659E+02  0.87158317614E+02  0.36113721797E+04  0.36126244498E+04  0.00000000000E+00 0. -1.
<scales pt_clust_3="41.58806" pt_clust_4="37.59699" pt_clust_5="95.05168" pt_clust_6="14000.00000"></scales>
<clustering>
<clus scale="   37.597">  2  4  1 -1</clus>
<clus scale="   41.588">  2  3  1 -1</clus>
<clus scale="   95.052">  2  5  1 -1</clus>
<clus scale="   37.597">  2  3  1 -1</clus>
</clustering>
</event>
<event>
 6    0  0.4945982E+002  0.4066812E+03  0.7546771E-02  0.1041490E+00
         21   -1    0    0  503  502  0.00000000000E+00  0.00000000000E+00  0.21161881524E+03  0.21161881524E+03  0.00000000000E+00 0. -1.
          2   -1    0    0  505    0 -0.00000000000E+00 -0.00000000000E+00 -0.18054592611E+04  0.18054592611E+04  0.00000000000E+00 0. -1.
         21    1    1    2  503  504  0.41112412762E+02  0.21892139561E+03 -0.71030641443E+02  0.23379940112E+03  0.00000000000E+00 0. -1.
         21    1    1    2  504  501  0.57625512991E+01  0.20296778857E+03 -0.47524545182E+02  0.20853707725E+03  0.00000000000E+00 0. -1.
         21    1    1    2  505  502  0.31877249992E+02 -0.27762042868E+02  0.33992584286E+01  0.42408077640E+02  0.00000000000E+00 0. -1.
          2    1    1    2  501    0 -0.78752214052E+02 -0.39412714131E+03 -0.14786845177E+04  0.15323335203E+04  0.00000000000E+00 0. -1.
<scales pt_clust_3="35.95884" pt_clust_4="35.95884" pt_clust_5="42.27162" pt_clust_6="404.93350"></scales>
<clustering>
<clus scale="   35.959">  3  4 -1 -1</clus>
<clus scale="   42.272">  1  5  2 -1</clus>
<clus scale="  404.933">  2  6  1 -1</clus>
<clus scale="   42.272">  1  3  2 -1</clus>
</clustering>
</event>
<event>
 6    0  0.4945982E+002  0.6297693E+02  0.7546771E-02  0.1385747E+00
          1   -1    0    0  505    0 -0.00000000000E+00  0.00000000000E+00  0.59386206027E+03  0.59386206027E+03  0.00000000000E+00 0.  1.
         21   -1    0    0  503  502  0.00000000000E+00 -0.00000000000E+00 -0.47284381142E+03  0.47284381142E+03  0.00000000000E+00 0.  1.
         21    1    1    2  503  504 -0.22872073479E+01 -0.62506657011E+02 -0.44205114011E+03  0.44645439180E+03  0.00000000000E+00 0.  1.
         21    1    1    2  504  501  0.27307808126E+02  0.83625205733E+02  0.94047606628E+02  0.12877827352E+03  0.00000000000E+00 0.  1.
         21    1    1    2  505  502 -0.50902998327E+02 -0.62860104759E+02  0.16784690610E+03  0.18631986447E+03  0.00000000000E+00 0.  1.
          1    1    1    2  501    0  0.25882397549E+02  0.41741556037E+02  0.30117487623E+03  0.30515334190E+03  0.00000000000E+00 0.  1.
<scales pt_clust_3="62.97693" pt_clust_4="14000.00000" pt_clust_5="51.33962" pt_clust_6="49.11472"></scales>
<clustering>
<clus scale="   49.115">  1  6  2 -1</clus>
<clus scale="   51.340">  1  5  2 -1</clus>
<clus scale="   62.977">  2  3  1 -1</clus>
<clus scale="   62.977">  2  3  1 -1</clus>
</clustering>
</event>
<event>
 6    0  0.4945982E+002  0.1417266E+03  0.7546771E-02  0.1211024E+00
         21   -1    0    0  505  502  0.00000000000E+00  0.00000000000E+00  0.57695824993E+02  0.57695824993E+02  0.00000000000E+00 0. -1.
          2   -1    0    0  502    0 -0.00000000000E+00 -0.00000000000E+00 -0.25445875114E+04  0.25445875114E+04  0.00000000000E+00 0. -1.
         21    1    1    2  503  504  0.29880757862E+02  0.45988939076E+02 -0.25890400503E+02  0.60647795062E+02  0.00000000000E+00 0. -1.
         21    1    1    2  504  501 -0.49138590693E+01  0.75192663708E+02 -0.36392340499E+02  0.83680852848E+02  0.00000000000E+00 0. -1.
         21    1    1    2  505  503  0.84155270896E+02 -0.36925668997E+02 -0.12997351246E+03  0.15918143294E+03  0.00000000000E+00 0.  1.
          2    1    1    2  501    0 -0.10912216969E+03 -0.84255933786E+02 -0.22946354329E+04  0.22987732555E+04  0.00000000000E+00 0. -1.
<scales pt_clust_3="34.58364" pt_clust_4="34.58364" pt_clust_5="91.90003" pt_clust_6="135.80547"></scales>
<clustering>
<clus scale="   34.584">  3  4 -1 -1</clus>
<clus scale="   91.900">  1  5  2 -1</clus>
<clus scale="  135.805">  2  6  1 -1</clus>
<clus scale="   91.900">  1  3  2 -1</clus>
</clustering>
</event>
<event>
 6    0  0.4945982E+002  0.1706573E+03  0.7546771E-02  0.1177164E+00
         21   -1    0    0  503  502  0.00000000000E+00  0.00000000000E+00  0.41748515738E+03  0.41748515738E+03  0.00000000000E+00 0.  1.
          2   -1    0    0  502    0 -0.00000000000E+00 -0.00000000000E+00 -0.25316678449E+03  0.25316678449E+03  0.00000000000E+00 0.  1.
         21    1    1    2  503  505  0.90816174540E+02 -0.65801408688E+02  0.27394192712E+03  0.29600942955E+03  0.00000000000E+00 0.  1.
         21    1    1    2  504  501 -0.86677107212E+02  0.72677657861E+02 -0.11252952103E+03  0.15955518158E+03  0.00000000000E+00 0.  1.
         21    1    1    2  505  504  0.49743257173E+02 -0.14021758135E+01  0.95573962093E+02  0.10775314363E+03  0.00000000000E+00 0.  1.
          2    1    1    2  501    0 -0.53882324501E+02 -0.54740733597E+01 -0.92667995293E+02  0.10733418712E+03  0.00000000000E+00 0.  1.
<scales pt_clust_3="162.73360" pt_clust_4="48.19231" pt_clust_5="31.30749" pt_clust_6="48.19231"></scales>
<clustering>
<clus scale="   31.307">  3  5 -1 -1</clus>
<clus scale="   48.192">  4  6 -1 -1</clus>
<clus scale="  162.734">  1  3  2 -1</clus>
<clus scale="  162.734">  1  3  2 -1</clus>
</clustering>
</event>
<event>
 6    0  0.4945982E+002  0.1075950E+03  0.7546771E-02  0.1265089E+00
         21   -1    0    0  501  502  0.00000000000E+00  0.00000000000E+00  0.82070833835E+03  0.82070833835E+03  0.00000000000E+00 0.  1.
          2   -1    0    0  504    0 -0.00000000000E+00 -0.00000000000E+00 -0.71838502699E+02  0.71838502699E+02  0.00000000000E+00 0.  1.
         21    1    1    2  503  502 -0.87557717383E+02  0.30625003109E+02  0.53758095057E+03  0.54552499769E+03  0.00000000000E+00 0.  1.
         21    1    1    2  504  505  0.69594297589E+02  0.20441840849E+00  0.89139573297E+02  0.11308966165E+03  0.00000000000E+00 0.  1.
         21    1    1    2  505  503  0.53485650586E+02  0.18290238613E+02  0.15499945586E+03  0.16498508709E+03  0.00000000000E+00 0.  1.
          2    1    1    2  501    0 -0.35522230793E+02 -0.49119660131E+02 -0.32850144068E+02  0.68947094624E+02  0.00000000000E+00 0.  1.
<scales pt_clust_3="96.67325" pt_clust_4="42.56824" pt_clust_5="42.56824" pt_clust_6="60.61823"></scales>
<clustering>
<clus scale="   42.568">  4  5 -1 -1</clus>
<clus scale="   60.618">  2  6  1 -1</clus>
<clus scale="   96.673">  1  3  2 -1</clus>
<clus scale="   96.673">  1  3  2 -1</clus>
</clustering>
</event>
<event>
 6    0  0.4945982E+002  0.1046296E+03  0.7546771E-02  0.1270851E+00
         21   -1    0    0  504  502  0.00000000000E+00  0.00000000000E+00  0.22370022756E+03  0.22370022756E+03  0.00000000000E+00 0. -1.
         -3   -1    0    0    0  501 -0.00000000000E+00 -0.00000000000E+00 -0.31173284488E+04  0.31173284488E+04  0.00000000000E+00 0. -1.
         21    1    1    2  503  505 -0.89309716594E+02 -0.19323773726E+02 -0.83639035763E+03  0.84136702101E+03  0.00000000000E+00 0. -1.
         21    1    1    2  504  501  0.23265210661E+02  0.32120721269E+02  0.20975355407E+03  0.21347028881E+03  0.00000000000E+00 0. -1.
         21    1    1    2  505  502  0.96406245924E+02 -0.28505098980E+02 -0.25778900612E+03  0.27669816877E+03  0.00000000000E+00 0.  1.
         -3    1    1    2    0  503 -0.30361739990E+02  0.15708151437E+02 -0.20092024115E+04  0.20094931977E+04  0.00000000000E+00 0. -1.
<scales pt_clust_3="14000.00000" pt_clust_4="39.65271" pt_clust_5="104.62958" pt_clust_6="34.18452"></scales>
<clustering>
<clus scale="   34.185">  2  6  1 -1</clus>
<clus scale="   39.653">  1  4  2 -1</clus>
<clus scale="  104.630">  1  5  2 -1</clus>
<clus scale="   39.653">  1  3  2 -1</clus>
</clustering>
</event>
<event>
 6    0  0.4945982E+002  0.1123676E+03  0.7546771E-02  0.1256247E+00
          2   -1    0    0  505    0 -0.00000000000E+00  0.00000000000E+00  0.29029724949E+04  0.29029724949E+04  0.00000000000E+00 0.  1.
         21   -1    0    0  504  502  0.00000000000E+00 -0.00000000000E+00 -0.12564249004E+03  0.12564249004E+03  0.00000000000E+00 0. -1.
         21    1    1    2  503  501 -0.65117429035E+02  0.41416371342E+02  0.39963122067E+02  0.86905963573E+02  0.00000000000E+00 0.  1.
         21    1    1    2  504  503 -0.34178293312E+02 -0.22257044253E+02 -0.65849803132E+02  0.77457913250E+02  0.00000000000E+00 0. -1.
         21    1    1    2  505  502  0.62556471487E+01  0.46899950938E+02 -0.10298401452E+02  0.48423089448E+02  0.00000000000E+00 0.  1.
          2    1    1    2  501    0  0.93040075198E+02 -0.66059278026E+02  0.28135150874E+04  0.28158280187E+04  0.00000000000E+00 0.  1.
<scales pt_clust_3="112.36758" pt_clust_4="40.78642" pt_clust_5="36.91639" pt_clust_6="14000.00000"></scales>
<clustering>
<clus scale="   40.786">  2  4  1 -1</clus>
<clus scale="   36.916">  2  5  1 -1</clus>
<clus scale="  112.368">  2  3  1 -1</clus>
<clus scale="   40.786">  2  3  1 -1</clus>
</clustering>
</event>
<event>
 6    0  0.4945982E+002  0.1188166E+03  0.7546771E-02  0.1245062E+00
         -3   -1    0    0    0  501 -0.00000000000E+00  0.00000000000E+00  0.31004358131E+02  0.31004358131E+02  0.00000000000E+00 0. -1.
         21   -1    0    0  505  502  0.00000000000E+00 -0.00000000000E+00 -0.89241854644E+03  0.89241854644E+03  0.00000000000E+00 0. -1.
         21    1    1    2  503  504 -0.41268592851E+02 -0.29111610102E+02 -0.16663220615E+03  0.17411741649E+03  0.00000000000E+00 0. -1.
         21    1    1    2  504  502 -0.77168700327E+01 -0.53552694617E+02 -0.32220461803E+03  0.32671586595E+03  0.00000000000E+00 0. -1.
         21    1    1    2  505  501 -0.51746460252E+02 -0.91817756873E+01 -0.50646199883E+02  0.72986565311E+02  0.00000000000E+00 0. -1.
         -3    1    1    2    0  503  0.10073192314E+03  0.91846080406E+02 -0.32193116425E+03  0.34960305682E+03  0.00000000000E+00 0. -1.
<scales pt_clust_3="49.63690" pt_clust_4="49.63690" pt_clust_5="52.55474" pt_clust_6="107.13450"></scales>
<clustering>
<clus scale="   49.637">  3  4 -1 -1</clus>
<clus scale="   52.555">  1  5  2 -1</clus>
<clus scale="  107.134">  1  6  2 -1</clus>
<clus scale="  118.817">  2  3  1 -1</clus>
</clustering>
</event>
<event>
 6    0  0.4945982E+002  0.2819142E+03  0.7546771E-02  0.1094648E+00
         21   -1    0    0  504  502  0.00000000000E+00  0.00000000000E+00  0.44290641825E+03  0.44290641825E+03  0.00000000000E+00 0.  1.
          2   -1    0    0  505    0 -0.00000000000E+00 -0.00000000000E+00 -0.13020435053E+04  0.13020435053E+04  0.00000000000E+00 0. -1.
         21    1    1    2  503  502 -0.29211780068E+02  0.20174398215E+02  0.27051926637E+03  0.27283879474E+03  0.00000000000E+00 0.  1.
         21    1    1    2  504  501 -0.13615086728E+02 -0.27172355071E+03  0.10261831936E+02  0.27225789941E+03  0.00000000000E+00 0.  1.
         21    1    1    2  505  503 -0.40313354090E+02 -0.20108212453E+02 -0.29931672186E+02  0.54087075405E+02  0.00000000000E+00 0.  1.
          2    1    1    2  501    0  0.83140220885E+02  0.27165736495E+03 -0.11099865131E+04  0.11457661540E+04  0.00000000000E+00 0. -1.
<scales pt_clust_3="35.50119" pt_clust_4="281.91421" pt_clust_5="46.31067" pt_clust_6="14000.00000"></scales>
<clustering>
<clus scale="   35.501">  1  3  2 -1</clus>
<clus scale="   46.311">  1  5  2 -1</clus>
<clus scale="  281.914">  1  4  2 -1</clus>
<clus scale="   35.501">  1  3  2 -1</clus>
</clustering>
</event>
<event>
 6    0  0.4945982E+002  0.1148503E+03  0.7546771E-02  0.1251843E+00
          1   -1    0    0  505    0 -0.00000000000E+00  0.00000000000E+00  0.10191240539E+04  0.10191240539E+04  0.00000000000E+00 0.  1.
         21   -1    0    0  504  502  0.00000000000E+00 -0.00000000000E+00 -0.14460165627E+03  0.14460165627E+03  0.00000000000E+00 0.  1.
         21    1    1    2  503  501  0.11062747950E+03  0.34380566638E+02  0.35992841995E+02  0.12130930408E+03  0.00000000000E+00 0.  1.
         21    1    1    2  504  503  0.30679924350E+02 -0.14778925149E+02 -0.80140523324E+02  0.87075701923E+02  0.00000000000E+00 0.  1.
         21    1    1    2  505  502 -0.26151569916E+02 -0.26234869263E+02  0.86497973804E+01  0.38039347642E+02  0.00000000000E+00 0. -1.
          1    1    1    2  501    0 -0.11515583393E+03  0.66332277738E+01  0.91002028155E+03  0.91730135650E+03  0.00000000000E+00 0.  1.
<scales pt_clust_3="114.85035" pt_clust_4="34.05399" pt_clust_5="35.20950" pt_clust_6="14000.00000"></scales>
<clustering>
<clus scale="   34.054">  2  4  1 -1</clus>
<clus scale="   35.210">  2  5  1 -1</clus>
<clus scale="  114.850">  2  3  1 -1</clus>
<clus scale="   34.054">  2  3  1 -1</clus>
</clustering>
</event>
<event>
 6    0  0.4945982E+002  0.8703860E+02  0.7546771E-02  0.1310186E+00
          1   -1    0    0  503    0 -0.00000000000E+00  0.00000000000E+00  0.11863912085E+04  0.11863912085E+04  0.00000000000E+00 0.  1.
         21   -1    0    0  505  502  0.00000000000E+00 -0.00000000000E+00 -0.65990839433E+02  0.65990839433E+02  0.00000000000E+00 0. -1.
         21    1    1    2  503  502 -0.26179439642E+02  0.20307240981E+02  0.49655285029E+02  0.59694174150E+02  0.00000000000E+00 0. -1.
         21    1    1    2  504  501 -0.16923435723E+02  0.95690314080E+02 -0.76079525182E+01  0.97472661946E+02  0.00000000000E+00 0. -1.
         21    1    1    2  505  504  0.12803043088E+02 -0.34720410779E+02  0.45150846292E+02  0.58378281559E+02  0.00000000000E+00 0.  1.
          1    1    1    2  501    0  0.30299832276E+02 -0.81277144282E+02  0.10332021902E+04  0.10368369303E+04  0.00000000000E+00 0.  1.
<scales pt_clust_3="33.13227" pt_clust_4="14000.00000" pt_clust_5="34.00976" pt_clust_6="87.03860"></scales>
<clustering>
<clus scale="   33.132">  2  3  1 -1</clus>
<clus scale="   34.010">  2  5  1 -1</clus>
<clus scale="   87.039">  1  6  2 -1</clus>
<clus scale="   33.132">  2  3  1 -1</clus>
</clustering>
</event>
<event>
 6    0  0.4945982E+002  0.1170971E+03  0.7546771E-02  0.1247964E+00
          1   -1    0    0  503    0 -0.00000000000E+00  0.00000000000E+00  0.18263682114E+04  0.18263682114E+04  0.00000000000E+00 0. -1.
         21   -1    0    0  505  502  0.00000000000E+00 -0.00000000000E+00 -0.37227791660E+03  0.37227791660E+03  0.00000000000E+00 0.  1.
         21    1    1    2  503  504  0.11099143970E+03  0.49981972021E+02  0.56585480968E+03  0.57879958781E+03  0.00000000000E+00 0.  1.
         21    1    1    2  504  502 -0.25269061374E+01  0.93031746449E+02  0.46118421732E+02  0.10386625980E+03  0.00000000000E+00 0.  1.
         21    1    1    2  505  501 -0.77312500071E+02 -0.13485686120E+02 -0.32853179708E+03  0.33777541073E+03  0.00000000000E+00 0.  1.
          1    1    1    2  501    0 -0.31152033491E+02 -0.12952803235E+03  0.11706488605E+04  0.11782048696E+04  0.00000000000E+00 0. -1.
<scales pt_clust_3="117.09709" pt_clust_4="102.23698" pt_clust_5="78.47985" pt_clust_6="14000.00000"></scales>
<clustering>
<clus scale="   78.480">  2  5  1 -1</clus>
<clus scale="  102.237">  2  4  1 -1</clus>
<clus scale="  117.097">  2  3  1 -1</clus>
<clus scale="   78.480">  2  3  1 -1</clus>
</clustering>
</event>
<event>
 6    0  0.4945982E+002  0.3701450E+03  0.7546771E-02  0.1054638E+00
         21   -1    0    0  503  502  0.00000000000E+00  0.00000000000E+00  0.88888892848E+03  0.88888892848E+03  0.00000000000E+00 0.  1.
          3   -1    0    0  505    0 -0.00000000000E+00 -0.00000000000E+00 -0.84224936183E+03  0.84224936183E+03  0.00000000000E+00 0.  1.
         21    1    1    2  503  501 -0.27201056730E+02  0.40515763483E+02  0.12235155405E+03  0.13172443720E+03  0.00000000000E+00 0.  1.
         21    1    1    2  504  502 -0.39662263057E+02 -0.43248104158E+02  0.23091489355E+03  0.23825444736E+03  0.00000000000E+00 0.  1.
         21    1    1    2  505  504 -0.19308367244E+03 -0.22962389692E+03  0.44264665568E+03  0.53473778657E+03  0.00000000000E+00 0. -1.
          3    1    1    2  501    0  0.25994699223E+03  0.23235623760E+03 -0.74927353664E+03  0.82642161917E+03  0.00000000000E+00 0.  1.
<scales pt_clust_3="48.79984" pt_clust_4="54.41453" pt_clust_5="54.41453" pt_clust_6="349.00609"></scales>
<clustering>
<clus scale="   48.800">  1  3  2 -1</clus>
<clus scale="   54.415">  4  5 -1 -1</clus>
<clus scale="  349.006">  2  6  1 -1</clus>
<clus scale="   48.800">  1  3  2 -1</clus>
</clustering>
</event>
<event>
 6    0  0.4945982E+002  0.1137049E+03  0.7546771E-02  0.1253859E+00
          4   -1    0    0  505    0 -0.00000000000E+00  0.00000000000E+00  0.81574309109E+02  0.81574309109E+02  0.00000000000E+00 0.  1.
         21   -1    0    0  503  502  0.00000000000E+00 -0.00000000000E+00 -0.42161050470E+03  0.42161050470E+03  0.00000000000E+00 0.  1.
         21    1    1    2  503  501  0.34995922476E+02 -0.18069877433E+02 -0.18322976944E+03  0.18741500332E+03  0.00000000000E+00 0.  1.
         21    1    1    2  504  502 -0.31658872032E+02  0.28519989848E+02 -0.87421273362E+02  0.97253036125E+02  0.00000000000E+00 0.  1.
         21    1    1    2  505  504 -0.67668972729E+02  0.62790399845E+02 -0.77727317679E+02  0.12067833317E+03  0.00000000000E+00 0.  1.
          4    1    1    2  501    0  0.64331922285E+02 -0.73240512260E+02  0.83421648876E+01  0.97838441198E+02  0.00000000000E+00 0.  1.
<scales pt_clust_3="39.38572" pt_clust_4="30.50828" pt_clust_5="30.50828" pt_clust_6="104.46240"></scales>
<clustering>
<clus scale="   30.508">  4  5 -1 -1</clus>
<clus scale="   39.386">  2  3  1 -1</clus>
<clus scale="  104.462">  1  6  2 -1</clus>
<clus scale="   39.386">  2  3  1 -1</clus>
</clustering>
</event>
<event>
 6    0  0.4945982E+002  0.1063672E+03  0.7546771E-02  0.1267449E+00
         21   -1    0    0  501  502  0.00000000000E+00  0.00000000000E+00  0.47300702565E+03  0.47300702565E+03  0.00000000000E+00 0. -1.
         -1   -1    0    0    0  501 -0.00000000000E+00 -0.00000000000E+00 -0.34654918762E+04  0.34654918762E+04  0.00000000000E+00 0. -1.
         21    1    1    2  503  502  0.41459091808E+02 -0.21515507916E+02  0.45720904098E+03  0.45958881680E+03  0.00000000000E+00 0. -1.
         21    1    1    2  504  503 -0.23101901402E+02  0.26397493432E+02 -0.48275740254E+02  0.59674723334E+02  0.00000000000E+00 0.  1.
         21    1    1    2  505  504 -0.42971063737E+01  0.88128116710E+02 -0.22880467071E+03  0.24522766446E+03  0.00000000000E+00 0. -1.
         -1    1    1    2    0  505 -0.14060084032E+02 -0.93010102226E+02 -0.31726134806E+04  0.31740076973E+04  0.00000000000E+00 0. -1.
<scales pt_clust_3="46.70946" pt_clust_4="30.40378" pt_clust_5="30.40378" pt_clust_6="94.80977"></scales>
<clustering>
<clus scale="   30.404">  4  5 -1 -1</clus>
<clus scale="   46.709">  1  3  2 -1</clus>
<clus scale="   94.810">  2  6  1 -1</clus>
<clus scale="   46.709">  1  3  2 -1</clus>
</clustering>
</event>
<event>
 6    0  0.4945982E+002  0.9823576E+02  0.7546771E-02  0.1284050E+00
          1   -1    0    0  504    0 -0.00000000000E+00  0.00000000000E+00  0.15175375391E+04  0.15175375391E+04  0.00000000000E+00 0. -1.
         21   -1    0    0  505  502  0.00000000000E+00 -0.00000000000E+00 -0.11088386447E+03  0.11088386447E+03  0.00000000000E+00 0.  1.
         21    1    1    2  503  502 -0.13758157420E+02 -0.43531092622E+02 -0.55580083690E+02  0.71926272136E+02  0.00000000000E+00 0.  1.
         21    1    1    2  504  503  0.78028516911E+02 -0.86463955391E+02  0.14863364204E+03  0.18882908827E+03  0.00000000000E+00 0.  1.
         21    1    1    2  505  501 -0.80803493865E+02  0.51703142776E+02  0.63577332156E+02  0.11508473729E+03  0.00000000000E+00 0.  1.
          1    1    1    2  501    0  0.16533134373E+02  0.78291905236E+02  0.12500227842E+04  0.12525813059E+04  0.00000000000E+00 0. -1.
<scales pt_clust_3="45.65351" pt_clust_4="98.23576" pt_clust_5="14000.00000" pt_clust_6="78.78541"></scales>
<clustering>
<clus scale="   45.654">  2  3  1 -1</clus>
<clus scale="   78.785">  1  6  2 -1</clus>
<clus scale="   98.236">  1  4  2 -1</clus>
<clus scale="   45.654">  2  3  1 -1</clus>
</clustering>
</event>
<event>
 6    0  0.4945982E+002  0.1174138E+03  0.7546771E-02  0.1247425E+00
          1   -1    0    0  503    0 -0.00000000000E+00  0.00000000000E+00  0.10204718288E+04  0.10204718288E+04  0.00000000000E+00 0. -1.
         21   -1    0    0  504  502  0.00000000000E+00 -0.00000000000E+00 -0.45279064548E+02  0.45279064548E+02  0.00000000000E+00 0.  1.
         21    1    1    2  503  505 -0.15693187981E+02 -0.42179037672E+02  0.59465083406E+02  0.74575086406E+02  0.00000000000E+00 0.  1.
         21    1    1    2  504  501 -0.51181053840E+02  0.13963580074E+03  0.30203767751E+03  0.33666662406E+03  0.00000000000E+00 0. -1.
         21    1    1    2  505  502  0.17900330572E+02 -0.52239905038E+02  0.22591201803E+02  0.59663991753E+02  0.00000000000E+00 0.  1.
          1    1    1    2  501    0  0.48973911248E+02 -0.45216858033E+02  0.59109880150E+03  0.59484519110E+03  0.00000000000E+00 0. -1.
<scales pt_clust_3="43.92153" pt_clust_4="106.85936" pt_clust_5="43.92153" pt_clust_6="66.65589"></scales>
<clustering>
<clus scale="   43.922">  3  5 -1 -1</clus>
<clus scale="   66.656">  1  6  2 -1</clus>
<clus scale="  106.859">  1  4  2 -1</clus>
<clus scale="  117.414">  2  3  1 -1</clus>
</clustering>
</event>
<event>
 6    0  0.4945982E+002  0.1370226E+03  0.7546771E-02  0.1217392E+00
          1   -1    0    0  504    0 -0.00000000000E+00  0.00000000000E+00  0.21144511147E+04  0.21144511147E+04  0.00000000000E+00 0.  1.
         21   -1    0    0  503  502  0.00000000000E+00 -0.00000000000E+00 -0.10401505933E+03  0.10401505933E+03  0.00000000000E+00 0.  1.
         21    1    1    2  503  505  0.22020561611E+01 -0.44232146833E+02 -0.41666935636E+02  0.60806787368E+02  0.00000000000E+00 0.  1.
         21    1    1    2  504  502  0.14591961977E+02  0.47450135059E+02  0.10008395219E+03  0.11171946186E+03  0.00000000000E+00 0. -1.
         21    1    1    2  505  501 -0.13458645636E+02 -0.14004867851E+03  0.66778518687E+02  0.15573740094E+03  0.00000000000E+00 0.  1.
          1    1    1    2  501    0 -0.33353725027E+01  0.13683069028E+03  0.18852405201E+04  0.18902025239E+04  0.00000000000E+00 0.  1.
<scales pt_clust_3="44.28693" pt_clust_4="45.08491" pt_clust_5="137.02257" pt_clust_6="14000.00000"></scales>
<clustering>
<clus scale="   44.287">  2  3  1 -1</clus>
<clus scale="   45.085">  2  4  1 -1</clus>
<clus scale="  137.023">  2  5  1 -1</clus>
<clus scale="   44.287">  2  3  1 -1</clus>
</clustering>
</event>
<event>
 6    0  0.4945982E+002  0.9615482E+02  0.7546771E-02  0.1288596E+00
         21   -1    0    0  503  502  0.00000000000E+00  0.00000000000E+00  0.32070843158E+03  0.32070843158E+03  0.00000000000E+00 0. -1.
          2   -1    0    0  505    0 -0.00000000000E+00 -0.00000000000E+00 -0.16787371529E+03  0.16787371529E+03  0.00000000000E+00 0.  1.
         21    1    1    2  503  504  0.65365488114E+02  0.73455918329E+02  0.14898510760E+03  0.17850765042E+03  0.00000000000E+00 0. -1.
         21    1    1    2  504  501 -0.35969655173E+02  0.55512774859E+02  0.44203044909E+02  0.79557485160E+02  0.00000000000E+00 0. -1.
         21    1    1    2  505  502  0.15058422483E+02 -0.11871709361E+03  0.49690992336E+02  0.12957507138E+03  0.00000000000E+00 0. -1.
          2    1    1    2  501    0 -0.44454255425E+02 -0.10251599574E+02 -0.90044428549E+02  0.10094193991E+03  0.00000000000E+00 0.  1.
<scales pt_clust_3="14000.00000" pt_clust_4="70.72967" pt_clust_5="96.15482" pt_clust_6="45.62101"></scales>
<clustering>
<clus scale="   45.621">  2  6  1 -1</clus>
<clus scale="   70.730">  2  4  1 -1</clus>
<clus scale="   96.155">  2  5  1 -1</clus>
<clus scale="   96.155">  1  3  2 -1</clus>
</clustering>
</event>
<event>
 6    0  0.4945982E+002  0.1186220E+03  0.7546771E-02  0.1245388E+00
         21   -1    0    0  504  502  0.00000000000E+00  0.00000000000E+00  0.90737499816E+02  0.90737499816E+02  0.00000000000E+00 0.  1.
          2   -1    0    0  505    0 -0.00000000000E+00 -0.00000000000E+00 -0.28291600945E+04  0.28291600945E+04  0.00000000000E+00 0.  1.
         21    1    1    2  503  501 -0.84279552328E+02  0.53415428539E+02 -0.73092317102E+03  0.73770246908E+03  0.00000000000E+00 0.  1.
         21    1    1    2  504  503  0.35618173452E+02  0.21292731139E+02  0.67203654569E+02  0.78983326512E+02  0.00000000000E+00 0.  1.
         21    1    1    2  505  502  0.91224378764E+02 -0.67585444423E+02 -0.21610501525E+03  0.24411279605E+03  0.00000000000E+00 0.  1.
          2    1    1    2  501    0 -0.42562999888E+02 -0.71227152546E+01 -0.18585980630E+04  0.18590990027E+04  0.00000000000E+00 0.  1.
<scales pt_clust_3="118.62195" pt_clust_4="41.49741" pt_clust_5="14000.00000" pt_clust_6="42.60682"></scales>
<clustering>
<clus scale="   41.497">  1  4  2 -1</clus>
<clus scale="   42.607">  2  6  1 -1</clus>
<clus scale="  118.622">  2  3  1 -1</clus>
<clus scale="   41.497">  1  3  2 -1</clus>
</clustering>
</event>
<event>
 6    0  0.4945982E+002  0.6456215E+02  0.7546771E-02  0.1379626E+00
         -2   -1    0    0    0  501 -0.00000000000E+00  0.00000000000E+00  0.17482846034E+04  0.17482846034E+04  0.00000000000E+00 0.  1.
         21   -1    0    0  501  502  0.00000000000E+00 -0.00000000000E+00 -0.33820616482E+04  0.33820616482E+04  0.00000000000E+00 0.  1.
         21    1    1    2  503  504 -0.85988636952E+02 -0.10111221514E+02  0.31149978215E+02  0.92014149065E+02  0.00000000000E+00 0.  1.
         21    1    1    2  504  505  0.38817311116E+02  0.79889601049E+02 -0.15554143094E+03  0.17911523871E+03  0.00000000000E+00 0.  1.
         21    1    1    2  505  502  0.12419387508E+02 -0.49051937158E+02 -0.31838557881E+04  0.31842578434E+04  0.00000000000E+00 0.  1.
         -2    1    1    2    0  503  0.34751938328E+02 -0.20726442377E+02  0.16744701961E+04  0.16749590204E+04  0.00000000000E+00 0.  1.
<scales pt_clust_3="64.56215" pt_clust_4="14000.00000" pt_clust_5="50.67801" pt_clust_6="40.46335"></scales>
<clustering>
<clus scale="   40.463">  1  6  2 -1</clus>
<clus scale="   50.678">  2  5  1 -1</clus>
<clus scale="   64.562">  1  3  2 -1</clus>
<clus scale="   50.678">  2  3  1 -1</clus>
</clustering>
</event>
<event>
 6    0  0.4945982E+002  0.1640220E+03  0.7546771E-02  0.1184229E+00
          2   -1    0    0  505    0 -0.00000000000E+00  0.00000000000E+00  0.22991334221E+04  0.22991334221E+04  0.00000000000E+00 0.  1.
         21   -1    0    0  504  502  0.00000000000E+00 -0.00000000000E+00 -0.36236659234E+02  0.36236659234E+02  0.00000000000E+00 0. -1.
         21    1    1    2  503  501  0.21906843381E+02 -0.49026468765E+02  0.63970777395E+02  0.83521043976E+02  0.00000000000E+00 0. -1.
         21    1    1    2  504  503 -0.65574924162E+02 -0.12534197635E+03  0.23409264993E+03  0.27351426008E+03  0.00000000000E+00 0. -1.
         21    1    1    2  505  502  0.47870651209E+02  0.84997116042E+02  0.43132584649E+03  0.44221950978E+03  0.00000000000E+00 0. -1.
          2    1    1    2  501    0 -0.42025704280E+01  0.89371329075E+02  0.15335074890E+04  0.15361152675E+04  0.00000000000E+00 0.  1.
<scales pt_clust_3="48.98494" pt_clust_4="48.98494" pt_clust_5="143.46450" pt_clust_6="89.47008"></scales>
<clustering>
<clus scale="   48.985">  3  4 -1 -1</clus>
<clus scale="   89.470">  1  6  2 -1</clus>
<clus scale="  143.465">  1  5  2 -1</clus>
<clus scale="  164.022">  2  3  1 -1</clus>
</clustering>
</event>
<event>
 6    0  0.4945982E+002  0.1623557E+03  0.7546771E-02  0.1186063E+00
          1   -1    0    0  505    0 -0.00000000000E+00  0.00000000000E+00  0.24585200662E+03  0.24585200662E+03  0.00000000000E+00 0. -1.
         21   -1    0    0  503  502  0.00000000000E+00 -0.00000000000E+00 -0.36848172908E+03  0.36848172908E+03  0.00000000000E+00 0.  1.
         21    1    1    2  503  501 -0.32197125903E+02  0.16610690769E+02 -0.21415531066E+02  0.42085566826E+02  0.00000000000E+00 0.  1.
         21    1    1    2  504  502  0.97955266570E+02 -0.15854006447E+03 -0.25208588659E+03  0.31349239307E+03  0.00000000000E+00 0.  1.
         21    1    1    2  505  504 -0.24712836313E+02 -0.23135704654E+02  0.41117440352E+01  0.34101195690E+02  0.00000000000E+00 0.  1.
          1    1    1    2  501    0 -0.41045304354E+02  0.16506507836E+03  0.14675995116E+03  0.22465458012E+03  0.00000000000E+00 0. -1.
<scales pt_clust_3="36.77570" pt_clust_4="162.35574" pt_clust_5="33.85240" pt_clust_6="14000.00000"></scales>
<clustering>
<clus scale="   33.852">  1  5  2 -1</clus>
<clus scale="   36.776">  2  3  1 -1</clus>
<clus scale="  162.356">  2  4  1 -1</clus>
<clus scale="   36.776">  2  3  1 -1</clus>
</clustering>
</event>
<event>
 6    0  0.4945982E+002  0.8549141E+02  0.7546771E-02  0.1314152E+00
         21   -1    0    0  503  502  0.00000000000E+00  0.00000000000E+00  0.46337547578E+02  0.46337547578E+02  0.00000000000E+00 0. -1.
          1   -1    0    0  504    0 -0.00000000000E+00 -0.00000000000E+00 -0.81826864805E+03  0.81826864805E+03  0.00000000000E+00 0. -1.
         21    1    1    2  503  501  0.47806691347E+02 -0.50260121422E+02 -0.67125280553E+02  0.96526487723E+02  0.00000000000E+00 0. -1.
         21    1    1    2  504  505 -0.71591409443E+02  0.49631659796E+02 -0.83240531014E+02  0.12048907653E+03  0.00000000000E+00 0. -1.
         21    1    1    2  505  502 -0.21437783695E+02  0.53685068669E+02 -0.66283816725E+02  0.87950039951E+02  0.00000000000E+00 0. -1.
          1    1    1    2  501    0  0.45222501791E+02 -0.53056607043E+02 -0.55528147218E+03  0.55964059143E+03  0.00000000000E+00 0. -1.
<scales pt_clust_3="69.36541" pt_clust_4="34.18023" pt_clust_5="34.18023" pt_clust_6="74.48639"></scales>
<clustering>
<clus scale="   34.180">  4  5 -1 -1</clus>
<clus scale="   69.365">  1  3  2 -1</clus>
<clus scale="   74.486">  2  6  1 -1</clus>
<clus scale="   69.365">  1  3  2 -1</clus>
</clustering>
</event>
<event>
 6    0  0.4945982E+002  0.1917385E+03  0.7546771E-02  0.1156903E+00
         21   -1    0    0  503  502  0.00000000000E+00  0.00000000000E+00  0.34394039775E+03  0.34394039775E+03  0.00000000000E+00 0.  1.
          2   -1    0    0  504    0 -0.00000000000E+00 -0.00000000000E+00 -0.45817401496E+03  0.45817401496E+03  0.00000000000E+00 0.  1.
         21    1    1    2  503  501 -0.17741817899E+03  0.11122073406E+02  0.16064803500E+03  0.23960113085E+03  0.00000000000E+00 0.  1.
         21    1    1    2  504  505  0.10361939444E+03  0.26692971689E+01  0.21739115407E+02  0.10590889099E+03  0.00000000000E+00 0.  1.
         21    1    1    2  505  502  0.10800268843E+03 -0.24660773165E+02  0.40219694820E+02  0.11785736418E+03  0.00000000000E+00 0.  1.
          2    1    1    2  501    0 -0.34203903876E+02  0.10869402590E+02 -0.33684046244E+03  0.33874702668E+03  0.00000000000E+00 0.  1.
<scales pt_clust_3="189.20559" pt_clust_4="30.04699" pt_clust_5="30.04699" pt_clust_6="35.88943"></scales>
<clustering>
<clus scale="   30.047">  4  5 -1 -1</clus>
<clus scale="   35.889">  2  6  1 -1</clus>
<clus scale="  189.206">  1  3  2 -1</clus>
<clus scale="  189.206">  1  3  2 -1</clus>
</clustering>
</event>
<event>
 6    0  0.4945982E+002  0.1067305E+03  0.7546771E-02  0.1266747E+00
          2   -1    0    0  504    0 -0.00000000000E+00  0.00000000000E+00  0.28245979060E+04  0.28245979060E+04  0.00000000000E+00 0.  1.
         21   -1    0    0  505  502  0.00000000000E+00 -0.00000000000E+00 -0.54648605660E+02  0.54648605660E+02  0.00000000000E+00 0. -1.
         21    1    1    2  503  501  0.43157885127E+02 -0.38403788372E+02  0.88906190979E+03  0.89093688522E+03  0.00000000000E+00 0.  1.
         21    1    1    2  504  502  0.34149698178E+01 -0.80527435583E+02  0.55305115934E+03  0.55889347353E+03  0.00000000000E+00 0.  1.
         21    1    1    2  505  503 -0.12683731028E+02  0.10880430832E+03  0.87871993833E+01  0.10989299074E+03  0.00000000000E+00 0. -1.
          2    1    1    2  501    0 -0.33889123917E+02  0.10126915637E+02  0.13190490318E+04  0.13195231622E+04  0.00000000000E+00 0.  1.
<scales pt_clust_3="39.81727" pt_clust_4="106.73049" pt_clust_5="14000.00000" pt_clust_6="35.36986"></scales>
<clustering>
<clus scale="   35.370">  1  6  2 -1</clus>
<clus scale="   39.817">  1  3  2 -1</clus>
<clus scale="  106.730">  1  4  2 -1</clus>
<clus scale="  106.730">  2  3  1 -1</clus>
</clustering>
</event>
<event>
 6    0  0.4945982E+002  0.2050196E+03  0.7546771E-02  0.1145572E+00
          2   -1    0    0  504    0 -0.00000000000E+00  0.00000000000E+00  0.18762194648E+04  0.18762194648E+04  0.00000000000E+00 0.  1.
         21   -1    0    0  501  502  0.00000000000E+00 -0.00000000000E+00 -0.79424486253E+02  0.79424486253E+02  0.00000000000E+00 0.  1.
         21    1    1    2  503  505  0.38241230682E+02  0.17938730432E+01 -0.56262410556E+01  0.38694499519E+02  0.00000000000E+00 0.  1.
         21    1    1    2  504  503  0.16376560962E+03  0.15899981328E+02  0.11374734804E+03  0.20002610701E+03  0.00000000000E+00 0.  1.
         21    1    1    2  505  502 -0.85114477820E+01 -0.32645649046E+02  0.25055566875E+02  0.42023381306E+02  0.00000000000E+00 0.  1.
          2    1    1    2  501    0 -0.19349539252E+03  0.14951794674E+02  0.16636183047E+04  0.16748999632E+04  0.00000000000E+00 0.  1.
<scales pt_clust_3="31.17696" pt_clust_4="31.17696" pt_clust_5="33.73697" pt_clust_6="194.56491"></scales>
<clustering>
<clus scale="   31.177">  3  4 -1 -1</clus>
<clus scale="   33.737">  2  5  1 -1</clus>
<clus scale="  194.565">  1  6  2 -1</clus>
<clus scale="   33.737">  2  3  1 -1</clus>
</clustering>
</event>
<event>
 6    0  0.4945982E+002  0.1030809E+03  0.7546771E-02  0.1273947E+00
         21   -1    0    0  501  502  0.00000000000E+00  0.00000000000E+00  0.98859103063E+03  0.98859103063E+03  0.00000000000E+00 0.  1.
          1   -1    0    0  503    0 -0.00000000000E+00 -0.00000000000E+00 -0.15056171888E+04  0.15056171888E+04  0.00000000000E+00 0.  1.
         21    1    1    2  503  504  0.33368726922E+01 -0.35100368277E+02 -0.11044731773E+02  0.36948026639E+02  0.00000000000E+00 0.  1.
         21    1    1    2  504  505 -0.78160416062E+02 -0.31547486892E+02 -0.21064263547E+03  0.22688017641E+03  0.00000000000E+00 0.  1.
         21    1    1    2  505  502  0.76877748008E+01 -0.10266044415E+03  0.95818203067E+03  0.96369656665E+03  0.00000000000E+00 0.  1.
          1    1    1    2  501    0  0.67135768569E+02  0.16930829932E+03 -0.12535208216E+04  0.12666834498E+04  0.00000000000E+00 0.  1.
<scales pt_clust_3="35.25862" pt_clust_4="85.91492" pt_clust_5="103.08095" pt_clust_6="14000.00000"></scales>
<clustering>
<clus scale="   35.259">  2  3  1 -1</clus>
<clus scale="   85.915">  2  4  1 -1</clus>
<clus scale="  103.081">  1  5  2 -1</clus>
<clus scale="  103.081">  1  3  2 -1</clus>
</clustering>
</event>
<event>
 6    0  0.4945982E+002  0.2536386E+03  0.7546771E-02  0.1111027E+00
         -1   -1    0    0    0  501 -0.00000000000E+00  0.00000000000E+00  0.56321184842E+03  0.56321184842E+03  0.00000000000E+00 0.  1.
         21   -1    0    0  504  502  0.00000000000E+00 -0.00000000000E+00 -0.32286224317E+03  0.32286224317E+03  0.00000000000E+00 0.  1.
         21    1    1    2  503  502  0.98451391575E+02  0.25996066010E+02  0.72977567710E+01  0.10208687087E+03  0.00000000000E+00 0.  1.
         21    1    1    2  504  501  0.14261707761E+03 -0.42844598805E+02 -0.15128810749E+03  0.21228137445E+03  0.00000000000E+00 0.  1.
         21    1    1    2  505  503  0.27448423919E+02  0.77892479378E+02 -0.17642546656E+02  0.84450658800E+02  0.00000000000E+00 0.  1.
         -1    1    1    2    0  505 -0.26851689311E+03 -0.61043946584E+02  0.40198250262E+03  0.48725518746E+03  0.00000000000E+00 0.  1.
<scales pt_clust_3="80.78080" pt_clust_4="148.91370" pt_clust_5="80.78080" pt_clust_6="237.24864"></scales>
<clustering>
<clus scale="   80.781">  3  5 -1 -1</clus>
<clus scale="  148.914">  2  4  1 -1</clus>
<clus scale="  237.249">  1  6  2 -1</clus>
<clus scale="  148.914">  2  3  1 -1</clus>
</clustering>
</event>
<event>
 6    0  0.4945982E+002  0.9767023E+02  0.7546771E-02  0.1285273E+00
         21   -1    0    0  504  502  0.00000000000E+00  0.00000000000E+00  0.18923489926E+02  0.18923489926E+02  0.00000000000E+00 0. -1.
          2   -1    0    0  505    0 -0.00000000000E+00 -0.00000000000E+00 -0.30944198275E+04  0.30944198275E+04  0.00000000000E+00 0. -1.
         21    1    1    2  503  502 -0.54410133093E+02  0.40404344166E+00 -0.76943676559E+02  0.94238820009E+02  0.00000000000E+00 0. -1.
         21    1    1    2  504  501  0.13083162727E+03 -0.40525473570E+02 -0.58397655599E+03  0.59982317949E+03  0.00000000000E+00 0. -1.
         21    1    1    2  505  503 -0.96744156940E+01 -0.34458648429E+02 -0.26880702210E+03  0.27117929106E+03  0.00000000000E+00 0. -1.
          2    1    1    2  501    0 -0.66747078481E+02  0.74580078558E+02 -0.21457690830E+04  0.21481020269E+04  0.00000000000E+00 0. -1.
<scales pt_clust_3="54.70705" pt_clust_4="14000.00000" pt_clust_5="35.79096" pt_clust_6="97.67023"></scales>
<clustering>
<clus scale="   35.791">  2  5  1 -1</clus>
<clus scale="   54.707">  1  3  2 -1</clus>
<clus scale="   97.670">  2  6  1 -1</clus>
<clus scale="   54.707">  1  3  2 -1</clus>
</clustering>
</event>
<event>
 6    0  0.4945982E+002  0.1532343E+03  0.7546771E-02  0.1196554E+00
         21   -1    0    0  501  502  0.00000000000E+00  0.00000000000E+00  0.13129572313E+03  0.13129572313E+03  0.00000000000E+00 0. -1.
          2   -1    0    0  503    0 -0.00000000000E+00 -0.00000000000E+00 -0.17996889451E+04  0.17996889451E+04  0.00000000000E+00 0. -1.
         21    1    1    2  503  505  0.13063908300E+02  0.85113893363E+02  0.77306481759E+02  0.11572092579E+03  0.00000000000E+00 0. -1.
         21    1    1    2  504  502  0.10471553770E+02  0.38515407817E+02 -0.22049237765E+02  0.45598892132E+02  0.00000000000E+00 0.  1.
         21    1    1    2  505  504  0.32594442397E+02  0.21652868559E+02 -0.13990370276E+00  0.39131368045E+02  0.00000000000E+00 0. -1.
          2    1    1    2  501    0 -0.56129904467E+02 -0.14528216974E+03 -0.17235105623E+04  0.17305334823E+04  0.00000000000E+00 0. -1.
<scales pt_clust_3="153.23431" pt_clust_4="81.77322" pt_clust_5="34.47027" pt_clust_6="14000.00000"></scales>
<clustering>
<clus scale="   34.470">  4  5 -1 -1</clus>
<clus scale="   81.773">  1  4  2 -1</clus>
<clus scale="  153.234">  1  3  2 -1</clus>
<clus scale="   81.773">  1  3  2 -1</clus>
</clustering>
</event>
<event>
 6    0  0.4945982E+002  0.8710023E+02  0.7546771E-02  0.1310030E+00
          2   -1    0    0  503    0 -0.00000000000E+00  0.00000000000E+00  0.12043531313E+04  0.12043531313E+04  0.00000000000E+00 0. -1.
         21   -1    0    0  505  502  0.00000000000E+00 -0.00000000000E+00 -0.14608408662E+03  0.14608408662E+03  0.00000000000E+00 0. -1.
         21    1    1    2  503  502 -0.32869622433E+02  0.14536146207E+02 -0.16043101248E+02  0.39358515255E+02  0.00000000000E+00 0. -1.
         21    1    1    2  504  501 -0.58846607627E+02  0.81142496663E+02  0.29998441359E+02  0.10462759903E+03  0.00000000000E+00 0. -1.
         21    1    1    2  505  504  0.71552971328E+02 -0.71520256916E+02 -0.49191343880E+02  0.11249339166E+03  0.00000000000E+00 0. -1.
          2    1    1    2  501    0  0.20163258732E+02 -0.24158385953E+02  0.10935050484E+04  0.10939577119E+04  0.00000000000E+00 0. -1.
<scales pt_clust_3="33.00009" pt_clust_4="87.10023" pt_clust_5="14000.00000" pt_clust_6="31.46720"></scales>
<clustering>
<clus scale="   31.467">  1  6  2 -1</clus>
<clus scale="   33.000">  2  3  1 -1</clus>
<clus scale="   87.100">  1  4  2 -1</clus>
<clus scale="   33.000">  2  3  1 -1</clus>
</clustering>
</event>
