<event>
 5    0  0.5612316E-005  0.2657843E+03  0.7546771E-02  0.1103717E+00
         21   -1    0    0  502  501  0.00000000000E+00  0.00000000000E+00  0.15598463320E+03  0.15598463320E+03  0.00000000000E+00 0.  1.
         21   -1    0    0  501  502 -0.00000000000E+00 -0.00000000000E+00 -0.45287358433E+03  0.45287358433E+03  0.00000000000E+00 0.  1.
         25    1    1    2    0    0  0.23886581725E+02  0.86365649784E+02 -0.17166742604E+02  0.15475558568E+03  0.12500000000E+03 0.  0.
         25    1    1    2    0    0  0.89977868765E+02 -0.79991005751E+02 -0.20646953328E+03  0.26972068153E+03  0.12500000000E+03 0.  0.
         25    1    1    2    0    0 -0.11386445049E+03 -0.63746440323E+01 -0.73252675241E+02  0.18438195032E+03  0.12500000000E+03 0.  0.
</event>
<event>
 5    0  0.5612316E-005  0.2610883E+03  0.7546771E-02  0.1106491E+00
         21   -1    0    0  502  501  0.00000000000E+00  0.00000000000E+00  0.71077665162E+02  0.71077665162E+02  0.00000000000E+00 0.  1.
         21   -1    0    0  501  502 -0.00000000000E+00 -0.00000000000E+00 -0.95905061288E+03  0.95905061288E+03  0.00000000000E+00 0.  1.
         25    1    1    2    0    0 -0.33822634936E+02 -0.44152920800E+02 -0.21356834458E+03  0.25363337488E+03  0.12500000000E+03 0.  0.
         25    1    1    2    0    0 -0.33549472305E+02  0.26528552436E+02 -0.60162440545E+03  0.61595962239E+03  0.12500000000E+03 0.  0.
         25    1    1    2    0    0  0.67372107242E+02  0.17624368364E+02 -0.72780197691E+02  0.16053528077E+03  0.12500000000E+03 0.  0.
</event>
<event>
 5    0  0.5612316E-005  0.3272119E+03  0.7546771E-02  0.1072377E+00
         21   -1    0    0  502  501  0.00000000000E+00  0.00000000000E+00  0.14716206813E+04  0.14716206813E+04  0.00000000000E+00 0.  1.
         21   -1    0    0  501  502 -0.00000000000E+00 -0.00000000000E+00 -0.72754911549E+02  0.72754911549E+02  0.00000000000E+00 0.  1.
         25    1    1    2    0    0 -0.82567840675E+02  0.17255089644E+03  0.20687262491E+03  0.30824104709E+03  0.12500000000E+03 0.  0.
         25    1    1    2    0    0  0.80174400059E+02 -0.71826126472E+02  0.53793305245E+03  0.56265788521E+03  0.12500000000E+03 0.  0.
         25    1    1    2    0    0  0.23934406162E+01 -0.10072476997E+03  0.65406009237E+03  0.67347666052E+03  0.12500000000E+03 0.  0.
</event>
<event>
 5    0  0.5612316E-005  0.3290868E+03  0.7546771E-02  0.1071542E+00
         21   -1    0    0  502  501  0.00000000000E+00  0.00000000000E+00  0.20307965488E+04  0.20307965488E+04  0.00000000000E+00 0. -1.
         21   -1    0    0  501  502 -0.00000000000E+00 -0.00000000000E+00 -0.53327916449E+02  0.53327916449E+02  0.00000000000E+00 0. -1.
         25    1    1    2    0    0 -0.15691223387E+03 -0.16991069434E+02  0.47696685377E+03  0.51771857720E+03  0.12500000000E+03 0.  0.
         25    1    1    2    0    0  0.88408155756E+02  0.12414082458E+03  0.34593564107E+03  0.39814998944E+03  0.12500000000E+03 0.  0.
         25    1    1    2    0    0  0.68504078114E+02 -0.10714975515E+03  0.11545661375E+04  0.11682558986E+04  0.12500000000E+03 0.  0.
</event>
<event>
 5    0  0.5612316E-005  0.4989299E+03  0.7546771E-02  0.1014059E+00
         21   -1    0    0  502  501  0.00000000000E+00  0.00000000000E+00  0.12675235591E+04  0.12675235591E+04  0.00000000000E+00 0. -1.
         21   -1    0    0  501  502 -0.00000000000E+00 -0.00000000000E+00 -0.19639163525E+03  0.19639163525E+03  0.00000000000E+00 0. -1.
         25    1    1    2    0    0  0.92313506154E+02 -0.62308816947E+02  0.17589154585E+03  0.24283123355E+03  0.12500000000E+03 0.  0.
         25    1    1    2    0    0 -0.35694448466E+03  0.27360101017E+03  0.45606852013E+03  0.65260276811E+03  0.12500000000E+03 0.  0.
         25    1    1    2    0    0  0.26463097851E+03 -0.21129219323E+03  0.43917185790E+03  0.56848119272E+03  0.12500000000E+03 0.  0.
</event>
<event>
 5    0  0.5612316E-005  0.2573133E+03  0.7546771E-02  0.1108768E+00
         21   -1    0    0  502  501  0.00000000000E+00  0.00000000000E+00  0.77261219819E+03  0.77261219819E+03  0.00000000000E+00 0. -1.
         21   -1    0    0  501  502 -0.00000000000E+00 -0.00000000000E+00 -0.85696482475E+02  0.85696482475E+02  0.00000000000E+00 0. -1.
         25    1    1    2    0    0 -0.13794677608E+01 -0.43876933437E+02  0.34940300431E+03  0.37367706331E+03  0.12500000000E+03 0.  0.
         25    1    1    2    0    0 -0.71715490671E+02 -0.33640397659E+02  0.55062037035E+02  0.15789748535E+03  0.12500000000E+03 0.  0.
         25    1    1    2    0    0  0.73094958432E+02  0.77517331096E+02  0.28245067437E+03  0.32673413201E+03  0.12500000000E+03 0.  0.
</event>
<event>
 5    0  0.5612316E-005  0.3571241E+03  0.7546771E-02  0.1059728E+00
         21   -1    0    0  502  501  0.00000000000E+00  0.00000000000E+00  0.10429424525E+03  0.10429424525E+03  0.00000000000E+00 0. -1.
         21   -1    0    0  501  502 -0.00000000000E+00 -0.00000000000E+00 -0.12228631982E+04  0.12228631982E+04  0.00000000000E+00 0. -1.
         25    1    1    2    0    0  0.13218124276E+03 -0.46959906876E+02 -0.52593124498E+03  0.55848526233E+03  0.12500000000E+03 0.  0.
         25    1    1    2    0    0 -0.59842672718E+02 -0.12563226867E+03 -0.70145342737E+02  0.19977482703E+03  0.12500000000E+03 0.  0.
         25    1    1    2    0    0 -0.72338570043E+02  0.17259217554E+03 -0.52249236524E+03  0.56889735410E+03  0.12500000000E+03 0.  0.
</event>
<event>
 5    0  0.5612316E-005  0.3014187E+03  0.7546771E-02  0.1084534E+00
         21   -1    0    0  502  501  0.00000000000E+00  0.00000000000E+00  0.55603573385E+03  0.55603573385E+03  0.00000000000E+00 0.  1.
         21   -1    0    0  501  502 -0.00000000000E+00 -0.00000000000E+00 -0.16339455503E+03  0.16339455503E+03  0.00000000000E+00 0.  1.
         25    1    1    2    0    0  0.21313074974E+03  0.15052105754E+02  0.18019613234E+03  0.30618120204E+03  0.12500000000E+03 0.  0.
         25    1    1    2    0    0 -0.42476649911E+02 -0.13665024595E+02  0.35318425009E+02  0.13734405641E+03  0.12500000000E+03 0.  0.
         25    1    1    2    0    0 -0.17065409983E+03 -0.13870811590E+01  0.17712662147E+03  0.27590503043E+03  0.12500000000E+03 0.  0.
</event>
<event>
 5    0  0.6426613E-005  0.2959321E+03  0.7546771E-02  0.1087292E+00
         21   -1    0    0  502  501  0.00000000000E+00  0.00000000000E+00  0.36215705697E+03  0.36215705697E+03  0.00000000000E+00 0. -1.
         21   -1    0    0  501  502 -0.00000000000E+00 -0.00000000000E+00 -0.24181725366E+03  0.24181725366E+03  0.00000000000E+00 0. -1.
         25    1    1    2    0    0 -0.45100847768E+02  0.56662402808E+02 -0.15336186938E+02  0.14527530069E+03  0.12500000000E+03 0.  0.
         25    1    1    2    0    0 -0.14859634086E+02 -0.14122333358E+03  0.20779541751E+03  0.28101383277E+03  0.12500000000E+03 0.  0.
         25    1    1    2    0    0  0.59960481854E+02  0.84560930770E+02 -0.72119427260E+02  0.17768517717E+03  0.12500000000E+03 0.  0.
</event>
<event>
 5    0  0.5612316E-005  0.3518819E+03  0.7546771E-02  0.1061845E+00
         21   -1    0    0  502  501  0.00000000000E+00  0.00000000000E+00  0.20225103286E+03  0.20225103286E+03  0.00000000000E+00 0. -1.
         21   -1    0    0  501  502 -0.00000000000E+00 -0.00000000000E+00 -0.61221383178E+03  0.61221383178E+03  0.00000000000E+00 0. -1.
         25    1    1    2    0    0  0.29283731284E+02  0.12227004270E+03 -0.15636939612E+03  0.23639773329E+03  0.12500000000E+03 0.  0.
         25    1    1    2    0    0 -0.15367254321E+03 -0.19142896862E+03 -0.27277792225E+03  0.38767653454E+03  0.12500000000E+03 0.  0.
         25    1    1    2    0    0  0.12438881193E+03  0.69158925924E+02  0.19184519464E+02  0.19039059681E+03  0.12500000000E+03 0.  0.
</event>
<event>
 5    0  0.5612316E-005  0.5833358E+03  0.7546771E-02  0.9940595E-01
         21   -1    0    0  502  501  0.00000000000E+00  0.00000000000E+00  0.50999551343E+03  0.50999551343E+03  0.00000000000E+00 0. -1.
         21   -1    0    0  501  502 -0.00000000000E+00 -0.00000000000E+00 -0.66722291752E+03  0.66722291752E+03  0.00000000000E+00 0. -1.
         25    1    1    2    0    0  0.29553523582E+03  0.86368152952E+02 -0.42494580813E+03  0.53944830457E+03  0.12500000000E+03 0.  0.
         25    1    1    2    0    0 -0.37383291197E+03 -0.14011217725E+03  0.16252581468E+03  0.44880074501E+03  0.12500000000E+03 0.  0.
         25    1    1    2    0    0  0.78297676143E+02  0.53744024294E+02  0.10519258936E+03  0.18896938136E+03  0.12500000000E+03 0.  0.
</event>
<event>
 5    0  0.5612316E-005  0.2941519E+03  0.7546771E-02  0.1088201E+00
         21   -1    0    0  502  501  0.00000000000E+00  0.00000000000E+00  0.57100912113E+03  0.57100912113E+03  0.00000000000E+00 0.  1.
         21   -1    0    0  501  502 -0.00000000000E+00 -0.00000000000E+00 -0.15153056060E+03  0.15153056060E+03  0.00000000000E+00 0.  1.
         25    1    1    2    0    0  0.16819230849E+03 -0.43157069641E+02  0.22750795851E+03  0.31230763116E+03  0.12500000000E+03 0.  0.
         25    1    1    2    0    0 -0.19467809244E+03  0.16271542249E+02  0.11971470045E+03  0.26099987024E+03  0.12500000000E+03 0.  0.
         25    1    1    2    0    0  0.26485783948E+02  0.26885527393E+02  0.72255901570E+02  0.14923218033E+03  0.12500000000E+03 0.  0.
</event>
<event>
 5    0  0.5612316E-005  0.2765878E+03  0.7546771E-02  0.1097567E+00
         21   -1    0    0  502  501  0.00000000000E+00  0.00000000000E+00  0.31471889617E+03  0.31471889617E+03  0.00000000000E+00 0.  1.
         21   -1    0    0  501  502 -0.00000000000E+00 -0.00000000000E+00 -0.24307672176E+03  0.24307672176E+03  0.00000000000E+00 0.  1.
         25    1    1    2    0    0 -0.35296942127E+02  0.26541899267E+02 -0.64173644069E+02  0.14728748465E+03  0.12500000000E+03 0.  0.
         25    1    1    2    0    0  0.25783570944E+02 -0.11076753397E+03 -0.45031358940E+02  0.17489157327E+03  0.12500000000E+03 0.  0.
         25    1    1    2    0    0  0.95133711829E+01  0.84225634705E+02  0.18084717742E+03  0.23561656002E+03  0.12500000000E+03 0.  0.
</event>
<event>
 5    0  0.5612316E-005  0.3161671E+03  0.7546771E-02  0.1077427E+00
         21   -1    0    0  502  501  0.00000000000E+00  0.00000000000E+00  0.40499053334E+02  0.40499053334E+02  0.00000000000E+00 0. -1.
         21   -1    0    0  501  502 -0.00000000000E+00 -0.00000000000E+00 -0.24682467615E+04  0.24682467615E+04  0.00000000000E+00 0. -1.
         25    1    1    2    0    0  0.68849481298E+02  0.21039655199E+02 -0.68438502420E+03  0.69942174653E+03  0.12500000000E+03 0.  0.
         25    1    1    2    0    0 -0.88640063223E+01 -0.42442870646E+02 -0.16110773963E+04  0.16165009572E+04  0.12500000000E+03 0.  0.
         25    1    1    2    0    0 -0.59985474975E+02  0.21403215446E+02 -0.13228528775E+03  0.19282311115E+03  0.12500000000E+03 0.  0.
</event>
<event>
 5    0  0.5612316E-005  0.3526694E+03  0.7546771E-02  0.1061525E+00
         21   -1    0    0  502  501  0.00000000000E+00  0.00000000000E+00  0.11361688794E+03  0.11361688794E+03  0.00000000000E+00 0.  1.
         21   -1    0    0  501  502 -0.00000000000E+00 -0.00000000000E+00 -0.10946940657E+04  0.10946940657E+04  0.00000000000E+00 0.  1.
         25    1    1    2    0    0 -0.63063326953E+02  0.97013694578E+02 -0.78472006254E+03  0.80299390825E+03  0.12500000000E+03 0.  0.
         25    1    1    2    0    0 -0.13138539557E+02 -0.15194062498E+03 -0.12477158015E+03  0.23334849893E+03  0.12500000000E+03 0.  0.
         25    1    1    2    0    0  0.76201866509E+02  0.54926930399E+02 -0.71585535078E+02  0.17196854647E+03  0.12500000000E+03 0.  0.
</event>
<event>
 5    0  0.5655975E-005  0.2724226E+03  0.7546771E-02  0.1099901E+00
         21   -1    0    0  502  501  0.00000000000E+00  0.00000000000E+00  0.29457385666E+03  0.29457385666E+03  0.00000000000E+00 0.  1.
         21   -1    0    0  501  502 -0.00000000000E+00 -0.00000000000E+00 -0.25193701720E+03  0.25193701720E+03  0.00000000000E+00 0.  1.
         25    1    1    2    0    0  0.63291650832E+02 -0.16994146238E+03  0.43284586489E+02  0.22446489509E+03  0.12500000000E+03 0.  0.
         25    1    1    2    0    0 -0.81652505943E+01  0.83439969248E+02  0.39152753186E+02  0.15552118141E+03  0.12500000000E+03 0.  0.
         25    1    1    2    0    0 -0.55126400238E+02  0.86501493132E+02 -0.39800500213E+02  0.16652479736E+03  0.12500000000E+03 0.  0.
</event>
<event>
 5    0  0.5612316E-005  0.3177151E+03  0.7546771E-02  0.1076706E+00
         21   -1    0    0  502  501  0.00000000000E+00  0.00000000000E+00  0.32194614910E+03  0.32194614910E+03  0.00000000000E+00 0. -1.
         21   -1    0    0  501  502 -0.00000000000E+00 -0.00000000000E+00 -0.31353966815E+03  0.31353966815E+03  0.00000000000E+00 0. -1.
         25    1    1    2    0    0  0.96057536013E+02  0.19365630394E+03 -0.32421254551E+02  0.25180538522E+03  0.12500000000E+03 0.  0.
         25    1    1    2    0    0 -0.13824571540E+03 -0.78768975361E+02  0.50252926376E+02  0.20848689627E+03  0.12500000000E+03 0.  0.
         25    1    1    2    0    0  0.42188179386E+02 -0.11488732858E+03 -0.94251908763E+01  0.17519353576E+03  0.12500000000E+03 0.  0.
</event>
<event>
 5    0  0.5612316E-005  0.2944593E+03  0.7546771E-02  0.1088044E+00
         21   -1    0    0  502  501  0.00000000000E+00  0.00000000000E+00  0.72194623468E+03  0.72194623468E+03  0.00000000000E+00 0. -1.
         21   -1    0    0  501  502 -0.00000000000E+00 -0.00000000000E+00 -0.12010075912E+03  0.12010075912E+03  0.00000000000E+00 0. -1.
         25    1    1    2    0    0 -0.14103192419E+03 -0.16243246057E+02  0.30015217832E+03  0.35478187218E+03  0.12500000000E+03 0.  0.
         25    1    1    2    0    0  0.10228803555E+03 -0.21707852675E+02  0.31055526781E+03  0.35071875834E+03  0.12500000000E+03 0.  0.
         25    1    1    2    0    0  0.38743888639E+02  0.37951098732E+02 -0.88619705721E+01  0.13654636328E+03  0.12500000000E+03 0.  0.
</event>
<event>
 5    0  0.5612316E-005  0.3227775E+03  0.7546771E-02  0.1074378E+00
         21   -1    0    0  502  501  0.00000000000E+00  0.00000000000E+00  0.33143002107E+03  0.33143002107E+03  0.00000000000E+00 0.  1.
         21   -1    0    0  501  502 -0.00000000000E+00 -0.00000000000E+00 -0.31435088178E+03  0.31435088178E+03  0.00000000000E+00 0.  1.
         25    1    1    2    0    0 -0.54970974755E+02  0.71683985303E+02  0.23361926034E+03  0.27993456488E+03  0.12500000000E+03 0.  0.
         25    1    1    2    0    0 -0.64394696334E+01 -0.89641919847E+02 -0.10258156576E+03  0.18500031945E+03  0.12500000000E+03 0.  0.
         25    1    1    2    0    0  0.61410444389E+02  0.17957934543E+02 -0.11395855529E+03  0.18084601852E+03  0.12500000000E+03 0.  0.
</event>
<event>
 5    0  0.5612316E-005  0.3008934E+03  0.7546771E-02  0.1084795E+00
         21   -1    0    0  502  501  0.00000000000E+00  0.00000000000E+00  0.17701478191E+04  0.17701478191E+04  0.00000000000E+00 0. -1.
         21   -1    0    0  501  502 -0.00000000000E+00 -0.00000000000E+00 -0.51146470275E+02  0.51146470275E+02  0.00000000000E+00 0.  1.
         25    1    1    2    0    0 -0.17824747877E+03  0.62913265327E+02  0.87293691043E+03  0.90187254767E+03  0.12500000000E+03 0.  0.
         25    1    1    2    0    0  0.57640292153E+02  0.17646372031E+02  0.18549137568E+03  0.23165890481E+03  0.12500000000E+03 0.  0.
         25    1    1    2    0    0  0.12060718662E+03 -0.80559637357E+02  0.66057306268E+03  0.68776283686E+03  0.12500000000E+03 0.  0.
</event>
<event>
 5    0  0.5612316E-005  0.2899590E+03  0.7546771E-02  0.1090371E+00
         21   -1    0    0  502  501  0.00000000000E+00  0.00000000000E+00  0.13742797912E+04  0.13742797912E+04  0.00000000000E+00 0.  1.
         21   -1    0    0  501  502 -0.00000000000E+00 -0.00000000000E+00 -0.61178401352E+02  0.61178401352E+02  0.00000000000E+00 0.  1.
         25    1    1    2    0    0  0.17151399330E+02 -0.67868085404E+02  0.11484475358E+03  0.18361526336E+03  0.12500000000E+03 0.  0.
         25    1    1    2    0    0 -0.13113014279E+03  0.39732386336E+01  0.57397662331E+03  0.60190120874E+03  0.12500000000E+03 0.  0.
         25    1    1    2    0    0  0.11397874346E+03  0.63894846770E+02  0.62428001298E+03  0.64994172048E+03  0.12500000000E+03 0.  0.
</event>
<event>
 5    0  0.5612316E-005  0.2333683E+03  0.7546771E-02  0.1124291E+00
         21   -1    0    0  502  501  0.00000000000E+00  0.00000000000E+00  0.22481039031E+03  0.22481039031E+03  0.00000000000E+00 0.  1.
         21   -1    0    0  501  502 -0.00000000000E+00 -0.00000000000E+00 -0.24225205472E+03  0.24225205472E+03  0.00000000000E+00 0.  1.
         25    1    1    2    0    0 -0.65331446788E+02 -0.26823226266E+02 -0.68168200277E+02  0.15893264906E+03  0.12500000000E+03 0.  0.
         25    1    1    2    0    0  0.59981392708E+02 -0.23675621983E+02 -0.39166849871E+02  0.14600460498E+03  0.12500000000E+03 0.  0.
         25    1    1    2    0    0  0.53500540797E+01  0.50498848249E+02  0.89893385740E+02  0.16212519099E+03  0.12500000000E+03 0.  0.
</event>
<event>
 5    0  0.5612316E-005  0.4322674E+03  0.7546771E-02  0.1033146E+00
         21   -1    0    0  502  501  0.00000000000E+00  0.00000000000E+00  0.20568950792E+03  0.20568950792E+03  0.00000000000E+00 0.  1.
         21   -1    0    0  501  502 -0.00000000000E+00 -0.00000000000E+00 -0.90843270893E+03  0.90843270893E+03  0.00000000000E+00 0.  1.
         25    1    1    2    0    0  0.46377686550E+02  0.20549615966E+02  0.11736632690E+03  0.17881004227E+03  0.12500000000E+03 0.  0.
         25    1    1    2    0    0  0.87389394550E+02  0.13298165131E+03 -0.28758885224E+03  0.35164381666E+03  0.12500000000E+03 0.  0.
         25    1    1    2    0    0 -0.13376708110E+03 -0.15353126728E+03 -0.53252067568E+03  0.58366835792E+03  0.12500000000E+03 0.  0.
</event>
<event>
 5    0  0.5612316E-005  0.2449822E+03  0.7546771E-02  0.1116518E+00
         21   -1    0    0  502  501  0.00000000000E+00  0.00000000000E+00  0.64282609342E+03  0.64282609342E+03  0.00000000000E+00 0.  1.
         21   -1    0    0  501  502 -0.00000000000E+00 -0.00000000000E+00 -0.93363147684E+02  0.93363147684E+02  0.00000000000E+00 0.  1.
         25    1    1    2    0    0  0.13166654290E+03 -0.38052506984E+02  0.28299917521E+03  0.33837494732E+03  0.12500000000E+03 0.  0.
         25    1    1    2    0    0 -0.85830610498E+02  0.52593376276E+02  0.12918760508E+03  0.20602765405E+03  0.12500000000E+03 0.  0.
         25    1    1    2    0    0 -0.45835932407E+02 -0.14540869292E+02  0.13727616544E+03  0.19178663973E+03  0.12500000000E+03 0.  0.
</event>
<event>
 5    0  0.5612316E-005  0.6870725E+03  0.7546771E-02  0.9739599E-01
         21   -1    0    0  502  501  0.00000000000E+00  0.00000000000E+00  0.51472352751E+03  0.51472352751E+03  0.00000000000E+00 0.  1.
         21   -1    0    0  501  502 -0.00000000000E+00 -0.00000000000E+00 -0.91713046083E+03  0.91713046083E+03  0.00000000000E+00 0.  1.
         25    1    1    2    0    0 -0.28996392897E+03  0.35223403701E+03 -0.20750217072E+03  0.51655594836E+03  0.12500000000E+03 0.  0.
         25    1    1    2    0    0  0.23274655274E+03  0.16352774939E+03  0.71374070837E+02  0.31879702104E+03  0.12500000000E+03 0.  0.
         25    1    1    2    0    0  0.57217376232E+02 -0.51576178641E+03 -0.26627883343E+03  0.59650101894E+03  0.12500000000E+03 0.  0.
</event>
<event>
 5    0  0.5612316E-005  0.2444405E+03  0.7546771E-02  0.1116870E+00
         21   -1    0    0  502  501  0.00000000000E+00  0.00000000000E+00  0.11265309723E+04  0.11265309723E+04  0.00000000000E+00 0.  1.
         21   -1    0    0  501  502 -0.00000000000E+00 -0.00000000000E+00 -0.53039948407E+02  0.53039948407E+02  0.00000000000E+00 0.  1.
         25    1    1    2    0    0 -0.43076757610E+02 -0.98013491009E+02  0.19364639552E+03  0.25413810805E+03  0.12500000000E+03 0.  0.
         25    1    1    2    0    0  0.29700332223E+02  0.43616812890E+02  0.58190048076E+03  0.59750958621E+03  0.12500000000E+03 0.  0.
         25    1    1    2    0    0  0.13376425387E+02  0.54396678119E+02  0.29794414758E+03  0.32792322642E+03  0.12500000000E+03 0.  0.
</event>
<event>
 5    0  0.5612316E-005  0.3048274E+03  0.7546771E-02  0.1082852E+00
         21   -1    0    0  502  501  0.00000000000E+00  0.00000000000E+00  0.18513075646E+03  0.18513075646E+03  0.00000000000E+00 0. -1.
         21   -1    0    0  501  502 -0.00000000000E+00 -0.00000000000E+00 -0.50191415924E+03  0.50191415924E+03  0.00000000000E+00 0. -1.
         25    1    1    2    0    0  0.91910078558E+02  0.34452807100E+02  0.17641789116E+02  0.15990838371E+03  0.12500000000E+03 0.  0.
         25    1    1    2    0    0 -0.20101839640E+03 -0.24013663424E+02 -0.16346646244E+03  0.28867167520E+03  0.12500000000E+03 0.  0.
         25    1    1    2    0    0  0.10910831784E+03 -0.10439143676E+02 -0.17095872946E+03  0.23846485679E+03  0.12500000000E+03 0.  0.
</event>
<event>
 5    0  0.5612316E-005  0.2206705E+03  0.7546771E-02  0.1133384E+00
         21   -1    0    0  502  501  0.00000000000E+00  0.00000000000E+00  0.19864773552E+03  0.19864773552E+03  0.00000000000E+00 0.  1.
         21   -1    0    0  501  502 -0.00000000000E+00 -0.00000000000E+00 -0.24513484445E+03  0.24513484445E+03  0.00000000000E+00 0.  1.
         25    1    1    2    0    0 -0.51257049403E+02  0.41430235728E+02  0.36017482399E+02  0.14582869603E+03  0.12500000000E+03 0.  0.
         25    1    1    2    0    0 -0.37427203739E+01 -0.33022839538E+02 -0.95115427405E+02  0.16055049180E+03  0.12500000000E+03 0.  0.
         25    1    1    2    0    0  0.54999769777E+02 -0.84073961897E+01  0.12610836079E+02  0.13740339214E+03  0.12500000000E+03 0.  0.
</event>
<event>
 5    0  0.5737106E-005  0.2573886E+03  0.7546771E-02  0.1108722E+00
         21   -1    0    0  502  501  0.00000000000E+00  0.00000000000E+00  0.97445348331E+03  0.97445348331E+03  0.00000000000E+00 0. -1.
         21   -1    0    0  501  502 -0.00000000000E+00 -0.00000000000E+00 -0.67985694322E+02  0.67985694322E+02  0.00000000000E+00 0. -1.
         25    1    1    2    0    0 -0.10360699694E+03 -0.59509813718E+02  0.22099804682E+03  0.28060820451E+03  0.12500000000E+03 0.  0.
         25    1    1    2    0    0  0.66487026606E+02  0.30601890666E+02  0.56052263430E+03  0.57893663209E+03  0.12500000000E+03 0.  0.
         25    1    1    2    0    0  0.37119970334E+02  0.28907923052E+02  0.12494710787E+03  0.18289434103E+03  0.12500000000E+03 0.  0.
</event>
<event>
 5    0  0.5612316E-005  0.5195698E+03  0.7546771E-02  0.1008793E+00
         21   -1    0    0  502  501  0.00000000000E+00  0.00000000000E+00  0.91742201974E+03  0.91742201974E+03  0.00000000000E+00 0. -1.
         21   -1    0    0  501  502 -0.00000000000E+00 -0.00000000000E+00 -0.29425146960E+03  0.29425146960E+03  0.00000000000E+00 0. -1.
         25    1    1    2    0    0 -0.24988714894E+02  0.40542859028E+03  0.19472463141E+03  0.46748204219E+03  0.12500000000E+03 0.  0.
         25    1    1    2    0    0  0.13781846571E+03 -0.14843348498E+03  0.28298878123E+02  0.23969200124E+03  0.12500000000E+03 0.  0.
         25    1    1    2    0    0 -0.11282975082E+03 -0.25699510530E+03  0.40014704060E+03  0.50449944591E+03  0.12500000000E+03 0.  0.
</event>
<event>
 5    0  0.5612316E-005  0.2631523E+03  0.7546771E-02  0.1105264E+00
         21   -1    0    0  502  501  0.00000000000E+00  0.00000000000E+00  0.30340631067E+03  0.30340631067E+03  0.00000000000E+00 0. -1.
         21   -1    0    0  501  502 -0.00000000000E+00 -0.00000000000E+00 -0.22823885205E+03  0.22823885205E+03  0.00000000000E+00 0. -1.
         25    1    1    2    0    0 -0.35659241614E+01  0.94434578946E+02 -0.17493641900E+02  0.15767572109E+03  0.12500000000E+03 0.  0.
         25    1    1    2    0    0  0.79691587101E+02  0.44071541673E+02  0.64264941513E+01  0.15478807986E+03  0.12500000000E+03 0.  0.
         25    1    1    2    0    0 -0.76125662940E+02 -0.13850612062E+03  0.86234606374E+02  0.21918136176E+03  0.12500000000E+03 0.  0.
</event>
<event>
 5    0  0.5612316E-005  0.6113748E+03  0.7546771E-02  0.9882084E-01
         21   -1    0    0  502  501  0.00000000000E+00  0.00000000000E+00  0.43130818654E+03  0.43130818654E+03  0.00000000000E+00 0.  1.
         21   -1    0    0  501  502 -0.00000000000E+00 -0.00000000000E+00 -0.86661736883E+03  0.86661736883E+03  0.00000000000E+00 0.  1.
         25    1    1    2    0    0 -0.34959080965E+03 -0.16457736806E+03 -0.42581160275E+03  0.58842158806E+03  0.12500000000E+03 0.  0.
         25    1    1    2    0    0  0.46436926899E+03  0.17182474874E+03 -0.94850150788E+02  0.51940746372E+03  0.12500000000E+03 0.  0.
         25    1    1    2    0    0 -0.11477845935E+03 -0.72473806809E+01  0.85352571248E+02  0.19009650359E+03  0.12500000000E+03 0.  0.
</event>
<event>
 5    0  0.5612316E-005  0.2200016E+03  0.7546771E-02  0.1133882E+00
         21   -1    0    0  502  501  0.00000000000E+00  0.00000000000E+00  0.44810691278E+02  0.44810691278E+02  0.00000000000E+00 0. -1.
         21   -1    0    0  501  502 -0.00000000000E+00 -0.00000000000E+00 -0.10801147630E+04  0.10801147630E+04  0.00000000000E+00 0. -1.
         25    1    1    2    0    0 -0.38115787383E+02 -0.41060848858E+02 -0.31463285227E+03  0.34315832830E+03  0.12500000000E+03 0.  0.
         25    1    1    2    0    0  0.52186180603E+02  0.82539698215E+02 -0.49830241707E+03  0.52294024332E+03  0.12500000000E+03 0.  0.
         25    1    1    2    0    0 -0.14070393220E+02 -0.41478849357E+02 -0.22236880236E+03  0.25882688263E+03  0.12500000000E+03 0.  0.
</event>
<event>
 5    0  0.5612316E-005  0.2942371E+03  0.7546771E-02  0.1088157E+00
         21   -1    0    0  502  501  0.00000000000E+00  0.00000000000E+00  0.20869411682E+03  0.20869411682E+03  0.00000000000E+00 0. -1.
         21   -1    0    0  501  502 -0.00000000000E+00 -0.00000000000E+00 -0.41484397990E+03  0.41484397990E+03  0.00000000000E+00 0. -1.
         25    1    1    2    0    0 -0.11880952551E+03  0.69529232136E+02 -0.33077397522E+02  0.18886273243E+03  0.12500000000E+03 0.  0.
         25    1    1    2    0    0  0.13656860305E+03  0.34263800295E+02  0.10888268761E+02  0.18859625062E+03  0.12500000000E+03 0.  0.
         25    1    1    2    0    0 -0.17759077545E+02 -0.10379303243E+03 -0.18396073432E+03  0.24607911368E+03  0.12500000000E+03 0.  0.
</event>
<event>
 5    0  0.5612316E-005  0.3623709E+03  0.7546771E-02  0.1057649E+00
         21   -1    0    0  502  501  0.00000000000E+00  0.00000000000E+00  0.29415764390E+03  0.29415764390E+03  0.00000000000E+00 0. -1.
         21   -1    0    0  501  502 -0.00000000000E+00 -0.00000000000E+00 -0.44640246903E+03  0.44640246903E+03  0.00000000000E+00 0. -1.
         25    1    1    2    0    0 -0.11935834743E+03  0.51581990426E+02 -0.26622864908E+02  0.18232085392E+03  0.12500000000E+03 0.  0.
         25    1    1    2    0    0 -0.52257504971E+02  0.18117152442E+03 -0.79763940673E+02  0.23987758194E+03  0.12500000000E+03 0.  0.
         25    1    1    2    0    0  0.17161585240E+03 -0.23275351485E+03 -0.45858019541E+02  0.31836167707E+03  0.12500000000E+03 0.  0.
</event>
<event>
 5    0  0.5612316E-005  0.4598643E+03  0.7546771E-02  0.1024821E+00
         21   -1    0    0  502  501  0.00000000000E+00  0.00000000000E+00  0.66239639059E+03  0.66239639059E+03  0.00000000000E+00 0.  1.
         21   -1    0    0  501  502 -0.00000000000E+00 -0.00000000000E+00 -0.31925778877E+03  0.31925778877E+03  0.00000000000E+00 0.  1.
         25    1    1    2    0    0  0.22468247407E+03 -0.19667785250E+03 -0.34448310192E+02  0.32553967176E+03  0.12500000000E+03 0.  0.
         25    1    1    2    0    0 -0.56276186196E+02 -0.97002903572E+02  0.70003069858E+02  0.18193955651E+03  0.12500000000E+03 0.  0.
         25    1    1    2    0    0 -0.16840628787E+03  0.29368075607E+03  0.30758384215E+03  0.47417495108E+03  0.12500000000E+03 0.  0.
</event>
<event>
 5    0  0.5612316E-005  0.3896626E+03  0.7546771E-02  0.1047419E+00
         21   -1    0    0  502  501  0.00000000000E+00  0.00000000000E+00  0.26811552614E+03  0.26811552614E+03  0.00000000000E+00 0.  1.
         21   -1    0    0  501  502 -0.00000000000E+00 -0.00000000000E+00 -0.56631166215E+03  0.56631166215E+03  0.00000000000E+00 0.  1.
         25    1    1    2    0    0  0.25094393257E+03  0.85294593166E+02 -0.75701227347E+02  0.30266103274E+03  0.12500000000E+03 0.  0.
         25    1    1    2    0    0 -0.95262314488E+02  0.86674408769E+01 -0.26388086127E+03  0.30725907967E+03  0.12500000000E+03 0.  0.
         25    1    1    2    0    0 -0.15568161808E+03 -0.93962034043E+02  0.41385952614E+02  0.22450707589E+03  0.12500000000E+03 0.  0.
</event>
<event>
 5    0  0.5612316E-005  0.2724525E+03  0.7546771E-02  0.1099884E+00
         21   -1    0    0  502  501  0.00000000000E+00  0.00000000000E+00  0.14396730715E+03  0.14396730715E+03  0.00000000000E+00 0.  1.
         21   -1    0    0  501  502 -0.00000000000E+00 -0.00000000000E+00 -0.51560572652E+03  0.51560572652E+03  0.00000000000E+00 0.  1.
         25    1    1    2    0    0  0.60594442640E+02 -0.62285380010E+02  0.21445397230E+02  0.15374023580E+03  0.12500000000E+03 0.  0.
         25    1    1    2    0    0 -0.54196204103E+02 -0.35665254025E+02 -0.10099829796E+03  0.17330578488E+03  0.12500000000E+03 0.  0.
         25    1    1    2    0    0 -0.63982385371E+01  0.97950634034E+02 -0.29208551864E+03  0.33252701298E+03  0.12500000000E+03 0.  0.
</event>
<event>
 5    0  0.5612316E-005  0.3163971E+03  0.7546771E-02  0.1077320E+00
         21   -1    0    0  502  501  0.00000000000E+00  0.00000000000E+00  0.48327180432E+03  0.48327180432E+03  0.00000000000E+00 0.  1.
         21   -1    0    0  501  502 -0.00000000000E+00 -0.00000000000E+00 -0.20714457400E+03  0.20714457400E+03  0.00000000000E+00 0.  1.
         25    1    1    2    0    0 -0.11888927498E+03  0.28084747506E+02 -0.98100193609E+02  0.20042969025E+03  0.12500000000E+03 0.  0.
         25    1    1    2    0    0 -0.20055511174E+02 -0.26537666594E+02  0.15681493010E+03  0.20327910266E+03  0.12500000000E+03 0.  0.
         25    1    1    2    0    0  0.13894478615E+03 -0.15470809119E+01  0.21741249382E+03  0.28670758540E+03  0.12500000000E+03 0.  0.
</event>
<event>
 5    0  0.5612316E-005  0.3134119E+03  0.7546771E-02  0.1078722E+00
         21   -1    0    0  502  501  0.00000000000E+00  0.00000000000E+00  0.11978418434E+03  0.11978418434E+03  0.00000000000E+00 0. -1.
         21   -1    0    0  501  502 -0.00000000000E+00 -0.00000000000E+00 -0.82003318454E+03  0.82003318454E+03  0.00000000000E+00 0. -1.
         25    1    1    2    0    0 -0.24741011895E+02 -0.10099187879E+03 -0.93878088397E+02  0.18774869569E+03  0.12500000000E+03 0.  0.
         25    1    1    2    0    0  0.52681038351E+02  0.55875556419E+02 -0.59830787560E+03  0.61603139824E+03  0.12500000000E+03 0.  0.
         25    1    1    2    0    0 -0.27940026456E+02  0.45116322375E+02 -0.80630362064E+01  0.13603727495E+03  0.12500000000E+03 0.  0.
</event>
<event>
 5    0  0.5612316E-005  0.3130419E+03  0.7546771E-02  0.1078897E+00
         21   -1    0    0  502  501  0.00000000000E+00  0.00000000000E+00  0.11660637198E+03  0.11660637198E+03  0.00000000000E+00 0.  1.
         21   -1    0    0  501  502 -0.00000000000E+00 -0.00000000000E+00 -0.84039371676E+03  0.84039371676E+03  0.00000000000E+00 0.  1.
         25    1    1    2    0    0 -0.46988101633E+01 -0.11439600850E+03 -0.20777411745E+03  0.26814848397E+03  0.12500000000E+03 0.  0.
         25    1    1    2    0    0  0.50206110771E+02  0.16260730444E+03 -0.72405173687E+02  0.22322477056E+03  0.12500000000E+03 0.  0.
         25    1    1    2    0    0 -0.45507300608E+02 -0.48211295942E+02 -0.44360805365E+03  0.46562683420E+03  0.12500000000E+03 0.  0.
</event>
<event>
 5    0  0.5612316E-005  0.3912084E+03  0.7546771E-02  0.1046867E+00
         21   -1    0    0  502  501  0.00000000000E+00  0.00000000000E+00  0.45509650555E+03  0.45509650555E+03  0.00000000000E+00 0.  1.
         21   -1    0    0  501  502 -0.00000000000E+00 -0.00000000000E+00 -0.33628906006E+03  0.33628906006E+03  0.00000000000E+00 0.  1.
         25    1    1    2    0    0  0.28454737247E+02 -0.33021948458E+02 -0.22430303023E+03  0.26045531387E+03  0.12500000000E+03 0.  0.
         25    1    1    2    0    0 -0.79984064097E+02  0.13819775504E+03  0.82191579625E+02  0.21880705146E+03  0.12500000000E+03 0.  0.
         25    1    1    2    0    0  0.51529326850E+02 -0.10517580658E+03  0.26091889609E+03  0.31212320028E+03  0.12500000000E+03 0.  0.
</event>
<event>
 5    0  0.5612316E-005  0.4349895E+03  0.7546771E-02  0.1032295E+00
         21   -1    0    0  502  501  0.00000000000E+00  0.00000000000E+00  0.40156692571E+03  0.40156692571E+03  0.00000000000E+00 0. -1.
         21   -1    0    0  501  502 -0.00000000000E+00 -0.00000000000E+00 -0.47119393204E+03  0.47119393204E+03  0.00000000000E+00 0. -1.
         25    1    1    2    0    0 -0.84449853109E+01 -0.25198913667E+03  0.32471862577E+02  0.28328301155E+03  0.12500000000E+03 0.  0.
         25    1    1    2    0    0  0.12386274236E+03  0.25336079302E+03  0.10094301149E+03  0.32457381588E+03  0.12500000000E+03 0.  0.
         25    1    1    2    0    0 -0.11541775705E+03 -0.13716563481E+01 -0.20304188040E+03  0.26490403032E+03  0.12500000000E+03 0.  0.
</event>
<event>
 5    0  0.5612316E-005  0.4073983E+03  0.7546771E-02  0.1041248E+00
         21   -1    0    0  502  501  0.00000000000E+00  0.00000000000E+00  0.12063877315E+03  0.12063877315E+03  0.00000000000E+00 0. -1.
         21   -1    0    0  501  502 -0.00000000000E+00 -0.00000000000E+00 -0.13757881800E+04  0.13757881800E+04  0.00000000000E+00 0. -1.
         25    1    1    2    0    0 -0.21107809605E+02  0.18752845053E+02 -0.11844992217E+04  0.11914111864E+04  0.12500000000E+03 0.  0.
         25    1    1    2    0    0  0.52666486168E+02  0.32477583550E+02 -0.88439388195E+02  0.16515168053E+03  0.12500000000E+03 0.  0.
         25    1    1    2    0    0 -0.31558676564E+02 -0.51230428603E+02  0.17789203030E+02  0.13986408626E+03  0.12500000000E+03 0.  0.
</event>
<event>
 5    0  0.5612316E-005  0.2375182E+03  0.7546771E-02  0.1121457E+00
         21   -1    0    0  502  501  0.00000000000E+00  0.00000000000E+00  0.49642905338E+02  0.49642905338E+02  0.00000000000E+00 0. -1.
         21   -1    0    0  501  502 -0.00000000000E+00 -0.00000000000E+00 -0.11364144553E+04  0.11364144553E+04  0.00000000000E+00 0. -1.
         25    1    1    2    0    0  0.72442546059E+02  0.86040252345E+02 -0.36024555567E+03  0.39755843330E+03  0.12500000000E+03 0.  0.
         25    1    1    2    0    0 -0.98079146928E+02 -0.57400787214E+02 -0.32613728392E+03  0.36729402037E+03  0.12500000000E+03 0.  0.
         25    1    1    2    0    0  0.25636600869E+02 -0.28639465131E+02 -0.40038871036E+03  0.42120490696E+03  0.12500000000E+03 0.  0.
</event>
<event>
 5    0  0.5612316E-005  0.2574333E+03  0.7546771E-02  0.1108695E+00
         21   -1    0    0  502  501  0.00000000000E+00  0.00000000000E+00  0.19371549168E+03  0.19371549168E+03  0.00000000000E+00 0.  1.
         21   -1    0    0  501  502 -0.00000000000E+00 -0.00000000000E+00 -0.34210954535E+03  0.34210954535E+03  0.00000000000E+00 0.  1.
         25    1    1    2    0    0 -0.46954858250E+02  0.11405739284E+03 -0.14990672701E+03  0.23089147749E+03  0.12500000000E+03 0.  0.
         25    1    1    2    0    0  0.30226956102E+02 -0.12370924492E+03  0.13724525485E+01  0.17845035662E+03  0.12500000000E+03 0.  0.
         25    1    1    2    0    0  0.16727902148E+02  0.96518520815E+01  0.14022079452E+00  0.12648320292E+03  0.12500000000E+03 0.  0.
</event>
<event>
 5    0  0.5612316E-005  0.2813913E+03  0.7546771E-02  0.1094931E+00
         21   -1    0    0  502  501  0.00000000000E+00  0.00000000000E+00  0.45998891373E+04  0.45998891373E+04  0.00000000000E+00 0.  1.
         21   -1    0    0  501  502 -0.00000000000E+00 -0.00000000000E+00 -0.17213690657E+02  0.17213690657E+02  0.00000000000E+00 0.  1.
         25    1    1    2    0    0 -0.29547988291E+01  0.45300941650E+02  0.15355721129E+04  0.15413200901E+04  0.12500000000E+03 0.  0.
         25    1    1    2    0    0 -0.20662163604E+02  0.13342662477E+03  0.18149181269E+04  0.18242210383E+04  0.12500000000E+03 0.  0.
         25    1    1    2    0    0  0.23616962433E+02 -0.17872756642E+03  0.12321852068E+04  0.12515616995E+04  0.12500000000E+03 0.  0.
</event>
<event>
 5    0  0.5612316E-005  0.2347126E+03  0.7546771E-02  0.1123366E+00
         21   -1    0    0  502  501  0.00000000000E+00  0.00000000000E+00  0.67433881704E+02  0.67433881704E+02  0.00000000000E+00 0. -1.
         21   -1    0    0  501  502 -0.00000000000E+00 -0.00000000000E+00 -0.81694834359E+03  0.81694834359E+03  0.00000000000E+00 0. -1.
         25    1    1    2    0    0 -0.10208474194E+03  0.24504384549E+02 -0.14989757434E+03  0.22162139380E+03  0.12500000000E+03 0.  0.
         25    1    1    2    0    0  0.36810327591E+02 -0.30643985016E+02 -0.21732642139E+03  0.25524464239E+03  0.12500000000E+03 0.  0.
         25    1    1    2    0    0  0.65274414348E+02  0.61396004665E+01 -0.38229046616E+03  0.40751618910E+03  0.12500000000E+03 0.  0.
</event>
<event>
 5    0  0.5612316E-005  0.3135197E+03  0.7546771E-02  0.1078671E+00
         21   -1    0    0  502  501  0.00000000000E+00  0.00000000000E+00  0.77875771761E+03  0.77875771761E+03  0.00000000000E+00 0.  1.
         21   -1    0    0  501  502 -0.00000000000E+00 -0.00000000000E+00 -0.12621971569E+03  0.12621971569E+03  0.00000000000E+00 0.  1.
         25    1    1    2    0    0 -0.15689001453E+02  0.73631812006E+02  0.11811697879E+03  0.18773494396E+03  0.12500000000E+03 0.  0.
         25    1    1    2    0    0 -0.88184017521E+02 -0.12412185552E+03  0.49209462859E+02  0.20304981458E+03  0.12500000000E+03 0.  0.
         25    1    1    2    0    0  0.10387301897E+03  0.50490043515E+02  0.48521156027E+03  0.51419267477E+03  0.12500000000E+03 0.  0.
</event>
<event>
 5    0  0.5612316E-005  0.2699134E+03  0.7546771E-02  0.1101329E+00
         21   -1    0    0  502  501  0.00000000000E+00  0.00000000000E+00  0.17415053291E+03  0.17415053291E+03  0.00000000000E+00 0.  1.
         21   -1    0    0  501  502 -0.00000000000E+00 -0.00000000000E+00 -0.41833478725E+03  0.41833478725E+03  0.00000000000E+00 0.  1.
         25    1    1    2    0    0 -0.19357748262E+02  0.35076593318E+02 -0.24019461737E+03  0.27372165430E+03  0.12500000000E+03 0.  0.
         25    1    1    2    0    0  0.94035739190E+02 -0.54817921124E+02 -0.32960405973E+02  0.16899441731E+03  0.12500000000E+03 0.  0.
         25    1    1    2    0    0 -0.74677990928E+02  0.19741327807E+02  0.28970769006E+02  0.14976924854E+03  0.12500000000E+03 0.  0.
</event>
<event>
 5    0  0.5612316E-005  0.4134786E+03  0.7546771E-02  0.1039210E+00
         21   -1    0    0  502  501  0.00000000000E+00  0.00000000000E+00  0.12077075651E+04  0.12077075651E+04  0.00000000000E+00 0.  1.
         21   -1    0    0  501  502 -0.00000000000E+00 -0.00000000000E+00 -0.14156124714E+03  0.14156124714E+03  0.00000000000E+00 0.  1.
         25    1    1    2    0    0  0.15173258376E+03  0.10028776506E+03  0.25365919120E+03  0.33622670637E+03  0.12500000000E+03 0.  0.
         25    1    1    2    0    0 -0.62834306659E+02 -0.11337810052E+03  0.83788320486E+03  0.85701575759E+03  0.12500000000E+03 0.  0.
         25    1    1    2    0    0 -0.88898277104E+02  0.13090335455E+02 -0.25396078151E+02  0.15602634822E+03  0.12500000000E+03 0.  0.
</event>
<event>
 5    0  0.5612316E-005  0.3622674E+03  0.7546771E-02  0.1057690E+00
         21   -1    0    0  502  501  0.00000000000E+00  0.00000000000E+00  0.15107590215E+03  0.15107590215E+03  0.00000000000E+00 0. -1.
         21   -1    0    0  501  502 -0.00000000000E+00 -0.00000000000E+00 -0.86868711377E+03  0.86868711377E+03  0.00000000000E+00 0.  1.
         25    1    1    2    0    0  0.14946697532E+03 -0.57369930146E+02 -0.16561776669E+03  0.26208000732E+03  0.12500000000E+03 0.  0.
         25    1    1    2    0    0 -0.27019738421E+03  0.11740005530E+03 -0.25863007126E+03  0.41146556743E+03  0.12500000000E+03 0.  0.
         25    1    1    2    0    0  0.12073040889E+03 -0.60030125150E+02 -0.29336337368E+03  0.34621744117E+03  0.12500000000E+03 0.  0.
</event>
<event>
 5    0  0.5612316E-005  0.2590163E+03  0.7546771E-02  0.1107736E+00
         21   -1    0    0  502  501  0.00000000000E+00  0.00000000000E+00  0.95304872995E+02  0.95304872995E+02  0.00000000000E+00 0.  1.
         21   -1    0    0  501  502 -0.00000000000E+00 -0.00000000000E+00 -0.70394561043E+03  0.70394561043E+03  0.00000000000E+00 0.  1.
         25    1    1    2    0    0 -0.18727637110E+02  0.40779890537E+02 -0.33623993999E+03  0.36151904668E+03  0.12500000000E+03 0.  0.
         25    1    1    2    0    0 -0.93817133353E+02 -0.69188845643E+02 -0.11846700497E+03  0.20796197282E+03  0.12500000000E+03 0.  0.
         25    1    1    2    0    0  0.11254477046E+03  0.28408955105E+02 -0.15393379246E+03  0.22976946392E+03  0.12500000000E+03 0.  0.
</event>
<event>
 5    0  0.5612316E-005  0.4046183E+03  0.7546771E-02  0.1042192E+00
         21   -1    0    0  502  501  0.00000000000E+00  0.00000000000E+00  0.19461791833E+04  0.19461791833E+04  0.00000000000E+00 0.  1.
         21   -1    0    0  501  502 -0.00000000000E+00 -0.00000000000E+00 -0.84121739521E+02  0.84121739521E+02  0.00000000000E+00 0.  1.
         25    1    1    2    0    0 -0.16647340898E+03 -0.18995745388E+03  0.54641586643E+03  0.61481097035E+03  0.12500000000E+03 0.  0.
         25    1    1    2    0    0  0.20498188407E+03  0.14689181664E+03  0.39738046810E+03  0.48696099948E+03  0.12500000000E+03 0.  0.
         25    1    1    2    0    0 -0.38508475084E+02  0.43065637244E+02  0.91826110926E+03  0.92852895299E+03  0.12500000000E+03 0.  0.
</event>
<event>
 5    0  0.5612316E-005  0.4894962E+03  0.7546771E-02  0.1016558E+00
         21   -1    0    0  502  501  0.00000000000E+00  0.00000000000E+00  0.18311273937E+04  0.18311273937E+04  0.00000000000E+00 0.  1.
         21   -1    0    0  501  502 -0.00000000000E+00 -0.00000000000E+00 -0.13085189969E+03  0.13085189969E+03  0.00000000000E+00 0.  1.
         25    1    1    2    0    0  0.27549877729E+03 -0.21261912834E+03  0.72352519798E+03  0.81253934190E+03  0.12500000000E+03 0.  0.
         25    1    1    2    0    0 -0.14143180744E+03 -0.10360671873E+03  0.53098687535E+03  0.57298287070E+03  0.12500000000E+03 0.  0.
         25    1    1    2    0    0 -0.13406696985E+03  0.31622584707E+03  0.44576342066E+03  0.57645708076E+03  0.12500000000E+03 0.  0.
</event>
<event>
 5    0  0.5612316E-005  0.3774040E+03  0.7546771E-02  0.1051897E+00
         21   -1    0    0  502  501  0.00000000000E+00  0.00000000000E+00  0.25506853073E+03  0.25506853073E+03  0.00000000000E+00 0. -1.
         21   -1    0    0  501  502 -0.00000000000E+00 -0.00000000000E+00 -0.55841381036E+03  0.55841381036E+03  0.00000000000E+00 0. -1.
         25    1    1    2    0    0 -0.10556208209E+03  0.90088734472E+02 -0.47714966714E+02  0.19277201898E+03  0.12500000000E+03 0.  0.
         25    1    1    2    0    0 -0.38294888788E+02 -0.15997581182E+03 -0.34244233474E+03  0.39993813459E+03  0.12500000000E+03 0.  0.
         25    1    1    2    0    0  0.14385697088E+03  0.69887077347E+02  0.86812021828E+02  0.22077218752E+03  0.12500000000E+03 0.  0.
</event>
<event>
 5    0  0.5612316E-005  0.4361275E+03  0.7546771E-02  0.1031942E+00
         21   -1    0    0  502  501  0.00000000000E+00  0.00000000000E+00  0.17955855110E+03  0.17955855110E+03  0.00000000000E+00 0.  1.
         21   -1    0    0  501  502 -0.00000000000E+00 -0.00000000000E+00 -0.10593046803E+04  0.10593046803E+04  0.00000000000E+00 0.  1.
         25    1    1    2    0    0 -0.17407146060E+03  0.32525654810E+02 -0.50934400328E+03  0.55354774436E+03  0.12500000000E+03 0.  0.
         25    1    1    2    0    0  0.13465649690E+03  0.11316937363E+03  0.49977327605E+02  0.22150036695E+03  0.12500000000E+03 0.  0.
         25    1    1    2    0    0  0.39414963699E+02 -0.14569502844E+03 -0.42037945355E+03  0.46381512010E+03  0.12500000000E+03 0.  0.
</event>
<event>
 5    0  0.5612316E-005  0.2172621E+03  0.7546771E-02  0.1135941E+00
         21   -1    0    0  502  501  0.00000000000E+00  0.00000000000E+00  0.68629199959E+03  0.68629199959E+03  0.00000000000E+00 0. -1.
         21   -1    0    0  501  502 -0.00000000000E+00 -0.00000000000E+00 -0.68779495721E+02  0.68779495721E+02  0.00000000000E+00 0. -1.
         25    1    1    2    0    0  0.46409578024E+02 -0.17824983494E+02  0.10921925009E+03  0.17327845671E+03  0.12500000000E+03 0.  0.
         25    1    1    2    0    0  0.34804324015E+02  0.24783205876E+02  0.27089540683E+03  0.30138823751E+03  0.12500000000E+03 0.  0.
         25    1    1    2    0    0 -0.81213902039E+02 -0.69582223819E+01  0.23739784694E+03  0.28040480109E+03  0.12500000000E+03 0.  0.
</event>
<event>
 5    0  0.5612316E-005  0.3178966E+03  0.7546771E-02  0.1076621E+00
         21   -1    0    0  502  501  0.00000000000E+00  0.00000000000E+00  0.13302095772E+03  0.13302095772E+03  0.00000000000E+00 0.  1.
         21   -1    0    0  501  502 -0.00000000000E+00 -0.00000000000E+00 -0.75971673580E+03  0.75971673580E+03  0.00000000000E+00 0.  1.
         25    1    1    2    0    0  0.32658711752E+02 -0.17848384119E+03 -0.40813230469E+03  0.46381036119E+03  0.12500000000E+03 0.  0.
         25    1    1    2    0    0 -0.88930239687E+02  0.12622881067E+03 -0.48822967888E+02  0.20457512647E+03  0.12500000000E+03 0.  0.
         25    1    1    2    0    0  0.56271527935E+02  0.52255030511E+02 -0.16974050550E+03  0.22435220586E+03  0.12500000000E+03 0.  0.
</event>
<event>
 5    0  0.5612316E-005  0.2084428E+03  0.7546771E-02  0.1142805E+00
         21   -1    0    0  502  501  0.00000000000E+00  0.00000000000E+00  0.14875921177E+03  0.14875921177E+03  0.00000000000E+00 0.  1.
         21   -1    0    0  501  502 -0.00000000000E+00 -0.00000000000E+00 -0.29207212800E+03  0.29207212800E+03  0.00000000000E+00 0.  1.
         25    1    1    2    0    0  0.19695584593E+02  0.44656405360E+01 -0.38815698927E+02  0.13243683959E+03  0.12500000000E+03 0.  0.
         25    1    1    2    0    0  0.49546854355E+02 -0.40624766067E+02 -0.70319967398E+02  0.15708329068E+03  0.12500000000E+03 0.  0.
         25    1    1    2    0    0 -0.69242438948E+02  0.36159125531E+02 -0.34177249909E+02  0.15131120951E+03  0.12500000000E+03 0.  0.
</event>
<event>
 5    0  0.5612316E-005  0.2914103E+03  0.7546771E-02  0.1089615E+00
         21   -1    0    0  502  501  0.00000000000E+00  0.00000000000E+00  0.21136265855E+04  0.21136265855E+04  0.00000000000E+00 0.  1.
         21   -1    0    0  501  502 -0.00000000000E+00 -0.00000000000E+00 -0.40177372586E+02  0.40177372586E+02  0.00000000000E+00 0.  1.
         25    1    1    2    0    0 -0.18004665997E+03 -0.77429861938E+02  0.63701447307E+03  0.67810369574E+03  0.12500000000E+03 0.  0.
         25    1    1    2    0    0  0.14965000758E+03  0.76217264414E+02  0.86829571804E+03  0.89317783790E+03  0.12500000000E+03 0.  0.
         25    1    1    2    0    0  0.30396652389E+02  0.12125975234E+01  0.56813902180E+03  0.58252242443E+03  0.12500000000E+03 0.  0.
</event>
<event>
 5    0  0.5612316E-005  0.3798409E+03  0.7546771E-02  0.1050993E+00
         21   -1    0    0  502  501  0.00000000000E+00  0.00000000000E+00  0.11995284944E+03  0.11995284944E+03  0.00000000000E+00 0. -1.
         21   -1    0    0  501  502 -0.00000000000E+00 -0.00000000000E+00 -0.12027987687E+04  0.12027987687E+04  0.00000000000E+00 0. -1.
         25    1    1    2    0    0  0.24175634066E+03 -0.45787203753E+02 -0.66230591447E+03  0.71750729657E+03  0.12500000000E+03 0.  0.
         25    1    1    2    0    0 -0.15938379948E+03  0.87880891597E+00 -0.58383121676E+02  0.21080217442E+03  0.12500000000E+03 0.  0.
         25    1    1    2    0    0 -0.82372541177E+02  0.44908394837E+02 -0.36215688308E+03  0.39444214712E+03  0.12500000000E+03 0.  0.
</event>
<event>
 5    0  0.5612316E-005  0.5480924E+03  0.7546771E-02  0.1001936E+00
         21   -1    0    0  502  501  0.00000000000E+00  0.00000000000E+00  0.13543751408E+04  0.13543751408E+04  0.00000000000E+00 0.  1.
         21   -1    0    0  501  502 -0.00000000000E+00 -0.00000000000E+00 -0.22180358305E+03  0.22180358305E+03  0.00000000000E+00 0.  1.
         25    1    1    2    0    0  0.33895560891E+03  0.10648374392E+03  0.11475766996E+03  0.39373089204E+03  0.12500000000E+03 0.  0.
         25    1    1    2    0    0 -0.14407103436E+03  0.39812898011E+02  0.89214525335E+02  0.21430296620E+03  0.12500000000E+03 0.  0.
         25    1    1    2    0    0 -0.19488457455E+03 -0.14629664193E+03  0.92859936243E+03  0.96814486558E+03  0.12500000000E+03 0.  0.
</event>
<event>
 5    0  0.5612316E-005  0.3679264E+03  0.7546771E-02  0.1055489E+00
         21   -1    0    0  502  501  0.00000000000E+00  0.00000000000E+00  0.11261641812E+03  0.11261641812E+03  0.00000000000E+00 0. -1.
         21   -1    0    0  501  502 -0.00000000000E+00 -0.00000000000E+00 -0.12020437971E+04  0.12020437971E+04  0.00000000000E+00 0. -1.
         25    1    1    2    0    0 -0.96560592066E+02  0.35216202640E+02 -0.40320680100E+03  0.43447077374E+03  0.12500000000E+03 0.  0.
         25    1    1    2    0    0  0.17653774295E+03 -0.11184519044E+03 -0.66941666045E+03  0.71233319914E+03  0.12500000000E+03 0.  0.
         25    1    1    2    0    0 -0.79977150883E+02  0.76628987797E+02 -0.16803917504E+02  0.16785624230E+03  0.12500000000E+03 0.  0.
</event>
<event>
 5    0  0.5612316E-005  0.2567162E+03  0.7546771E-02  0.1109132E+00
         21   -1    0    0  502  501  0.00000000000E+00  0.00000000000E+00  0.33156580047E+03  0.33156580047E+03  0.00000000000E+00 0. -1.
         21   -1    0    0  501  502 -0.00000000000E+00 -0.00000000000E+00 -0.19876353167E+03  0.19876353167E+03  0.00000000000E+00 0. -1.
         25    1    1    2    0    0  0.35802950556E+02 -0.89211796197E+02 -0.76871123865E+02  0.17542737966E+03  0.12500000000E+03 0.  0.
         25    1    1    2    0    0  0.20895618126E+02  0.76160436693E+02  0.12003485049E+03  0.19044790444E+03  0.12500000000E+03 0.  0.
         25    1    1    2    0    0 -0.56698568682E+02  0.13051359504E+02  0.89638542166E+02  0.16445404804E+03  0.12500000000E+03 0.  0.
</event>
<event>
 5    0  0.7504206E-005  0.2646031E+03  0.7546771E-02  0.1104409E+00
         21   -1    0    0  502  501  0.00000000000E+00  0.00000000000E+00  0.47593652801E+03  0.47593652801E+03  0.00000000000E+00 0.  1.
         21   -1    0    0  501  502 -0.00000000000E+00 -0.00000000000E+00 -0.14710949509E+03  0.14710949509E+03  0.00000000000E+00 0.  1.
         25    1    1    2    0    0 -0.43671263045E+02  0.14897837386E+02  0.24931679519E+03  0.28268885570E+03  0.12500000000E+03 0.  0.
         25    1    1    2    0    0 -0.79210884516E+02  0.21463723576E+02  0.15905837146E+02  0.15037636553E+03  0.12500000000E+03 0.  0.
         25    1    1    2    0    0  0.12288214756E+03 -0.36361560962E+02  0.63604400581E+02  0.18998080187E+03  0.12500000000E+03 0.  0.
</event>
<event>
 5    0  0.5612316E-005  0.2684104E+03  0.7546771E-02  0.1102193E+00
         21   -1    0    0  502  501  0.00000000000E+00  0.00000000000E+00  0.21745393118E+04  0.21745393118E+04  0.00000000000E+00 0.  1.
         21   -1    0    0  501  502 -0.00000000000E+00 -0.00000000000E+00 -0.33130750128E+02  0.33130750128E+02  0.00000000000E+00 0.  1.
         25    1    1    2    0    0 -0.22172503361E+00 -0.72734327420E+02  0.10403739266E+04  0.10503776648E+04  0.12500000000E+03 0.  0.
         25    1    1    2    0    0 -0.53838338361E+02 -0.28073221161E+02  0.22075018106E+03  0.26084921863E+03  0.12500000000E+03 0.  0.
         25    1    1    2    0    0  0.54060063395E+02  0.10080754858E+03  0.88028445406E+03  0.89644317855E+03  0.12500000000E+03 0.  0.
</event>
<event>
 5    0  0.5612316E-005  0.2405392E+03  0.7546771E-02  0.1119434E+00
         21   -1    0    0  502  501  0.00000000000E+00  0.00000000000E+00  0.60301301172E+02  0.60301301172E+02  0.00000000000E+00 0. -1.
         21   -1    0    0  501  502 -0.00000000000E+00 -0.00000000000E+00 -0.95950052500E+03  0.95950052500E+03  0.00000000000E+00 0. -1.
         25    1    1    2    0    0 -0.10379421051E+03  0.46210745232E+02 -0.39519147676E+03  0.42977898322E+03  0.12500000000E+03 0.  0.
         25    1    1    2    0    0 -0.20686744885E+02 -0.22515822984E+02 -0.20474256259E+03  0.24182518611E+03  0.12500000000E+03 0.  0.
         25    1    1    2    0    0  0.12448095539E+03 -0.23694922248E+02 -0.29926518447E+03  0.34819765684E+03  0.12500000000E+03 0.  0.
</event>
<event>
 5    0  0.5612316E-005  0.3021224E+03  0.7546771E-02  0.1084184E+00
         21   -1    0    0  502  501  0.00000000000E+00  0.00000000000E+00  0.72252921817E+03  0.72252921817E+03  0.00000000000E+00 0. -1.
         21   -1    0    0  501  502 -0.00000000000E+00 -0.00000000000E+00 -0.12633111578E+03  0.12633111578E+03  0.00000000000E+00 0. -1.
         25    1    1    2    0    0  0.88577275599E+02 -0.35957143749E+02  0.37758702289E+03  0.40906699915E+03  0.12500000000E+03 0.  0.
         25    1    1    2    0    0 -0.13382379680E+03  0.75967995014E+02  0.22514691710E+02  0.19952908610E+03  0.12500000000E+03 0.  0.
         25    1    1    2    0    0  0.45246521196E+02 -0.40010851265E+02  0.19609638780E+03  0.24026424871E+03  0.12500000000E+03 0.  0.
</event>
<event>
 5    0  0.5612316E-005  0.3232975E+03  0.7546771E-02  0.1074142E+00
         21   -1    0    0  502  501  0.00000000000E+00  0.00000000000E+00  0.38985959157E+03  0.38985959157E+03  0.00000000000E+00 0. -1.
         21   -1    0    0  501  502 -0.00000000000E+00 -0.00000000000E+00 -0.26809980253E+03  0.26809980253E+03  0.00000000000E+00 0. -1.
         25    1    1    2    0    0  0.39253301372E+02  0.27827811245E+02  0.91874928536E+02  0.16242293939E+03  0.12500000000E+03 0.  0.
         25    1    1    2    0    0 -0.37061358501E+02  0.17877529178E+03  0.10181340638E+03  0.24356748339E+03  0.12500000000E+03 0.  0.
         25    1    1    2    0    0 -0.21919428714E+01 -0.20660310303E+03 -0.71928545872E+02  0.25196897132E+03  0.12500000000E+03 0.  0.
</event>
<event>
 5    0  0.5612316E-005  0.2599198E+03  0.7546771E-02  0.1107191E+00
         21   -1    0    0  502  501  0.00000000000E+00  0.00000000000E+00  0.27070983333E+04  0.27070983333E+04  0.00000000000E+00 0.  1.
         21   -1    0    0  501  502 -0.00000000000E+00 -0.00000000000E+00 -0.24955975707E+02  0.24955975707E+02  0.00000000000E+00 0.  1.
         25    1    1    2    0    0 -0.11999420767E+02  0.74833553359E+02  0.46819692947E+03  0.49048691274E+03  0.12500000000E+03 0.  0.
         25    1    1    2    0    0 -0.17178051290E+02 -0.14155446361E+02  0.17896321367E+04  0.17941303316E+04  0.12500000000E+03 0.  0.
         25    1    1    2    0    0  0.29177472057E+02 -0.60678106997E+02  0.42431329143E+03  0.44743706466E+03  0.12500000000E+03 0.  0.
</event>
<event>
 5    0  0.5612316E-005  0.2581498E+03  0.7546771E-02  0.1108260E+00
         21   -1    0    0  502  501  0.00000000000E+00  0.00000000000E+00  0.27673411319E+03  0.27673411319E+03  0.00000000000E+00 0.  1.
         21   -1    0    0  501  502 -0.00000000000E+00 -0.00000000000E+00 -0.24081354190E+03  0.24081354190E+03  0.00000000000E+00 0.  1.
         25    1    1    2    0    0 -0.10331272655E+03  0.11759529629E+03  0.29700487216E+02  0.20250751126E+03  0.12500000000E+03 0.  0.
         25    1    1    2    0    0  0.65383427628E+02 -0.22924323053E+02 -0.37768333007E+02  0.14782409876E+03  0.12500000000E+03 0.  0.
         25    1    1    2    0    0  0.37929298920E+02 -0.94670973241E+02  0.43988417083E+02  0.16721604507E+03  0.12500000000E+03 0.  0.
</event>
<event>
 5    0  0.5612316E-005  0.4394029E+03  0.7546771E-02  0.1030930E+00
         21   -1    0    0  502  501  0.00000000000E+00  0.00000000000E+00  0.32352743381E+03  0.32352743381E+03  0.00000000000E+00 0.  1.
         21   -1    0    0  501  502 -0.00000000000E+00 -0.00000000000E+00 -0.59678068774E+03  0.59678068774E+03  0.00000000000E+00 0.  1.
         25    1    1    2    0    0 -0.23641837707E+03 -0.28558836447E+03 -0.36069678620E+02  0.39291269342E+03  0.12500000000E+03 0.  0.
         25    1    1    2    0    0  0.80890240889E+02  0.39273299077E+02 -0.81987719068E+02  0.17444944588E+03  0.12500000000E+03 0.  0.
         25    1    1    2    0    0  0.15552813618E+03  0.24631506539E+03 -0.15519585624E+03  0.35294598224E+03  0.12500000000E+03 0.  0.
</event>
<event>
 5    0  0.5943578E-005  0.2644914E+03  0.7546771E-02  0.1104474E+00
         21   -1    0    0  502  501  0.00000000000E+00  0.00000000000E+00  0.19929084608E+03  0.19929084608E+03  0.00000000000E+00 0.  1.
         21   -1    0    0  501  502 -0.00000000000E+00 -0.00000000000E+00 -0.35102312140E+03  0.35102312140E+03  0.00000000000E+00 0.  1.
         25    1    1    2    0    0  0.10577145178E+03 -0.53501337411E+02  0.68489140738E+02  0.18538002998E+03  0.12500000000E+03 0.  0.
         25    1    1    2    0    0 -0.31366576404E+02 -0.68085089196E+01 -0.13121839097E+03  0.18404750484E+03  0.12500000000E+03 0.  0.
         25    1    1    2    0    0 -0.74404875380E+02  0.60309846331E+02 -0.89003025091E+02  0.18088643266E+03  0.12500000000E+03 0.  0.
</event>
<event>
 5    0  0.5612316E-005  0.2463995E+03  0.7546771E-02  0.1115602E+00
         21   -1    0    0  502  501  0.00000000000E+00  0.00000000000E+00  0.58487804217E+02  0.58487804217E+02  0.00000000000E+00 0. -1.
         21   -1    0    0  501  502 -0.00000000000E+00 -0.00000000000E+00 -0.10380403731E+04  0.10380403731E+04  0.00000000000E+00 0. -1.
         25    1    1    2    0    0 -0.43937417365E+02 -0.71584659471E+02 -0.52487689420E+03  0.54605458901E+03  0.12500000000E+03 0.  0.
         25    1    1    2    0    0  0.64472656591E+02 -0.33063840928E+02 -0.23999869673E+03  0.28013267474E+03  0.12500000000E+03 0.  0.
         25    1    1    2    0    0 -0.20535239227E+02  0.10464850040E+03 -0.21467697797E+03  0.27034091358E+03  0.12500000000E+03 0.  0.
</event>
<event>
 5    0  0.5612316E-005  0.3333557E+03  0.7546771E-02  0.1069662E+00
         21   -1    0    0  502  501  0.00000000000E+00  0.00000000000E+00  0.80787686678E+03  0.80787686678E+03  0.00000000000E+00 0. -1.
         21   -1    0    0  501  502 -0.00000000000E+00 -0.00000000000E+00 -0.13755316041E+03  0.13755316041E+03  0.00000000000E+00 0. -1.
         25    1    1    2    0    0 -0.78926860026E+02 -0.12617498266E+03  0.44585028189E+03  0.48637130810E+03  0.12500000000E+03 0.  0.
         25    1    1    2    0    0  0.72994707981E+02  0.66658960739E+02 -0.36578802124E+02  0.16350734909E+03  0.12500000000E+03 0.  0.
         25    1    1    2    0    0  0.59321520445E+01  0.59516021917E+02  0.26105222662E+03  0.29555137001E+03  0.12500000000E+03 0.  0.
</event>
<event>
 5    0  0.5612316E-005  0.2531933E+03  0.7546771E-02  0.1111303E+00
         21   -1    0    0  502  501  0.00000000000E+00  0.00000000000E+00  0.18643328470E+04  0.18643328470E+04  0.00000000000E+00 0. -1.
         21   -1    0    0  501  502 -0.00000000000E+00 -0.00000000000E+00 -0.34385952941E+02  0.34385952941E+02  0.00000000000E+00 0. -1.
         25    1    1    2    0    0  0.10840284396E+03 -0.95078062934E+02  0.61466211228E+03  0.64360354793E+03  0.12500000000E+03 0.  0.
         25    1    1    2    0    0 -0.10491368537E+03  0.13015924359E+02  0.66671385085E+03  0.68651923103E+03  0.12500000000E+03 0.  0.
         25    1    1    2    0    0 -0.34891585876E+01  0.82062138575E+02  0.54857093091E+03  0.56859602097E+03  0.12500000000E+03 0.  0.
</event>
<event>
 5    0  0.5612316E-005  0.2703417E+03  0.7546771E-02  0.1101084E+00
         21   -1    0    0  502  501  0.00000000000E+00  0.00000000000E+00  0.30275251910E+03  0.30275251910E+03  0.00000000000E+00 0.  1.
         21   -1    0    0  501  502 -0.00000000000E+00 -0.00000000000E+00 -0.24140056849E+03  0.24140056849E+03  0.00000000000E+00 0.  1.
         25    1    1    2    0    0 -0.77538761739E+02 -0.97556012335E+02  0.12210035661E+03  0.21462276720E+03  0.12500000000E+03 0.  0.
         25    1    1    2    0    0  0.66112878957E+02  0.49673777147E+02 -0.11056538150E+03  0.18624741739E+03  0.12500000000E+03 0.  0.
         25    1    1    2    0    0  0.11425882783E+02  0.47882235188E+02  0.49816975499E+02  0.14328290300E+03  0.12500000000E+03 0.  0.
</event>
<event>
 5    0  0.5612316E-005  0.2733105E+03  0.7546771E-02  0.1099400E+00
         21   -1    0    0  502  501  0.00000000000E+00  0.00000000000E+00  0.38318335312E+03  0.38318335312E+03  0.00000000000E+00 0. -1.
         21   -1    0    0  501  502 -0.00000000000E+00 -0.00000000000E+00 -0.19494231324E+03  0.19494231324E+03  0.00000000000E+00 0. -1.
         25    1    1    2    0    0  0.16669204400E+02  0.88400944583E+02  0.63830091535E+01  0.15413738088E+03  0.12500000000E+03 0.  0.
         25    1    1    2    0    0  0.59627712051E+02 -0.33016541729E+02  0.22073257265E+03  0.26266599456E+03  0.12500000000E+03 0.  0.
         25    1    1    2    0    0 -0.76296916451E+02 -0.55384402855E+02 -0.38874541923E+02  0.16132229092E+03  0.12500000000E+03 0.  0.
</event>
<event>
 5    0  0.5697349E-005  0.3076285E+03  0.7546771E-02  0.1081488E+00
         21   -1    0    0  502  501  0.00000000000E+00  0.00000000000E+00  0.18504251087E+03  0.18504251087E+03  0.00000000000E+00 0.  1.
         21   -1    0    0  501  502 -0.00000000000E+00 -0.00000000000E+00 -0.51142457823E+03  0.51142457823E+03  0.00000000000E+00 0.  1.
         25    1    1    2    0    0  0.16577748502E+03 -0.13189982139E+03 -0.76059437514E+02  0.25746800861E+03  0.12500000000E+03 0.  0.
         25    1    1    2    0    0 -0.10758762359E+03  0.74595150487E+02 -0.47493180114E+02  0.18713667567E+03  0.12500000000E+03 0.  0.
         25    1    1    2    0    0 -0.58189861438E+02  0.57304670902E+02 -0.20282944973E+03  0.25186240481E+03  0.12500000000E+03 0.  0.
</event>
<event>
 5    0  0.5612316E-005  0.5113232E+03  0.7546771E-02  0.1010865E+00
         21   -1    0    0  502  501  0.00000000000E+00  0.00000000000E+00  0.67209469128E+03  0.67209469128E+03  0.00000000000E+00 0. -1.
         21   -1    0    0  501  502 -0.00000000000E+00 -0.00000000000E+00 -0.38900972472E+03  0.38900972472E+03  0.00000000000E+00 0. -1.
         25    1    1    2    0    0 -0.28695165798E+03  0.60874366451E+02  0.29108838945E+03  0.43174575039E+03  0.12500000000E+03 0.  0.
         25    1    1    2    0    0 -0.11231525489E+03  0.79171489397E+02 -0.27220410308E+02  0.18774661635E+03  0.12500000000E+03 0.  0.
         25    1    1    2    0    0  0.39926691287E+03 -0.14004585585E+03  0.19216987420E+02  0.44161204927E+03  0.12500000000E+03 0.  0.
</event>
<event>
 5    0  0.5612316E-005  0.2267697E+03  0.7546771E-02  0.1128934E+00
         21   -1    0    0  502  501  0.00000000000E+00  0.00000000000E+00  0.14692202516E+03  0.14692202516E+03  0.00000000000E+00 0.  1.
         21   -1    0    0  501  502 -0.00000000000E+00 -0.00000000000E+00 -0.35001216431E+03  0.35001216431E+03  0.00000000000E+00 0.  1.
         25    1    1    2    0    0 -0.16836632377E+02 -0.43127822653E+02 -0.11279978213E+03  0.17462036572E+03  0.12500000000E+03 0.  0.
         25    1    1    2    0    0  0.32828607618E+02 -0.41652500926E+01 -0.12859953783E+03  0.18236750784E+03  0.12500000000E+03 0.  0.
         25    1    1    2    0    0 -0.15991975241E+02  0.47293072745E+02  0.38309180805E+02  0.13994631591E+03  0.12500000000E+03 0.  0.
</event>
<event>
 5    0  0.5612316E-005  0.3123343E+03  0.7546771E-02  0.1079232E+00
         21   -1    0    0  502  501  0.00000000000E+00  0.00000000000E+00  0.13979955089E+03  0.13979955089E+03  0.00000000000E+00 0. -1.
         21   -1    0    0  501  502 -0.00000000000E+00 -0.00000000000E+00 -0.69780409355E+03  0.69780409355E+03  0.00000000000E+00 0. -1.
         25    1    1    2    0    0 -0.95581478421E+02 -0.21228023714E+01 -0.28807332300E+03  0.32825533466E+03  0.12500000000E+03 0.  0.
         25    1    1    2    0    0 -0.66319342330E+02 -0.69473156527E+02  0.68923528117E+01  0.15778871687E+03  0.12500000000E+03 0.  0.
         25    1    1    2    0    0  0.16190082075E+03  0.71595958898E+02 -0.27682357247E+03  0.35155959291E+03  0.12500000000E+03 0.  0.
</event>
<event>
 5    0  0.5612316E-005  0.2621998E+03  0.7546771E-02  0.1105829E+00
         21   -1    0    0  502  501  0.00000000000E+00  0.00000000000E+00  0.49372681478E+03  0.49372681478E+03  0.00000000000E+00 0.  1.
         21   -1    0    0  501  502 -0.00000000000E+00 -0.00000000000E+00 -0.13924448826E+03  0.13924448826E+03  0.00000000000E+00 0.  1.
         25    1    1    2    0    0 -0.94263916762E+02 -0.17181202539E+02  0.14685441211E+03  0.21534181684E+03  0.12500000000E+03 0.  0.
         25    1    1    2    0    0  0.16071842090E+03 -0.33326853376E+02  0.15617338913E+03  0.25875899490E+03  0.12500000000E+03 0.  0.
         25    1    1    2    0    0 -0.66454504133E+02  0.50508055915E+02  0.51454525289E+02  0.15887049130E+03  0.12500000000E+03 0.  0.
</event>
<event>
 5    0  0.5849785E-005  0.2964877E+03  0.7546771E-02  0.1087010E+00
         21   -1    0    0  502  501  0.00000000000E+00  0.00000000000E+00  0.50914231602E+03  0.50914231602E+03  0.00000000000E+00 0. -1.
         21   -1    0    0  501  502 -0.00000000000E+00 -0.00000000000E+00 -0.17265306849E+03  0.17265306849E+03  0.00000000000E+00 0. -1.
         25    1    1    2    0    0  0.12765650096E+03 -0.23133060827E+02  0.20672441908E+03  0.27421033202E+03  0.12500000000E+03 0.  0.
         25    1    1    2    0    0  0.14508118852E+02  0.20800618311E+01 -0.59374522974E+02  0.13915870849E+03  0.12500000000E+03 0.  0.
         25    1    1    2    0    0 -0.14216461982E+03  0.21052998996E+02  0.18913935143E+03  0.26842634400E+03  0.12500000000E+03 0.  0.
</event>
<event>
 5    0  0.5612316E-005  0.3575766E+03  0.7546771E-02  0.1059548E+00
         21   -1    0    0  502  501  0.00000000000E+00  0.00000000000E+00  0.73946535135E+03  0.73946535135E+03  0.00000000000E+00 0. -1.
         21   -1    0    0  501  502 -0.00000000000E+00 -0.00000000000E+00 -0.17291012007E+03  0.17291012007E+03  0.00000000000E+00 0. -1.
         25    1    1    2    0    0  0.22528344740E+03  0.97424247247E+02  0.51908150361E+02  0.28029194013E+03  0.12500000000E+03 0.  0.
         25    1    1    2    0    0 -0.10553287462E+03 -0.19556923478E+01  0.17863048614E+03  0.24222894735E+03  0.12500000000E+03 0.  0.
         25    1    1    2    0    0 -0.11975057278E+03 -0.95468554899E+02  0.33601659477E+03  0.38985458394E+03  0.12500000000E+03 0.  0.
</event>
<event>
 5    0  0.5612316E-005  0.3630895E+03  0.7546771E-02  0.1057367E+00
         21   -1    0    0  502  501  0.00000000000E+00  0.00000000000E+00  0.96055204888E+03  0.96055204888E+03  0.00000000000E+00 0. -1.
         21   -1    0    0  501  502 -0.00000000000E+00 -0.00000000000E+00 -0.13724811026E+03  0.13724811026E+03  0.00000000000E+00 0. -1.
         25    1    1    2    0    0  0.11440810875E+03  0.10520695321E+03  0.14386960116E+03  0.24592921846E+03  0.12500000000E+03 0.  0.
         25    1    1    2    0    0  0.23122897308E+02 -0.10995119037E+03  0.23026677157E+02  0.16964421742E+03  0.12500000000E+03 0.  0.
         25    1    1    2    0    0 -0.13753100606E+03  0.47442371547E+01  0.65640766031E+03  0.68222672326E+03  0.12500000000E+03 0.  0.
</event>
<event>
 5    0  0.5612316E-005  0.3233343E+03  0.7546771E-02  0.1074125E+00
         21   -1    0    0  502  501  0.00000000000E+00  0.00000000000E+00  0.28040583793E+03  0.28040583793E+03  0.00000000000E+00 0.  1.
         21   -1    0    0  501  502 -0.00000000000E+00 -0.00000000000E+00 -0.37283478892E+03  0.37283478892E+03  0.00000000000E+00 0.  1.
         25    1    1    2    0    0 -0.16986594636E+03  0.59282481862E+02  0.49627298471E+02  0.22462573571E+03  0.12500000000E+03 0.  0.
         25    1    1    2    0    0  0.24758770119E+02  0.93664615766E+02 -0.40089622022E+02  0.16315095690E+03  0.12500000000E+03 0.  0.
         25    1    1    2    0    0  0.14510717624E+03 -0.15294709763E+03 -0.10196662744E+03  0.26546393424E+03  0.12500000000E+03 0.  0.
</event>
<event>
 5    0  0.5612316E-005  0.3162144E+03  0.7546771E-02  0.1077405E+00
         21   -1    0    0  502  501  0.00000000000E+00  0.00000000000E+00  0.63401299646E+02  0.63401299646E+02  0.00000000000E+00 0.  1.
         21   -1    0    0  501  502 -0.00000000000E+00 -0.00000000000E+00 -0.15771209690E+04  0.15771209690E+04  0.00000000000E+00 0. -1.
         25    1    1    2    0    0  0.10138504436E+03 -0.19647044065E+03 -0.76068047557E+03  0.80195969175E+03  0.12500000000E+03 0.  0.
         25    1    1    2    0    0 -0.79023605960E+02  0.24431088890E+02 -0.38144953297E+03  0.40984186536E+03  0.12500000000E+03 0.  0.
         25    1    1    2    0    0 -0.22361438399E+02  0.17203935176E+03 -0.37158966085E+03  0.42872071157E+03  0.12500000000E+03 0.  0.
</event>
<event>
 5    0  0.5612316E-005  0.2739568E+03  0.7546771E-02  0.1099036E+00
         21   -1    0    0  502  501  0.00000000000E+00  0.00000000000E+00  0.20989102008E+03  0.20989102008E+03  0.00000000000E+00 0. -1.
         21   -1    0    0  501  502 -0.00000000000E+00 -0.00000000000E+00 -0.35757772113E+03  0.35757772113E+03  0.00000000000E+00 0. -1.
         25    1    1    2    0    0  0.10233239467E+03  0.15623925176E+03 -0.10145460068E+03  0.24657789599E+03  0.12500000000E+03 0.  0.
         25    1    1    2    0    0 -0.59664248435E+02 -0.78029656764E+02 -0.52050772137E+02  0.16728040159E+03  0.12500000000E+03 0.  0.
         25    1    1    2    0    0 -0.42668146239E+02 -0.78209594996E+02  0.58186717682E+01  0.15361044364E+03  0.12500000000E+03 0.  0.
</event>
<event>
 5    0  0.5612316E-005  0.3986939E+03  0.7546771E-02  0.1044233E+00
         21   -1    0    0  502  501  0.00000000000E+00  0.00000000000E+00  0.26864826308E+03  0.26864826308E+03  0.00000000000E+00 0. -1.
         21   -1    0    0  501  502 -0.00000000000E+00 -0.00000000000E+00 -0.59169116495E+03  0.59169116495E+03  0.00000000000E+00 0. -1.
         25    1    1    2    0    0  0.35875738426E+02 -0.30640386067E+02 -0.21744704842E+03  0.25521387253E+03  0.12500000000E+03 0.  0.
         25    1    1    2    0    0 -0.14270236406E+03  0.25480701499E+03 -0.49264821128E+02  0.32146944209E+03  0.12500000000E+03 0.  0.
         25    1    1    2    0    0  0.10682662563E+03 -0.22416662893E+03 -0.56331032331E+02  0.28365611341E+03  0.12500000000E+03 0.  0.
</event>
<event>
 5    0  0.5612316E-005  0.2714313E+03  0.7546771E-02  0.1100463E+00
         21   -1    0    0  502  501  0.00000000000E+00  0.00000000000E+00  0.15718118337E+04  0.15718118337E+04  0.00000000000E+00 0. -1.
         21   -1    0    0  501  502 -0.00000000000E+00 -0.00000000000E+00 -0.46872636039E+02  0.46872636039E+02  0.00000000000E+00 0. -1.
         25    1    1    2    0    0  0.10287781814E+03  0.12948798699E+03  0.66188526935E+03  0.69359072516E+03  0.12500000000E+03 0.  0.
         25    1    1    2    0    0 -0.60434737422E+02  0.10453762040E+02  0.40560942678E+03  0.42884221541E+03  0.12500000000E+03 0.  0.
         25    1    1    2    0    0 -0.42443080718E+02 -0.13994174903E+03  0.45744450153E+03  0.49625152916E+03  0.12500000000E+03 0.  0.
</event>
<event>
 5    0  0.6708957E-005  0.3702533E+03  0.7546771E-02  0.1054596E+00
         21   -1    0    0  502  501  0.00000000000E+00  0.00000000000E+00  0.68823967705E+03  0.68823967705E+03  0.00000000000E+00 0.  1.
         21   -1    0    0  501  502 -0.00000000000E+00 -0.00000000000E+00 -0.19918569104E+03  0.19918569104E+03  0.00000000000E+00 0.  1.
         25    1    1    2    0    0  0.21378763959E+02 -0.99525870731E+02  0.35311380778E+03  0.38817111141E+03  0.12500000000E+03 0.  0.
         25    1    1    2    0    0 -0.19488976050E+03  0.35798756976E+02  0.14571055007E+03  0.27589877519E+03  0.12500000000E+03 0.  0.
         25    1    1    2    0    0  0.17351099654E+03  0.63727113755E+02 -0.97703718379E+01  0.22335548150E+03  0.12500000000E+03 0.  0.
</event>
<event>
 5    0  0.5612316E-005  0.2224578E+03  0.7546771E-02  0.1132064E+00
         21   -1    0    0  502  501  0.00000000000E+00  0.00000000000E+00  0.20596625080E+03  0.20596625080E+03  0.00000000000E+00 0.  1.
         21   -1    0    0  501  502 -0.00000000000E+00 -0.00000000000E+00 -0.24026975887E+03  0.24026975887E+03  0.00000000000E+00 0.  1.
         25    1    1    2    0    0 -0.30305851557E+02 -0.83062861497E+02 -0.80723848938E+02  0.17308732879E+03  0.12500000000E+03 0.  0.
         25    1    1    2    0    0  0.15037842076E+02  0.25079104158E+02  0.39600704901E+02  0.13434401359E+03  0.12500000000E+03 0.  0.
         25    1    1    2    0    0  0.15268009482E+02  0.57983757339E+02  0.68196359667E+01  0.13880466730E+03  0.12500000000E+03 0.  0.
</event>
<event>
 5    0  0.6365007E-005  0.3238162E+03  0.7546771E-02  0.1073906E+00
         21   -1    0    0  502  501  0.00000000000E+00  0.00000000000E+00  0.63144462422E+03  0.63144462422E+03  0.00000000000E+00 0.  1.
         21   -1    0    0  501  502 -0.00000000000E+00 -0.00000000000E+00 -0.16605874189E+03  0.16605874189E+03  0.00000000000E+00 0.  1.
         25    1    1    2    0    0  0.45565351987E+02  0.38308662360E+02  0.31211054317E+03  0.34144069188E+03  0.12500000000E+03 0.  0.
         25    1    1    2    0    0  0.11815856043E+02 -0.16045981320E+03  0.17788431754E+03  0.27047143386E+03  0.12500000000E+03 0.  0.
         25    1    1    2    0    0 -0.57381208030E+02  0.12215115084E+03 -0.24608978371E+02  0.18559124037E+03  0.12500000000E+03 0.  0.
</event>
<event>
 5    0  0.5612316E-005  0.2794847E+03  0.7546771E-02  0.1095971E+00
         21   -1    0    0  502  501  0.00000000000E+00  0.00000000000E+00  0.41425236634E+02  0.41425236634E+02  0.00000000000E+00 0. -1.
         21   -1    0    0  501  502 -0.00000000000E+00 -0.00000000000E+00 -0.18856064235E+04  0.18856064235E+04  0.00000000000E+00 0. -1.
         25    1    1    2    0    0 -0.10919898996E+03  0.83076619451E+02 -0.10834424671E+04  0.10992264205E+04  0.12500000000E+03 0.  0.
         25    1    1    2    0    0 -0.23811026354E+02 -0.47578793012E+02 -0.25437697880E+03  0.28838057123E+03  0.12500000000E+03 0.  0.
         25    1    1    2    0    0  0.13301001631E+03 -0.35497826439E+02 -0.50636174104E+03  0.53942466843E+03  0.12500000000E+03 0.  0.
</event>
<event>
 5    0  0.5612316E-005  0.3545142E+03  0.7546771E-02  0.1060777E+00
         21   -1    0    0  502  501  0.00000000000E+00  0.00000000000E+00  0.10180686854E+04  0.10180686854E+04  0.00000000000E+00 0. -1.
         21   -1    0    0  501  502 -0.00000000000E+00 -0.00000000000E+00 -0.12344972891E+03  0.12344972891E+03  0.00000000000E+00 0. -1.
         25    1    1    2    0    0  0.88024873694E+02  0.21401898841E+03  0.40696340526E+03  0.48455827204E+03  0.12500000000E+03 0.  0.
         25    1    1    2    0    0 -0.83060017714E+02 -0.54912962024E+02  0.41023104132E+03  0.44026004498E+03  0.12500000000E+03 0.  0.
         25    1    1    2    0    0 -0.49648559804E+01 -0.15910602638E+03  0.77424509891E+02  0.21670009727E+03  0.12500000000E+03 0.  0.
</event>
<event>
 5    0  0.5643122E-005  0.3018971E+03  0.7546771E-02  0.1084296E+00
         21   -1    0    0  502  501  0.00000000000E+00  0.00000000000E+00  0.51851169529E+03  0.51851169529E+03  0.00000000000E+00 0.  1.
         21   -1    0    0  501  502 -0.00000000000E+00 -0.00000000000E+00 -0.17577587448E+03  0.17577587448E+03  0.00000000000E+00 0.  1.
         25    1    1    2    0    0  0.11062276516E+02 -0.92184833488E+02 -0.30334682319E+02  0.15863672475E+03  0.12500000000E+03 0.  0.
         25    1    1    2    0    0  0.25150739122E+02  0.99723664463E+02  0.24770755271E+02  0.16375579150E+03  0.12500000000E+03 0.  0.
         25    1    1    2    0    0 -0.36213015637E+02 -0.75388309748E+01  0.34829974787E+03  0.37189505353E+03  0.12500000000E+03 0.  0.
</event>
<event>
 5    0  0.5612316E-005  0.2522747E+03  0.7546771E-02  0.1111876E+00
         21   -1    0    0  502  501  0.00000000000E+00  0.00000000000E+00  0.64327191849E+02  0.64327191849E+02  0.00000000000E+00 0. -1.
         21   -1    0    0  501  502 -0.00000000000E+00 -0.00000000000E+00 -0.98935624838E+03  0.98935624838E+03  0.00000000000E+00 0. -1.
         25    1    1    2    0    0  0.46662518262E+02  0.94930465902E+02 -0.45054632081E+03  0.47938102920E+03  0.12500000000E+03 0.  0.
         25    1    1    2    0    0 -0.73072875199E+02 -0.58902405868E+02 -0.12400172095E+03  0.19952585122E+03  0.12500000000E+03 0.  0.
         25    1    1    2    0    0  0.26410356937E+02 -0.36028060034E+02 -0.35048101477E+03  0.37477655980E+03  0.12500000000E+03 0.  0.
</event>
<event>
 5    0  0.5612316E-005  0.5027962E+03  0.7546771E-02  0.1013052E+00
         21   -1    0    0  502  501  0.00000000000E+00  0.00000000000E+00  0.19459395460E+03  0.19459395460E+03  0.00000000000E+00 0. -1.
         21   -1    0    0  501  502 -0.00000000000E+00 -0.00000000000E+00 -0.12991362290E+04  0.12991362290E+04  0.00000000000E+00 0. -1.
         25    1    1    2    0    0  0.86915784304E+02 -0.76093793979E+02 -0.49828581870E+02  0.17734854557E+03  0.12500000000E+03 0.  0.
         25    1    1    2    0    0 -0.23928364859E+03 -0.19471495861E+03 -0.87523614831E+03  0.93639409166E+03  0.12500000000E+03 0.  0.
         25    1    1    2    0    0  0.15236786428E+03  0.27080875259E+03 -0.17947754427E+03  0.37998754643E+03  0.12500000000E+03 0.  0.
</event>
<event>
 5    0  0.6278880E-005  0.2765291E+03  0.7546771E-02  0.1097600E+00
         21   -1    0    0  502  501  0.00000000000E+00  0.00000000000E+00  0.79742340707E+03  0.79742340707E+03  0.00000000000E+00 0. -1.
         21   -1    0    0  501  502 -0.00000000000E+00 -0.00000000000E+00 -0.95894283016E+02  0.95894283016E+02  0.00000000000E+00 0. -1.
         25    1    1    2    0    0 -0.32146331064E+02  0.22829655964E+02  0.33139314856E+03  0.35637199484E+03  0.12500000000E+03 0.  0.
         25    1    1    2    0    0 -0.10257001028E+03  0.31077091567E+02  0.28102868596E+03  0.32571231933E+03  0.12500000000E+03 0.  0.
         25    1    1    2    0    0  0.13471634134E+03 -0.53906747531E+02  0.89107289532E+02  0.21123337592E+03  0.12500000000E+03 0.  0.
</event>
<event>
 5    0  0.7178467E-005  0.3452517E+03  0.7546771E-02  0.1064581E+00
         21   -1    0    0  502  501  0.00000000000E+00  0.00000000000E+00  0.72297618126E+03  0.72297618126E+03  0.00000000000E+00 0. -1.
         21   -1    0    0  501  502 -0.00000000000E+00 -0.00000000000E+00 -0.16487227664E+03  0.16487227664E+03  0.00000000000E+00 0. -1.
         25    1    1    2    0    0 -0.21136912997E+03  0.26345539249E+01  0.12512646117E+03  0.27561836162E+03  0.12500000000E+03 0.  0.
         25    1    1    2    0    0  0.18562873686E+03 -0.26325699772E+02  0.85004987866E+02  0.24083587436E+03  0.12500000000E+03 0.  0.
         25    1    1    2    0    0  0.25740393110E+02  0.23691145847E+02  0.34797245558E+03  0.37139422192E+03  0.12500000000E+03 0.  0.
</event>
<event>
 5    0  0.5612316E-005  0.3277230E+03  0.7546771E-02  0.1072149E+00
         21   -1    0    0  502  501  0.00000000000E+00  0.00000000000E+00  0.13838819430E+03  0.13838819430E+03  0.00000000000E+00 0. -1.
         21   -1    0    0  501  502 -0.00000000000E+00 -0.00000000000E+00 -0.77609497591E+03  0.77609497591E+03  0.00000000000E+00 0. -1.
         25    1    1    2    0    0 -0.14691341218E+03 -0.21409379879E+03 -0.32529854768E+03  0.43458468735E+03  0.12500000000E+03 0.  0.
         25    1    1    2    0    0  0.55895154834E+02  0.93860842242E+02 -0.17091896837E+03  0.23826963673E+03  0.12500000000E+03 0.  0.
         25    1    1    2    0    0  0.91018257343E+02  0.12023295655E+03 -0.14148926557E+03  0.24162884613E+03  0.12500000000E+03 0.  0.
</event>
<event>
 5    0  0.5612316E-005  0.2958604E+03  0.7546771E-02  0.1087328E+00
         21   -1    0    0  502  501  0.00000000000E+00  0.00000000000E+00  0.30828326352E+03  0.30828326352E+03  0.00000000000E+00 0.  1.
         21   -1    0    0  501  502 -0.00000000000E+00 -0.00000000000E+00 -0.28393817892E+03  0.28393817892E+03  0.00000000000E+00 0.  1.
         25    1    1    2    0    0 -0.77651695738E+02  0.14241170713E+03  0.76259201979E+02  0.21852081380E+03  0.12500000000E+03 0.  0.
         25    1    1    2    0    0  0.73348266720E+02  0.23385468649E+02  0.31061304608E+02  0.15005549980E+03  0.12500000000E+03 0.  0.
         25    1    1    2    0    0  0.43034290177E+01 -0.16579717578E+03 -0.82975421986E+02  0.22364512883E+03  0.12500000000E+03 0.  0.
</event>
<event>
 5    0  0.5834491E-005  0.3536630E+03  0.7546771E-02  0.1061122E+00
         21   -1    0    0  502  501  0.00000000000E+00  0.00000000000E+00  0.59585026785E+03  0.59585026785E+03  0.00000000000E+00 0. -1.
         21   -1    0    0  501  502 -0.00000000000E+00 -0.00000000000E+00 -0.20991436674E+03  0.20991436674E+03  0.00000000000E+00 0. -1.
         25    1    1    2    0    0  0.52588888368E+02  0.70922121800E+02  0.29327959099E+03  0.33080728081E+03  0.12500000000E+03 0.  0.
         25    1    1    2    0    0 -0.18204095645E+03 -0.10772287136E+03  0.14328983768E+03  0.28442943663E+03  0.12500000000E+03 0.  0.
         25    1    1    2    0    0  0.12945206808E+03  0.36800749555E+02 -0.50633527574E+02  0.19052791715E+03  0.12500000000E+03 0.  0.
</event>
<event>
 5    0  0.5612316E-005  0.3797518E+03  0.7546771E-02  0.1051026E+00
         21   -1    0    0  502  501  0.00000000000E+00  0.00000000000E+00  0.53718517225E+03  0.53718517225E+03  0.00000000000E+00 0. -1.
         21   -1    0    0  501  502 -0.00000000000E+00 -0.00000000000E+00 -0.26845760760E+03  0.26845760760E+03  0.00000000000E+00 0. -1.
         25    1    1    2    0    0  0.53818531710E+02  0.11342965257E+03 -0.10788858077E+03  0.20743111217E+03  0.12500000000E+03 0.  0.
         25    1    1    2    0    0  0.45675487409E+02  0.10749973224E+03  0.62163132445E+02  0.18202114607E+03  0.12500000000E+03 0.  0.
         25    1    1    2    0    0 -0.99494019119E+02 -0.22092938481E+03  0.31445301297E+03  0.41619052161E+03  0.12500000000E+03 0.  0.
</event>
<event>
 5    0  0.5612316E-005  0.4913498E+03  0.7546771E-02  0.1016062E+00
         21   -1    0    0  502  501  0.00000000000E+00  0.00000000000E+00  0.35334697612E+03  0.35334697612E+03  0.00000000000E+00 0. -1.
         21   -1    0    0  501  502 -0.00000000000E+00 -0.00000000000E+00 -0.68325087687E+03  0.68325087687E+03  0.00000000000E+00 0. -1.
         25    1    1    2    0    0 -0.24258372459E+03  0.18300152986E+02 -0.18032864107E+03  0.32760521642E+03  0.12500000000E+03 0.  0.
         25    1    1    2    0    0  0.75977644874E+02 -0.30359927509E+03 -0.41251361511E+02  0.33951700573E+03  0.12500000000E+03 0.  0.
         25    1    1    2    0    0  0.16660607971E+03  0.28529912210E+03 -0.10832389816E+03  0.36947563084E+03  0.12500000000E+03 0.  0.
</event>
<event>
 5    0  0.5612316E-005  0.6649514E+03  0.7546771E-02  0.9779121E-01
         21   -1    0    0  502  501  0.00000000000E+00  0.00000000000E+00  0.27776002172E+03  0.27776002172E+03  0.00000000000E+00 0. -1.
         21   -1    0    0  501  502 -0.00000000000E+00 -0.00000000000E+00 -0.15918790656E+04  0.15918790656E+04  0.00000000000E+00 0. -1.
         25    1    1    2    0    0  0.72060220454E+02  0.29673030967E+03  0.64232273008E+02  0.33614332798E+03  0.12500000000E+03 0.  0.
         25    1    1    2    0    0 -0.19297775148E+03  0.55134238267E+02 -0.80246949560E+03  0.83657784346E+03  0.12500000000E+03 0.  0.
         25    1    1    2    0    0  0.12091753102E+03 -0.35186454794E+03 -0.57588182129E+03  0.69691791590E+03  0.12500000000E+03 0.  0.
</event>
<event>
 5    0  0.6206358E-005  0.2767232E+03  0.7546771E-02  0.1097492E+00
         21   -1    0    0  502  501  0.00000000000E+00  0.00000000000E+00  0.72354807413E+03  0.72354807413E+03  0.00000000000E+00 0. -1.
         21   -1    0    0  501  502 -0.00000000000E+00 -0.00000000000E+00 -0.10583360631E+03  0.10583360631E+03  0.00000000000E+00 0. -1.
         25    1    1    2    0    0  0.71325168362E+02  0.61791013676E+02  0.16605389573E+03  0.22826367495E+03  0.12500000000E+03 0.  0.
         25    1    1    2    0    0  0.54959622382E+02  0.86359618392E+02  0.22709382764E+03  0.27870261989E+03  0.12500000000E+03 0.  0.
         25    1    1    2    0    0 -0.12628479074E+03 -0.14815063207E+03  0.22456674445E+03  0.32241538559E+03  0.12500000000E+03 0.  0.
</event>
<event>
 5    0  0.5612316E-005  0.3923395E+03  0.7546771E-02  0.1046465E+00
         21   -1    0    0  502  501  0.00000000000E+00  0.00000000000E+00  0.17634998443E+03  0.17634998443E+03  0.00000000000E+00 0.  1.
         21   -1    0    0  501  502 -0.00000000000E+00 -0.00000000000E+00 -0.87286794361E+03  0.87286794361E+03  0.00000000000E+00 0.  1.
         25    1    1    2    0    0  0.12381098055E+03 -0.38882727670E+02 -0.38046692700E+03  0.42097637458E+03  0.12500000000E+03 0.  0.
         25    1    1    2    0    0 -0.73750101644E+02  0.62609753976E+02  0.10218934638E+03  0.18821987488E+03  0.12500000000E+03 0.  0.
         25    1    1    2    0    0 -0.50060878901E+02 -0.23727026306E+02 -0.41824037855E+03  0.44002167859E+03  0.12500000000E+03 0.  0.
</event>
<event>
 5    0  0.5612316E-005  0.2431721E+03  0.7546771E-02  0.1117698E+00
         21   -1    0    0  502  501  0.00000000000E+00  0.00000000000E+00  0.21617111712E+03  0.21617111712E+03  0.00000000000E+00 0. -1.
         21   -1    0    0  501  502 -0.00000000000E+00 -0.00000000000E+00 -0.27354557695E+03  0.27354557695E+03  0.00000000000E+00 0. -1.
         25    1    1    2    0    0  0.28063029664E+02  0.56010110136E+02  0.19264574605E+02  0.14114102843E+03  0.12500000000E+03 0.  0.
         25    1    1    2    0    0  0.25368518306E+02 -0.12649447717E+03 -0.54762514564E+01  0.17972034889E+03  0.12500000000E+03 0.  0.
         25    1    1    2    0    0 -0.53431547970E+02  0.70484367032E+02 -0.71162782979E+02  0.16885531675E+03  0.12500000000E+03 0.  0.
</event>
<event>
 5    0  0.5612316E-005  0.3835932E+03  0.7546771E-02  0.1049614E+00
         21   -1    0    0  502  501  0.00000000000E+00  0.00000000000E+00  0.50968162478E+03  0.50968162478E+03  0.00000000000E+00 0. -1.
         21   -1    0    0  501  502 -0.00000000000E+00 -0.00000000000E+00 -0.28869733296E+03  0.28869733296E+03  0.00000000000E+00 0. -1.
         25    1    1    2    0    0  0.21679301870E+03  0.13632575555E+03 -0.10408022263E+03  0.30338361414E+03  0.12500000000E+03 0.  0.
         25    1    1    2    0    0 -0.75463552770E+02 -0.45043041203E+02  0.19720486797E+03  0.24947621792E+03  0.12500000000E+03 0.  0.
         25    1    1    2    0    0 -0.14132946593E+03 -0.91282714345E+02  0.12785964648E+03  0.24551912569E+03  0.12500000000E+03 0.  0.
</event>
<event>
 5    0  0.5612316E-005  0.3190843E+03  0.7546771E-02  0.1076072E+00
         21   -1    0    0  502  501  0.00000000000E+00  0.00000000000E+00  0.22713894454E+03  0.22713894454E+03  0.00000000000E+00 0.  1.
         21   -1    0    0  501  502 -0.00000000000E+00 -0.00000000000E+00 -0.44824895078E+03  0.44824895078E+03  0.00000000000E+00 0.  1.
         25    1    1    2    0    0  0.91024279047E+02  0.38877815089E+02  0.10646789364E+03  0.19172197646E+03  0.12500000000E+03 0.  0.
         25    1    1    2    0    0  0.57043551054E+02  0.42130569747E+02 -0.15923759137E+03  0.21450072757E+03  0.12500000000E+03 0.  0.
         25    1    1    2    0    0 -0.14806783010E+03 -0.81008384836E+02 -0.16834030852E+03  0.26916519128E+03  0.12500000000E+03 0.  0.
</event>
<event>
 5    0  0.5612316E-005  0.2524507E+03  0.7546771E-02  0.1111766E+00
         21   -1    0    0  502  501  0.00000000000E+00  0.00000000000E+00  0.76720569594E+03  0.76720569594E+03  0.00000000000E+00 0.  1.
         21   -1    0    0  501  502 -0.00000000000E+00 -0.00000000000E+00 -0.83069422883E+02  0.83069422883E+02  0.00000000000E+00 0.  1.
         25    1    1    2    0    0 -0.21731431128E+02 -0.11013398886E+03  0.12863142463E+03  0.21159582699E+03  0.12500000000E+03 0.  0.
         25    1    1    2    0    0  0.76372211448E+02  0.54959131450E+02  0.37126472665E+03  0.40288424896E+03  0.12500000000E+03 0.  0.
         25    1    1    2    0    0 -0.54640780320E+02  0.55174857407E+02  0.18424012178E+03  0.23579504286E+03  0.12500000000E+03 0.  0.
</event>
<event>
 5    0  0.5612316E-005  0.3481337E+03  0.7546771E-02  0.1063384E+00
         21   -1    0    0  502  501  0.00000000000E+00  0.00000000000E+00  0.12828612695E+04  0.12828612695E+04  0.00000000000E+00 0.  1.
         21   -1    0    0  501  502 -0.00000000000E+00 -0.00000000000E+00 -0.94474053185E+02  0.94474053185E+02  0.00000000000E+00 0.  1.
         25    1    1    2    0    0 -0.70110379874E+02 -0.24456463737E+03  0.67625626848E+03  0.73326316413E+03  0.12500000000E+03 0.  0.
         25    1    1    2    0    0  0.59419658242E+02  0.20255469154E+03  0.24898719025E+03  0.34954072690E+03  0.12500000000E+03 0.  0.
         25    1    1    2    0    0  0.10690721631E+02  0.42009945827E+02  0.26314375759E+03  0.29453143166E+03  0.12500000000E+03 0.  0.
</event>
<event>
 5    0  0.5612316E-005  0.4905796E+03  0.7546771E-02  0.1016267E+00
         21   -1    0    0  502  501  0.00000000000E+00  0.00000000000E+00  0.12912884708E+04  0.12912884708E+04  0.00000000000E+00 0.  1.
         21   -1    0    0  501  502 -0.00000000000E+00 -0.00000000000E+00 -0.18637845386E+03  0.18637845386E+03  0.00000000000E+00 0.  1.
         25    1    1    2    0    0 -0.30949233139E+03  0.71656404204E+01  0.27003683848E+03  0.42939695357E+03  0.12500000000E+03 0.  0.
         25    1    1    2    0    0  0.11371313894E+03  0.23832521173E+03  0.33028508600E+03  0.44095671278E+03  0.12500000000E+03 0.  0.
         25    1    1    2    0    0  0.19577919245E+03 -0.24549085215E+03  0.50458809250E+03  0.60731325836E+03  0.12500000000E+03 0.  0.
</event>
<event>
 5    0  0.5612316E-005  0.2617281E+03  0.7546771E-02  0.1106109E+00
         21   -1    0    0  502  501  0.00000000000E+00  0.00000000000E+00  0.70151367576E+03  0.70151367576E+03  0.00000000000E+00 0.  1.
         21   -1    0    0  501  502 -0.00000000000E+00 -0.00000000000E+00 -0.97648275027E+02  0.97648275027E+02  0.00000000000E+00 0.  1.
         25    1    1    2    0    0 -0.25746788582E+02  0.38064591451E+02  0.30786082028E+03  0.33543269803E+03  0.12500000000E+03 0.  0.
         25    1    1    2    0    0 -0.10189500628E+03 -0.53407068386E+02  0.96068992416E+02  0.19516443980E+03  0.12500000000E+03 0.  0.
         25    1    1    2    0    0  0.12764179486E+03  0.15342476936E+02  0.19993558804E+03  0.26856481296E+03  0.12500000000E+03 0.  0.
</event>
<event>
 5    0  0.5612316E-005  0.3417008E+03  0.7546771E-02  0.1066074E+00
         21   -1    0    0  502  501  0.00000000000E+00  0.00000000000E+00  0.58822420377E+03  0.58822420377E+03  0.00000000000E+00 0.  1.
         21   -1    0    0  501  502 -0.00000000000E+00 -0.00000000000E+00 -0.19849474892E+03  0.19849474892E+03  0.00000000000E+00 0.  1.
         25    1    1    2    0    0  0.44853564330E+02  0.11713522929E+03  0.10011809877E+02  0.17736330091E+03  0.12500000000E+03 0.  0.
         25    1    1    2    0    0  0.13858040357E+03 -0.16396162261E+03  0.22088017770E+03  0.33241689915E+03  0.12500000000E+03 0.  0.
         25    1    1    2    0    0 -0.18343396790E+03  0.46826393325E+02  0.15883746728E+03  0.27693875262E+03  0.12500000000E+03 0.  0.
</event>
<event>
 5    0  0.5612316E-005  0.3457702E+03  0.7546771E-02  0.1064365E+00
         21   -1    0    0  502  501  0.00000000000E+00  0.00000000000E+00  0.10045452287E+03  0.10045452287E+03  0.00000000000E+00 0. -1.
         21   -1    0    0  501  502 -0.00000000000E+00 -0.00000000000E+00 -0.11901607800E+04  0.11901607800E+04  0.00000000000E+00 0. -1.
         25    1    1    2    0    0 -0.14758501276E+02 -0.14582128505E+03 -0.54916552466E+03  0.58197030337E+03  0.12500000000E+03 0.  0.
         25    1    1    2    0    0  0.59707665868E+02 -0.14073153808E+02 -0.46832195015E+03  0.48858316387E+03  0.12500000000E+03 0.  0.
         25    1    1    2    0    0 -0.44949164592E+02  0.15989443886E+03 -0.72218782315E+02  0.22006183562E+03  0.12500000000E+03 0.  0.
</event>
<event>
 5    0  0.5612316E-005  0.4016429E+03  0.7546771E-02  0.1043212E+00
         21   -1    0    0  502  501  0.00000000000E+00  0.00000000000E+00  0.40963370387E+03  0.40963370387E+03  0.00000000000E+00 0. -1.
         21   -1    0    0  501  502 -0.00000000000E+00 -0.00000000000E+00 -0.39380800751E+03  0.39380800751E+03  0.00000000000E+00 0. -1.
         25    1    1    2    0    0  0.14545802876E+03 -0.30012416426E+02 -0.89205789637E+02  0.21363861116E+03  0.12500000000E+03 0.  0.
         25    1    1    2    0    0 -0.31775631736E+03 -0.12538375257E+01  0.14500015533E+03  0.37097263293E+03  0.12500000000E+03 0.  0.
         25    1    1    2    0    0  0.17229828860E+03  0.31266253952E+02 -0.39968669332E+02  0.21883046730E+03  0.12500000000E+03 0.  0.
</event>
<event>
 5    0  0.5612316E-005  0.2987661E+03  0.7546771E-02  0.1085859E+00
         21   -1    0    0  502  501  0.00000000000E+00  0.00000000000E+00  0.15566392295E+04  0.15566392295E+04  0.00000000000E+00 0.  1.
         21   -1    0    0  501  502 -0.00000000000E+00 -0.00000000000E+00 -0.57342238019E+02  0.57342238019E+02  0.00000000000E+00 0.  1.
         25    1    1    2    0    0  0.72898793477E+02 -0.95026070514E+02  0.14339488267E+03  0.22479163806E+03  0.12500000000E+03 0.  0.
         25    1    1    2    0    0 -0.49738699901E+02  0.11704709761E+01  0.80126888297E+03  0.81248515746E+03  0.12500000000E+03 0.  0.
         25    1    1    2    0    0 -0.23160093575E+02  0.93855599538E+02  0.55463322588E+03  0.57670467203E+03  0.12500000000E+03 0.  0.
</event>
<event>
 5    0  0.6919969E-005  0.3339461E+03  0.7546771E-02  0.1069404E+00
         21   -1    0    0  502  501  0.00000000000E+00  0.00000000000E+00  0.19697824166E+03  0.19697824166E+03  0.00000000000E+00 0.  1.
         21   -1    0    0  501  502 -0.00000000000E+00 -0.00000000000E+00 -0.56615378663E+03  0.56615378663E+03  0.00000000000E+00 0.  1.
         25    1    1    2    0    0  0.44959899214E+02  0.15969076331E+03 -0.51469679282E+02  0.21400154277E+03  0.12500000000E+03 0.  0.
         25    1    1    2    0    0  0.78095781878E+02 -0.38772545959E+02 -0.29857970666E+03  0.33522694208E+03  0.12500000000E+03 0.  0.
         25    1    1    2    0    0 -0.12305568109E+03 -0.12091821735E+03 -0.19126159035E+02  0.21390354344E+03  0.12500000000E+03 0.  0.
</event>
<event>
 5    0  0.5612316E-005  0.2573612E+03  0.7546771E-02  0.1108739E+00
         21   -1    0    0  502  501  0.00000000000E+00  0.00000000000E+00  0.11943725783E+03  0.11943725783E+03  0.00000000000E+00 0. -1.
         21   -1    0    0  501  502 -0.00000000000E+00 -0.00000000000E+00 -0.55455701480E+03  0.55455701480E+03  0.00000000000E+00 0. -1.
         25    1    1    2    0    0  0.86308430705E+02  0.11017251385E+02 -0.30554565376E+03  0.34139957758E+03  0.12500000000E+03 0.  0.
         25    1    1    2    0    0 -0.11754235240E+03 -0.20975473812E+02 -0.46636803915E+02  0.17904235976E+03  0.12500000000E+03 0.  0.
         25    1    1    2    0    0  0.31233921693E+02  0.99582224274E+01 -0.82937299289E+02  0.15355233529E+03  0.12500000000E+03 0.  0.
</event>
<event>
 5    0  0.5612316E-005  0.3041905E+03  0.7546771E-02  0.1083164E+00
         21   -1    0    0  502  501  0.00000000000E+00  0.00000000000E+00  0.14321648807E+03  0.14321648807E+03  0.00000000000E+00 0.  1.
         21   -1    0    0  501  502 -0.00000000000E+00 -0.00000000000E+00 -0.64609800153E+03  0.64609800153E+03  0.00000000000E+00 0.  1.
         25    1    1    2    0    0 -0.16332802029E+02 -0.24385137661E+01 -0.33493936455E+03  0.35788557487E+03  0.12500000000E+03 0.  0.
         25    1    1    2    0    0 -0.45539912110E+01  0.13762616525E+03 -0.16102178508E+03  0.24599738915E+03  0.12500000000E+03 0.  0.
         25    1    1    2    0    0  0.20886793240E+02 -0.13518765148E+03 -0.69203638357E+01  0.18543152559E+03  0.12500000000E+03 0.  0.
</event>
<event>
 5    0  0.5612316E-005  0.2638243E+03  0.7546771E-02  0.1104867E+00
         21   -1    0    0  502  501  0.00000000000E+00  0.00000000000E+00  0.40120349322E+03  0.40120349322E+03  0.00000000000E+00 0. -1.
         21   -1    0    0  501  502 -0.00000000000E+00 -0.00000000000E+00 -0.17348623342E+03  0.17348623342E+03  0.00000000000E+00 0. -1.
         25    1    1    2    0    0  0.21487304093E+02 -0.70023914842E+02  0.74904682113E+01  0.14507294717E+03  0.12500000000E+03 0.  0.
         25    1    1    2    0    0  0.11946956232E+03  0.29652535226E+02  0.11881783449E+03  0.21188423008E+03  0.12500000000E+03 0.  0.
         25    1    1    2    0    0 -0.14095686641E+03  0.40371379617E+02  0.10140895710E+03  0.21773254939E+03  0.12500000000E+03 0.  0.
</event>
<event>
 5    0  0.5612316E-005  0.2511145E+03  0.7546771E-02  0.1112602E+00
         21   -1    0    0  502  501  0.00000000000E+00  0.00000000000E+00  0.49206226770E+03  0.49206226770E+03  0.00000000000E+00 0. -1.
         21   -1    0    0  501  502 -0.00000000000E+00 -0.00000000000E+00 -0.12815146582E+03  0.12815146582E+03  0.00000000000E+00 0. -1.
         25    1    1    2    0    0 -0.45520383745E+02  0.70861324910E+02  0.37908502539E+02  0.15542035668E+03  0.12500000000E+03 0.  0.
         25    1    1    2    0    0 -0.54174113897E+02 -0.74032147684E+02  0.23276686412E+03  0.27968018618E+03  0.12500000000E+03 0.  0.
         25    1    1    2    0    0  0.99694497642E+02  0.31708227742E+01  0.93235435230E+02  0.18511319067E+03  0.12500000000E+03 0.  0.
</event>
<event>
 5    0  0.5612316E-005  0.4443876E+03  0.7546771E-02  0.1029409E+00
         21   -1    0    0  502  501  0.00000000000E+00  0.00000000000E+00  0.20447124887E+04  0.20447124887E+04  0.00000000000E+00 0.  1.
         21   -1    0    0  501  502 -0.00000000000E+00 -0.00000000000E+00 -0.96580971219E+02  0.96580971219E+02  0.00000000000E+00 0. -1.
         25    1    1    2    0    0 -0.24729893575E+03 -0.41238028968E+02  0.56049272280E+03  0.62660548272E+03  0.12500000000E+03 0.  0.
         25    1    1    2    0    0  0.38356720722E+03  0.94921691566E+02  0.92705736191E+03  0.10154773667E+04  0.12500000000E+03 0.  0.
         25    1    1    2    0    0 -0.13626827148E+03 -0.53683662599E+02  0.46058143280E+03  0.49921061055E+03  0.12500000000E+03 0.  0.
</event>
<event>
 5    0  0.5908826E-005  0.2765491E+03  0.7546771E-02  0.1097589E+00
         21   -1    0    0  502  501  0.00000000000E+00  0.00000000000E+00  0.44758133119E+03  0.44758133119E+03  0.00000000000E+00 0.  1.
         21   -1    0    0  501  502 -0.00000000000E+00 -0.00000000000E+00 -0.17087264357E+03  0.17087264357E+03  0.00000000000E+00 0.  1.
         25    1    1    2    0    0 -0.60427816975E+02 -0.79160465810E+02  0.15907200572E+03  0.22549235778E+03  0.12500000000E+03 0.  0.
         25    1    1    2    0    0  0.12926715338E+03 -0.33851184765E+02  0.14041017221E+02  0.18351580264E+03  0.12500000000E+03 0.  0.
         25    1    1    2    0    0 -0.68839336407E+02  0.11301165058E+03  0.10359566468E+03  0.20944581434E+03  0.12500000000E+03 0.  0.
</event>
<event>
 5    0  0.5612316E-005  0.3333467E+03  0.7546771E-02  0.1069666E+00
         21   -1    0    0  502  501  0.00000000000E+00  0.00000000000E+00  0.11135935530E+03  0.11135935530E+03  0.00000000000E+00 0.  1.
         21   -1    0    0  501  502 -0.00000000000E+00 -0.00000000000E+00 -0.99785067811E+03  0.99785067811E+03  0.00000000000E+00 0.  1.
         25    1    1    2    0    0  0.38659175804E+02 -0.21573868757E+02 -0.54223857796E+01  0.13271912430E+03  0.12500000000E+03 0.  0.
         25    1    1    2    0    0 -0.14558975732E+03 -0.91238030413E+02 -0.35308134177E+03  0.41208274599E+03  0.12500000000E+03 0.  0.
         25    1    1    2    0    0  0.10693058152E+03  0.11281189917E+03 -0.52798759526E+03  0.56440816313E+03  0.12500000000E+03 0.  0.
</event>
<event>
 5    0  0.5612316E-005  0.2297979E+03  0.7546771E-02  0.1126782E+00
         21   -1    0    0  502  501  0.00000000000E+00  0.00000000000E+00  0.88053021290E+02  0.88053021290E+02  0.00000000000E+00 0. -1.
         21   -1    0    0  501  502 -0.00000000000E+00 -0.00000000000E+00 -0.59971886949E+03  0.59971886949E+03  0.00000000000E+00 0. -1.
         25    1    1    2    0    0 -0.22784171854E+01  0.10484628999E+03 -0.28460892140E+03  0.32806275901E+03  0.12500000000E+03 0.  0.
         25    1    1    2    0    0 -0.49541606310E+00 -0.55367501174E+02 -0.15667809287E+03  0.20793948738E+03  0.12500000000E+03 0.  0.
         25    1    1    2    0    0  0.27738332485E+01 -0.49478788819E+02 -0.70378833922E+02  0.15176964439E+03  0.12500000000E+03 0.  0.
</event>
<event>
 5    0  0.5612316E-005  0.2115460E+03  0.7546771E-02  0.1140348E+00
         21   -1    0    0  502  501  0.00000000000E+00  0.00000000000E+00  0.61915288647E+03  0.61915288647E+03  0.00000000000E+00 0.  1.
         21   -1    0    0  501  502 -0.00000000000E+00 -0.00000000000E+00 -0.72278904103E+02  0.72278904103E+02  0.00000000000E+00 0.  1.
         25    1    1    2    0    0 -0.36756993613E+02 -0.11083090027E+02  0.20928831075E+03  0.24678028381E+03  0.12500000000E+03 0.  0.
         25    1    1    2    0    0  0.76349382120E+02  0.33165276244E+02  0.22449090947E+03  0.27009319157E+03  0.12500000000E+03 0.  0.
         25    1    1    2    0    0 -0.39592388507E+02 -0.22082186217E+02  0.11309476216E+03  0.17455831519E+03  0.12500000000E+03 0.  0.
</event>
<event>
 5    0  0.5612316E-005  0.3910239E+03  0.7546771E-02  0.1046933E+00
         21   -1    0    0  502  501  0.00000000000E+00  0.00000000000E+00  0.44442323119E+03  0.44442323119E+03  0.00000000000E+00 0.  1.
         21   -1    0    0  501  502 -0.00000000000E+00 -0.00000000000E+00 -0.34404071330E+03  0.34404071330E+03  0.00000000000E+00 0.  1.
         25    1    1    2    0    0  0.29874065628E+03 -0.11244727158E+03  0.99278849616E+02  0.35689166225E+03  0.12500000000E+03 0.  0.
         25    1    1    2    0    0 -0.66103217203E+02  0.86662644401E+01  0.34649189728E+02  0.14584342910E+03  0.12500000000E+03 0.  0.
         25    1    1    2    0    0 -0.23263743908E+03  0.10378100714E+03 -0.33545521462E+02  0.28572885314E+03  0.12500000000E+03 0.  0.
</event>
<event>
 5    0  0.5612316E-005  0.2526012E+03  0.7546771E-02  0.1111672E+00
         21   -1    0    0  502  501  0.00000000000E+00  0.00000000000E+00  0.58755961881E+02  0.58755961881E+02  0.00000000000E+00 0. -1.
         21   -1    0    0  501  502 -0.00000000000E+00 -0.00000000000E+00 -0.10859726197E+04  0.10859726197E+04  0.00000000000E+00 0. -1.
         25    1    1    2    0    0 -0.79632978902E+02 -0.68558101574E+01 -0.30327209424E+03  0.33762016618E+03  0.12500000000E+03 0.  0.
         25    1    1    2    0    0 -0.63439106550E+02 -0.63285114891E+02 -0.29124384316E+03  0.32935922970E+03  0.12500000000E+03 0.  0.
         25    1    1    2    0    0  0.14307208545E+03  0.70140925049E+02 -0.43270072045E+03  0.47774918575E+03  0.12500000000E+03 0.  0.
</event>
<event>
 5    0  0.5612316E-005  0.4618174E+03  0.7546771E-02  0.1024255E+00
         21   -1    0    0  502  501  0.00000000000E+00  0.00000000000E+00  0.90619181788E+03  0.90619181788E+03  0.00000000000E+00 0.  1.
         21   -1    0    0  501  502 -0.00000000000E+00 -0.00000000000E+00 -0.23535336822E+03  0.23535336822E+03  0.00000000000E+00 0.  1.
         25    1    1    2    0    0 -0.12923300959E+03 -0.36041694870E+03  0.25874554763E+03  0.47872309961E+03  0.12500000000E+03 0.  0.
         25    1    1    2    0    0  0.59592450649E+02  0.34754986279E+03  0.27581923404E+03  0.46480470863E+03  0.12500000000E+03 0.  0.
         25    1    1    2    0    0  0.69640558938E+02  0.12867085911E+02  0.13627366799E+03  0.19801737787E+03  0.12500000000E+03 0.  0.
</event>
<event>
 5    0  0.5612316E-005  0.2899743E+03  0.7546771E-02  0.1090363E+00
         21   -1    0    0  502  501  0.00000000000E+00  0.00000000000E+00  0.18043234416E+03  0.18043234416E+03  0.00000000000E+00 0.  1.
         21   -1    0    0  501  502 -0.00000000000E+00 -0.00000000000E+00 -0.46602010382E+03  0.46602010382E+03  0.00000000000E+00 0.  1.
         25    1    1    2    0    0 -0.56976434348E+02  0.17396175046E+03 -0.12062016814E+03  0.25235536383E+03  0.12500000000E+03 0.  0.
         25    1    1    2    0    0  0.55832914579E+02 -0.16365909126E+03 -0.40090257666E+02  0.21710329630E+03  0.12500000000E+03 0.  0.
         25    1    1    2    0    0  0.11435197696E+01 -0.10302659194E+02 -0.12487733386E+03  0.17699378784E+03  0.12500000000E+03 0.  0.
</event>
<event>
 5    0  0.6242922E-005  0.3014985E+03  0.7546771E-02  0.1084494E+00
         21   -1    0    0  502  501  0.00000000000E+00  0.00000000000E+00  0.32223654853E+03  0.32223654853E+03  0.00000000000E+00 0.  1.
         21   -1    0    0  501  502 -0.00000000000E+00 -0.00000000000E+00 -0.28209517188E+03  0.28209517188E+03  0.00000000000E+00 0.  1.
         25    1    1    2    0    0 -0.70139316328E+02  0.75542025966E+02 -0.66581156973E+02  0.17516898083E+03  0.12500000000E+03 0.  0.
         25    1    1    2    0    0 -0.39834622517E+02  0.10384965918E+03  0.71246988042E+02  0.18185896230E+03  0.12500000000E+03 0.  0.
         25    1    1    2    0    0  0.10997393884E+03 -0.17939168514E+03  0.35475545587E+02  0.24730377728E+03  0.12500000000E+03 0.  0.
</event>
<event>
 5    0  0.5612316E-005  0.2646288E+03  0.7546771E-02  0.1104394E+00
         21   -1    0    0  502  501  0.00000000000E+00  0.00000000000E+00  0.57542936247E+03  0.57542936247E+03  0.00000000000E+00 0. -1.
         21   -1    0    0  501  502 -0.00000000000E+00 -0.00000000000E+00 -0.12169763376E+03  0.12169763376E+03  0.00000000000E+00 0. -1.
         25    1    1    2    0    0  0.81401791854E+01  0.10412101144E+03  0.29986981853E+03  0.34125409244E+03  0.12500000000E+03 0.  0.
         25    1    1    2    0    0 -0.86511698033E+02 -0.28817669679E+02  0.84482174669E+02  0.17628661271E+03  0.12500000000E+03 0.  0.
         25    1    1    2    0    0  0.78371518847E+02 -0.75303341756E+02  0.69379735509E+02  0.17958629108E+03  0.12500000000E+03 0.  0.
</event>
<event>
 5    0  0.5612316E-005  0.2923331E+03  0.7546771E-02  0.1089137E+00
         21   -1    0    0  502  501  0.00000000000E+00  0.00000000000E+00  0.64932682691E+03  0.64932682691E+03  0.00000000000E+00 0.  1.
         21   -1    0    0  501  502 -0.00000000000E+00 -0.00000000000E+00 -0.13161109163E+03  0.13161109163E+03  0.00000000000E+00 0.  1.
         25    1    1    2    0    0  0.63165574511E+02 -0.54060887842E+02  0.92393508562E+02  0.17627827382E+03  0.12500000000E+03 0.  0.
         25    1    1    2    0    0  0.12609296536E+03  0.91381582088E+02  0.18777776037E+03  0.27410858569E+03  0.12500000000E+03 0.  0.
         25    1    1    2    0    0 -0.18925853987E+03 -0.37320694246E+02  0.23754446635E+03  0.33055105903E+03  0.12500000000E+03 0.  0.
</event>
<event>
 5    0  0.5612316E-005  0.2869269E+03  0.7546771E-02  0.1091965E+00
         21   -1    0    0  502  501  0.00000000000E+00  0.00000000000E+00  0.64959521822E+02  0.64959521822E+02  0.00000000000E+00 0.  1.
         21   -1    0    0  501  502 -0.00000000000E+00 -0.00000000000E+00 -0.12673594878E+04  0.12673594878E+04  0.00000000000E+00 0.  1.
         25    1    1    2    0    0  0.68764998983E+02 -0.17408183691E+02 -0.81562510191E+03  0.82819138900E+03  0.12500000000E+03 0.  0.
         25    1    1    2    0    0  0.62158505593E+02  0.26335652210E+02 -0.17407962614E+03  0.22469081563E+03  0.12500000000E+03 0.  0.
         25    1    1    2    0    0 -0.13092350458E+03 -0.89274685189E+01 -0.21269523793E+03  0.27943680499E+03  0.12500000000E+03 0.  0.
</event>
<event>
 5    0  0.5612316E-005  0.3232645E+03  0.7546771E-02  0.1074157E+00
         21   -1    0    0  502  501  0.00000000000E+00  0.00000000000E+00  0.86372697853E+03  0.86372697853E+03  0.00000000000E+00 0.  1.
         21   -1    0    0  501  502 -0.00000000000E+00 -0.00000000000E+00 -0.12098726944E+03  0.12098726944E+03  0.00000000000E+00 0.  1.
         25    1    1    2    0    0 -0.87213547981E+02 -0.12454521625E+03  0.16017317262E+03  0.25376792364E+03  0.12500000000E+03 0.  0.
         25    1    1    2    0    0  0.15029891754E+03  0.34030392429E+02  0.51345671417E+03  0.55046401295E+03  0.12500000000E+03 0.  0.
         25    1    1    2    0    0 -0.63085369561E+02  0.90514823820E+02  0.69109822305E+02  0.18048231138E+03  0.12500000000E+03 0.  0.
</event>
<event>
 5    0  0.5612316E-005  0.3290776E+03  0.7546771E-02  0.1071546E+00
         21   -1    0    0  502  501  0.00000000000E+00  0.00000000000E+00  0.17015365692E+03  0.17015365692E+03  0.00000000000E+00 0. -1.
         21   -1    0    0  501  502 -0.00000000000E+00 -0.00000000000E+00 -0.63643701952E+03  0.63643701952E+03  0.00000000000E+00 0. -1.
         25    1    1    2    0    0 -0.11606411511E+03  0.16033464746E+03 -0.28898340296E+03  0.37190655437E+03  0.12500000000E+03 0.  0.
         25    1    1    2    0    0  0.14596237338E+03 -0.60733842801E+02 -0.10606516149E+02  0.20181950423E+03  0.12500000000E+03 0.  0.
         25    1    1    2    0    0 -0.29898258276E+02 -0.99600804663E+02 -0.16669344349E+03  0.23286461784E+03  0.12500000000E+03 0.  0.
</event>
<event>
 5    0  0.5612316E-005  0.2617858E+03  0.7546771E-02  0.1106075E+00
         21   -1    0    0  502  501  0.00000000000E+00  0.00000000000E+00  0.70985790165E+02  0.70985790165E+02  0.00000000000E+00 0.  1.
         21   -1    0    0  501  502 -0.00000000000E+00 -0.00000000000E+00 -0.96543026760E+03  0.96543026760E+03  0.00000000000E+00 0.  1.
         25    1    1    2    0    0  0.11348315861E+03  0.64457596665E+02 -0.32117712778E+03  0.36852809454E+03  0.12500000000E+03 0.  0.
         25    1    1    2    0    0 -0.11304969750E+03 -0.86685144214E+02 -0.46088798968E+03  0.49833451352E+03  0.12500000000E+03 0.  0.
         25    1    1    2    0    0 -0.43346110632E+00  0.22227547549E+02 -0.11237935998E+03  0.16955344971E+03  0.12500000000E+03 0.  0.
</event>
<event>
 5    0  0.5612316E-005  0.2851752E+03  0.7546771E-02  0.1092895E+00
         21   -1    0    0  502  501  0.00000000000E+00  0.00000000000E+00  0.21058543563E+04  0.21058543563E+04  0.00000000000E+00 0. -1.
         21   -1    0    0  501  502 -0.00000000000E+00 -0.00000000000E+00 -0.38618468201E+02  0.38618468201E+02  0.00000000000E+00 0. -1.
         25    1    1    2    0    0 -0.55399523632E+02  0.13060402351E+03  0.66046248044E+03  0.68699505547E+03  0.12500000000E+03 0.  0.
         25    1    1    2    0    0  0.72415449385E+02  0.55468226442E+02  0.63895376501E+03  0.65742500354E+03  0.12500000000E+03 0.  0.
         25    1    1    2    0    0 -0.17015925753E+02 -0.18607224996E+03  0.76781964269E+03  0.80005276553E+03  0.12500000000E+03 0.  0.
</event>
<event>
 5    0  0.5612316E-005  0.3317796E+03  0.7546771E-02  0.1070352E+00
         21   -1    0    0  502  501  0.00000000000E+00  0.00000000000E+00  0.92342202233E+02  0.92342202233E+02  0.00000000000E+00 0.  1.
         21   -1    0    0  501  502 -0.00000000000E+00 -0.00000000000E+00 -0.11920630046E+04  0.11920630046E+04  0.00000000000E+00 0.  1.
         25    1    1    2    0    0  0.50826196934E+01 -0.15882122026E+03 -0.28106958624E+03  0.34622987355E+03  0.12500000000E+03 0.  0.
         25    1    1    2    0    0 -0.11403568150E+03  0.78559294955E+02 -0.13535642209E+03  0.23048223463E+03  0.12500000000E+03 0.  0.
         25    1    1    2    0    0  0.10895306181E+03  0.80261925301E+02 -0.68329479409E+03  0.70769309871E+03  0.12500000000E+03 0.  0.
</event>
<event>
 5    0  0.5612316E-005  0.3553006E+03  0.7546771E-02  0.1060460E+00
         21   -1    0    0  502  501  0.00000000000E+00  0.00000000000E+00  0.22443239039E+03  0.22443239039E+03  0.00000000000E+00 0.  1.
         21   -1    0    0  501  502 -0.00000000000E+00 -0.00000000000E+00 -0.56247909367E+03  0.56247909367E+03  0.00000000000E+00 0.  1.
         25    1    1    2    0    0  0.18308394717E+02  0.77894483908E+02 -0.54203326583E+01  0.14851642315E+03  0.12500000000E+03 0.  0.
         25    1    1    2    0    0 -0.33171683581E+02  0.15855507923E+03  0.83540886492E+01  0.20478003941E+03  0.12500000000E+03 0.  0.
         25    1    1    2    0    0  0.14863288865E+02 -0.23644956314E+03 -0.34098045927E+03  0.43361502150E+03  0.12500000000E+03 0.  0.
</event>
<event>
 5    0  0.5612316E-005  0.2304959E+03  0.7546771E-02  0.1126291E+00
         21   -1    0    0  502  501  0.00000000000E+00  0.00000000000E+00  0.47166587533E+03  0.47166587533E+03  0.00000000000E+00 0. -1.
         21   -1    0    0  501  502 -0.00000000000E+00 -0.00000000000E+00 -0.11263986053E+03  0.11263986053E+03  0.00000000000E+00 0. -1.
         25    1    1    2    0    0  0.25125516573E+01  0.47357536501E+02  0.69738032008E+02  0.15078939713E+03  0.12500000000E+03 0.  0.
         25    1    1    2    0    0 -0.11536911938E+02 -0.11493544614E+03  0.21079626780E+03  0.27093047749E+03  0.12500000000E+03 0.  0.
         25    1    1    2    0    0  0.90243602805E+01  0.67577909636E+02  0.78491714988E+02  0.16258586123E+03  0.12500000000E+03 0.  0.
</event>
<event>
 5    0  0.5612316E-005  0.3885428E+03  0.7546771E-02  0.1047821E+00
         21   -1    0    0  502  501  0.00000000000E+00  0.00000000000E+00  0.16152485070E+03  0.16152485070E+03  0.00000000000E+00 0.  1.
         21   -1    0    0  501  502 -0.00000000000E+00 -0.00000000000E+00 -0.93462720530E+03  0.93462720530E+03  0.00000000000E+00 0.  1.
         25    1    1    2    0    0 -0.30551892974E+03  0.13402214945E+02 -0.35068515188E+03  0.48179509290E+03  0.12500000000E+03 0.  0.
         25    1    1    2    0    0  0.11525556740E+03  0.15433433145E+02 -0.51727016769E+02  0.17838923998E+03  0.12500000000E+03 0.  0.
         25    1    1    2    0    0  0.19026336234E+03 -0.28835648090E+02 -0.37069018595E+03  0.43596772312E+03  0.12500000000E+03 0.  0.
</event>
<event>
 5    0  0.5612316E-005  0.3129357E+03  0.7546771E-02  0.1078947E+00
         21   -1    0    0  502  501  0.00000000000E+00  0.00000000000E+00  0.11539971517E+04  0.11539971517E+04  0.00000000000E+00 0.  1.
         21   -1    0    0  501  502 -0.00000000000E+00 -0.00000000000E+00 -0.84860496851E+02  0.84860496851E+02  0.00000000000E+00 0.  1.
         25    1    1    2    0    0  0.34353597033E+02 -0.70293065870E+02  0.52510128688E+02  0.15653625252E+03  0.12500000000E+03 0.  0.
         25    1    1    2    0    0 -0.13092537983E+03  0.17084470074E+01  0.35291937889E+03  0.39663769598E+03  0.12500000000E+03 0.  0.
         25    1    1    2    0    0  0.96571782800E+02  0.68584618862E+02  0.66370714727E+03  0.68568370005E+03  0.12500000000E+03 0.  0.
</event>
<event>
 5    0  0.5612316E-005  0.2314967E+03  0.7546771E-02  0.1125591E+00
         21   -1    0    0  502  501  0.00000000000E+00  0.00000000000E+00  0.14484543703E+04  0.14484543703E+04  0.00000000000E+00 0.  1.
         21   -1    0    0  501  502 -0.00000000000E+00 -0.00000000000E+00 -0.36998548363E+02  0.36998548363E+02  0.00000000000E+00 0.  1.
         25    1    1    2    0    0  0.66230478223E+02  0.51661837179E+02  0.45658423935E+03  0.48078018813E+03  0.12500000000E+03 0.  0.
         25    1    1    2    0    0 -0.10966803845E+03 -0.66446837164E+02  0.56353341088E+03  0.59130124810E+03  0.12500000000E+03 0.  0.
         25    1    1    2    0    0  0.43437560222E+02  0.14784999985E+02  0.39133817172E+03  0.41337148245E+03  0.12500000000E+03 0.  0.
</event>
<event>
 5    0  0.5612316E-005  0.3832126E+03  0.7546771E-02  0.1049753E+00
         21   -1    0    0  502  501  0.00000000000E+00  0.00000000000E+00  0.38327245203E+03  0.38327245203E+03  0.00000000000E+00 0. -1.
         21   -1    0    0  501  502 -0.00000000000E+00 -0.00000000000E+00 -0.38315272838E+03  0.38315272838E+03  0.00000000000E+00 0. -1.
         25    1    1    2    0    0 -0.15563737698E+03  0.14191080969E+03  0.34218645624E+02  0.24730059994E+03  0.12500000000E+03 0.  0.
         25    1    1    2    0    0  0.21924628635E+02 -0.63899256960E+02 -0.20999685269E+03  0.25354976340E+03  0.12500000000E+03 0.  0.
         25    1    1    2    0    0  0.13371274835E+03 -0.78011552733E+02  0.17589793072E+03  0.26557481707E+03  0.12500000000E+03 0.  0.
</event>
<event>
 5    0  0.9408498E-005  0.3537782E+03  0.7546771E-02  0.1061075E+00
         21   -1    0    0  502  501  0.00000000000E+00  0.00000000000E+00  0.42825933833E+03  0.42825933833E+03  0.00000000000E+00 0.  1.
         21   -1    0    0  501  502 -0.00000000000E+00 -0.00000000000E+00 -0.29225058584E+03  0.29225058584E+03  0.00000000000E+00 0.  1.
         25    1    1    2    0    0  0.11285156385E+03  0.17754775258E+03  0.13946004421E+03  0.28166076021E+03  0.12500000000E+03 0.  0.
         25    1    1    2    0    0 -0.61098074874E+02 -0.94279374549E+02  0.14458754153E+03  0.22170280193E+03  0.12500000000E+03 0.  0.
         25    1    1    2    0    0 -0.51753488973E+02 -0.83268378032E+02 -0.14803883324E+03  0.21714636204E+03  0.12500000000E+03 0.  0.
</event>
<event>
 5    0  0.5612316E-005  0.2962409E+03  0.7546771E-02  0.1087135E+00
         21   -1    0    0  502  501  0.00000000000E+00  0.00000000000E+00  0.27048190469E+03  0.27048190469E+03  0.00000000000E+00 0.  1.
         21   -1    0    0  501  502 -0.00000000000E+00 -0.00000000000E+00 -0.32445296658E+03  0.32445296658E+03  0.00000000000E+00 0.  1.
         25    1    1    2    0    0  0.11868708258E+03  0.99489184693E+02 -0.31357124940E+02  0.20147702282E+03  0.12500000000E+03 0.  0.
         25    1    1    2    0    0 -0.14768842656E+03 -0.96073601745E+02 -0.10575169214E+03  0.24052116057E+03  0.12500000000E+03 0.  0.
         25    1    1    2    0    0  0.29001343980E+02 -0.34155829485E+01  0.83137755192E+02  0.15293668787E+03  0.12500000000E+03 0.  0.
</event>
<event>
 5    0  0.5612316E-005  0.3975564E+03  0.7546771E-02  0.1044629E+00
         21   -1    0    0  502  501  0.00000000000E+00  0.00000000000E+00  0.51724254917E+03  0.51724254917E+03  0.00000000000E+00 0. -1.
         21   -1    0    0  501  502 -0.00000000000E+00 -0.00000000000E+00 -0.30556468883E+03  0.30556468883E+03  0.00000000000E+00 0. -1.
         25    1    1    2    0    0  0.96280060001E+01 -0.32999984553E+03  0.90689906367E+02  0.36447531558E+03  0.12500000000E+03 0.  0.
         25    1    1    2    0    0  0.12454712062E+02  0.24166051984E+03  0.13322753691E+03  0.30319878511E+03  0.12500000000E+03 0.  0.
         25    1    1    2    0    0 -0.22082718062E+02  0.88339325693E+02 -0.12239582937E+02  0.15513313731E+03  0.12500000000E+03 0.  0.
</event>
<event>
 5    0  0.5612316E-005  0.3300763E+03  0.7546771E-02  0.1071103E+00
         21   -1    0    0  502  501  0.00000000000E+00  0.00000000000E+00  0.18433302633E+03  0.18433302633E+03  0.00000000000E+00 0.  1.
         21   -1    0    0  501  502 -0.00000000000E+00 -0.00000000000E+00 -0.59105172729E+03  0.59105172729E+03  0.00000000000E+00 0.  1.
         25    1    1    2    0    0  0.87289203547E+01  0.42942665067E+02 -0.21158253889E+03  0.24962459274E+03  0.12500000000E+03 0.  0.
         25    1    1    2    0    0 -0.79652299243E+02  0.24428980627E+02  0.10702439234E+03  0.18444642698E+03  0.12500000000E+03 0.  0.
         25    1    1    2    0    0  0.70923378888E+02 -0.67371645694E+02 -0.30216055440E+03  0.34131373391E+03  0.12500000000E+03 0.  0.
</event>
<event>
 5    0  0.5612316E-005  0.2813849E+03  0.7546771E-02  0.1094935E+00
         21   -1    0    0  502  501  0.00000000000E+00  0.00000000000E+00  0.22603776675E+03  0.22603776675E+03  0.00000000000E+00 0. -1.
         21   -1    0    0  501  502 -0.00000000000E+00 -0.00000000000E+00 -0.35028421148E+03  0.35028421148E+03  0.00000000000E+00 0. -1.
         25    1    1    2    0    0  0.11194311170E+03  0.61906426140E+02 -0.18908085122E+03  0.26026954135E+03  0.12500000000E+03 0.  0.
         25    1    1    2    0    0 -0.10595346570E+03 -0.70858645872E+01 -0.18414827262E+01  0.16402663634E+03  0.12500000000E+03 0.  0.
         25    1    1    2    0    0 -0.59896459920E+01 -0.54820561553E+02  0.66675889222E+02  0.15202580055E+03  0.12500000000E+03 0.  0.
</event>
<event>
 5    0  0.5612316E-005  0.2626646E+03  0.7546771E-02  0.1105553E+00
         21   -1    0    0  502  501  0.00000000000E+00  0.00000000000E+00  0.13516342458E+03  0.13516342458E+03  0.00000000000E+00 0. -1.
         21   -1    0    0  501  502 -0.00000000000E+00 -0.00000000000E+00 -0.51043923957E+03  0.51043923957E+03  0.00000000000E+00 0. -1.
         25    1    1    2    0    0 -0.62106002765E+02 -0.12127344768E+03 -0.13262189596E+03  0.22754773561E+03  0.12500000000E+03 0.  0.
         25    1    1    2    0    0  0.11040080307E+03  0.34723969352E+02 -0.73456902365E+02  0.18551282401E+03  0.12500000000E+03 0.  0.
         25    1    1    2    0    0 -0.48294800302E+02  0.86549478329E+02 -0.16919701666E+03  0.23254210454E+03  0.12500000000E+03 0.  0.
</event>
<event>
 5    0  0.5612316E-005  0.2353687E+03  0.7546771E-02  0.1122917E+00
         21   -1    0    0  502  501  0.00000000000E+00  0.00000000000E+00  0.45965976401E+02  0.45965976401E+02  0.00000000000E+00 0.  1.
         21   -1    0    0  501  502 -0.00000000000E+00 -0.00000000000E+00 -0.12052050164E+04  0.12052050164E+04  0.00000000000E+00 0.  1.
         25    1    1    2    0    0 -0.58842323227E+02  0.50902923315E+02 -0.59898431851E+03  0.61681499692E+03  0.12500000000E+03 0.  0.
         25    1    1    2    0    0  0.63279604583E+02  0.36686705982E+02 -0.27338888744E+03  0.30938116705E+03  0.12500000000E+03 0.  0.
         25    1    1    2    0    0 -0.44372813560E+01 -0.87589629298E+02 -0.28686583405E+03  0.32497482883E+03  0.12500000000E+03 0.  0.
</event>
<event>
 5    0  0.5612316E-005  0.2371898E+03  0.7546771E-02  0.1121679E+00
         21   -1    0    0  502  501  0.00000000000E+00  0.00000000000E+00  0.26949778985E+03  0.26949778985E+03  0.00000000000E+00 0.  1.
         21   -1    0    0  501  502 -0.00000000000E+00 -0.00000000000E+00 -0.20875493343E+03  0.20875493343E+03  0.00000000000E+00 0.  1.
         25    1    1    2    0    0 -0.20355608964E+02  0.83465204895E+02  0.12325259725E+03  0.19544051262E+03  0.12500000000E+03 0.  0.
         25    1    1    2    0    0  0.22444688026E+02 -0.35994590499E+02  0.68289790665E+01  0.13217794642E+03  0.12500000000E+03 0.  0.
         25    1    1    2    0    0 -0.20890790623E+01 -0.47470614396E+02 -0.69338719897E+02  0.15063426423E+03  0.12500000000E+03 0.  0.
</event>
<event>
 5    0  0.5612316E-005  0.2588024E+03  0.7546771E-02  0.1107865E+00
         21   -1    0    0  502  501  0.00000000000E+00  0.00000000000E+00  0.13804132216E+03  0.13804132216E+03  0.00000000000E+00 0.  1.
         21   -1    0    0  501  502 -0.00000000000E+00 -0.00000000000E+00 -0.48520762135E+03  0.48520762135E+03  0.00000000000E+00 0.  1.
         25    1    1    2    0    0  0.81924026029E+02  0.33026081072E+02  0.12058545683E+01  0.15306443792E+03  0.12500000000E+03 0.  0.
         25    1    1    2    0    0 -0.67357751851E+02  0.36739760830E+02 -0.26763934591E+03  0.30519288366E+03  0.12500000000E+03 0.  0.
         25    1    1    2    0    0 -0.14566274178E+02 -0.69765841902E+02 -0.80732807858E+02  0.16499162192E+03  0.12500000000E+03 0.  0.
</event>
<event>
 5    0  0.5612316E-005  0.4110267E+03  0.7546771E-02  0.1040027E+00
         21   -1    0    0  502  501  0.00000000000E+00  0.00000000000E+00  0.17488549528E+04  0.17488549528E+04  0.00000000000E+00 0.  1.
         21   -1    0    0  501  502 -0.00000000000E+00 -0.00000000000E+00 -0.96602028443E+02  0.96602028443E+02  0.00000000000E+00 0.  1.
         25    1    1    2    0    0 -0.76941464697E+02  0.18423135030E+03  0.50400146181E+03  0.55633052489E+03  0.12500000000E+03 0.  0.
         25    1    1    2    0    0  0.25229469113E+03 -0.18160678251E+03  0.46781085208E+03  0.57541778557E+03  0.12500000000E+03 0.  0.
         25    1    1    2    0    0 -0.17535322643E+03 -0.26245677952E+01  0.68044061049E+03  0.71370867080E+03  0.12500000000E+03 0.  0.
</event>
<event>
 5    0  0.5612316E-005  0.2558897E+03  0.7546771E-02  0.1109638E+00
         21   -1    0    0  502  501  0.00000000000E+00  0.00000000000E+00  0.36858270515E+03  0.36858270515E+03  0.00000000000E+00 0. -1.
         21   -1    0    0  501  502 -0.00000000000E+00 -0.00000000000E+00 -0.17765218403E+03  0.17765218403E+03  0.00000000000E+00 0. -1.
         25    1    1    2    0    0 -0.44548213429E+02  0.49322501623E+02 -0.61588235887E+02  0.15438705673E+03  0.12500000000E+03 0.  0.
         25    1    1    2    0    0  0.80784153230E+02 -0.55506674151E+02  0.18902943183E+03  0.24690928777E+03  0.12500000000E+03 0.  0.
         25    1    1    2    0    0 -0.36235939801E+02  0.61841725286E+01  0.63489325175E+02  0.14493854468E+03  0.12500000000E+03 0.  0.
</event>
<event>
 5    0  0.5612316E-005  0.4616836E+03  0.7546771E-02  0.1024294E+00
         21   -1    0    0  502  501  0.00000000000E+00  0.00000000000E+00  0.21631808643E+04  0.21631808643E+04  0.00000000000E+00 0. -1.
         21   -1    0    0  501  502 -0.00000000000E+00 -0.00000000000E+00 -0.98536238582E+02  0.98536238582E+02  0.00000000000E+00 0. -1.
         25    1    1    2    0    0 -0.20449774464E+03  0.13330107086E+03  0.12854013831E+04  0.13143326134E+04  0.12500000000E+03 0.  0.
         25    1    1    2    0    0  0.95270095470E+02 -0.26593875710E+03  0.33954757573E+03  0.45903961682E+03  0.12500000000E+03 0.  0.
         25    1    1    2    0    0  0.10922764917E+03  0.13263768624E+03  0.43969566691E+03  0.48834487266E+03  0.12500000000E+03 0.  0.
</event>
<event>
 5    0  0.5612316E-005  0.2835241E+03  0.7546771E-02  0.1093780E+00
         21   -1    0    0  502  501  0.00000000000E+00  0.00000000000E+00  0.29452039126E+03  0.29452039126E+03  0.00000000000E+00 0. -1.
         21   -1    0    0  501  502 -0.00000000000E+00 -0.00000000000E+00 -0.27293845932E+03  0.27293845932E+03  0.00000000000E+00 0. -1.
         25    1    1    2    0    0  0.41563236583E+02 -0.10056152928E+03 -0.11556849012E+03  0.20204256907E+03  0.12500000000E+03 0.  0.
         25    1    1    2    0    0 -0.86264746650E+02 -0.12318053967E+02  0.11254372773E+03  0.18943186537E+03  0.12500000000E+03 0.  0.
         25    1    1    2    0    0  0.44701510067E+02  0.11287958325E+03  0.24606694332E+02  0.17598441614E+03  0.12500000000E+03 0.  0.
</event>
<event>
 5    0  0.5612316E-005  0.3404013E+03  0.7546771E-02  0.1066625E+00
         21   -1    0    0  502  501  0.00000000000E+00  0.00000000000E+00  0.23860025682E+03  0.23860025682E+03  0.00000000000E+00 0. -1.
         21   -1    0    0  501  502 -0.00000000000E+00 -0.00000000000E+00 -0.48563683897E+03  0.48563683897E+03  0.00000000000E+00 0. -1.
         25    1    1    2    0    0 -0.26761621622E+03  0.14723270095E+02 -0.12536626936E+03  0.32121163640E+03  0.12500000000E+03 0.  0.
         25    1    1    2    0    0  0.14469820332E+03 -0.48410274444E+02 -0.21738954858E+02  0.19844068855E+03  0.12500000000E+03 0.  0.
         25    1    1    2    0    0  0.12291801290E+03  0.33687004349E+02 -0.99931357929E+02  0.20458477083E+03  0.12500000000E+03 0.  0.
</event>
<event>
 5    0  0.5637353E-005  0.3228280E+03  0.7546771E-02  0.1074355E+00
         21   -1    0    0  502  501  0.00000000000E+00  0.00000000000E+00  0.52697668941E+03  0.52697668941E+03  0.00000000000E+00 0. -1.
         21   -1    0    0  501  502 -0.00000000000E+00 -0.00000000000E+00 -0.19776570523E+03  0.19776570523E+03  0.00000000000E+00 0. -1.
         25    1    1    2    0    0  0.13830837687E+03  0.66201971042E+02  0.11975759696E+03  0.23125481641E+03  0.12500000000E+03 0.  0.
         25    1    1    2    0    0  0.98624513084E+01 -0.21631505110E+02  0.25893844647E+03  0.28851223375E+03  0.12500000000E+03 0.  0.
         25    1    1    2    0    0 -0.14817082818E+03 -0.44570465933E+02 -0.49485059255E+02  0.20497534449E+03  0.12500000000E+03 0.  0.
</event>
<event>
 5    0  0.5612316E-005  0.3426576E+03  0.7546771E-02  0.1065670E+00
         21   -1    0    0  502  501  0.00000000000E+00  0.00000000000E+00  0.13737354764E+03  0.13737354764E+03  0.00000000000E+00 0. -1.
         21   -1    0    0  501  502 -0.00000000000E+00 -0.00000000000E+00 -0.85470747157E+03  0.85470747157E+03  0.00000000000E+00 0. -1.
         25    1    1    2    0    0  0.88133971209E+02  0.17943039192E+03 -0.35950678547E+03  0.42992207576E+03  0.12500000000E+03 0.  0.
         25    1    1    2    0    0 -0.93360219143E+02 -0.22222937872E+02 -0.32141752894E+03  0.35797236960E+03  0.12500000000E+03 0.  0.
         25    1    1    2    0    0  0.52262479340E+01 -0.15720745405E+03 -0.36409609530E+02  0.20418657385E+03  0.12500000000E+03 0.  0.
</event>
<event>
 5    0  0.5612316E-005  0.3399556E+03  0.7546771E-02  0.1066815E+00
         21   -1    0    0  502  501  0.00000000000E+00  0.00000000000E+00  0.51785442303E+03  0.51785442303E+03  0.00000000000E+00 0.  1.
         21   -1    0    0  501  502 -0.00000000000E+00 -0.00000000000E+00 -0.22317042029E+03  0.22317042029E+03  0.00000000000E+00 0.  1.
         25    1    1    2    0    0  0.81408721952E+02  0.56698306849E+02  0.74766910987E+02  0.17623044285E+03  0.12500000000E+03 0.  0.
         25    1    1    2    0    0 -0.24074326190E+03 -0.91179620714E+02  0.34837024055E+02  0.28828746007E+03  0.12500000000E+03 0.  0.
         25    1    1    2    0    0  0.15933453995E+03  0.34481313865E+02  0.18508006770E+03  0.27650694040E+03  0.12500000000E+03 0.  0.
</event>
<event>
 5    0  0.5612316E-005  0.2080618E+03  0.7546771E-02  0.1143110E+00
         21   -1    0    0  502  501  0.00000000000E+00  0.00000000000E+00  0.92671348643E+03  0.92671348643E+03  0.00000000000E+00 0. -1.
         21   -1    0    0  501  502 -0.00000000000E+00 -0.00000000000E+00 -0.46713137396E+02  0.46713137396E+02  0.00000000000E+00 0. -1.
         25    1    1    2    0    0 -0.44068083634E+02 -0.15528843262E+02  0.30945399752E+03  0.33700136135E+03  0.12500000000E+03 0.  0.
         25    1    1    2    0    0 -0.26129167700E+02 -0.24194148112E+02  0.21845049578E+03  0.25419226840E+03  0.12500000000E+03 0.  0.
         25    1    1    2    0    0  0.70197251333E+02  0.39722991375E+02  0.35209585574E+03  0.38223299408E+03  0.12500000000E+03 0.  0.
</event>
<event>
 5    0  0.5612316E-005  0.2220437E+03  0.7546771E-02  0.1132369E+00
         21   -1    0    0  502  501  0.00000000000E+00  0.00000000000E+00  0.53244574240E+03  0.53244574240E+03  0.00000000000E+00 0.  1.
         21   -1    0    0  501  502 -0.00000000000E+00 -0.00000000000E+00 -0.92597948746E+02  0.92597948746E+02  0.00000000000E+00 0.  1.
         25    1    1    2    0    0  0.58878458393E+02  0.95048886623E+01  0.45138321396E+02  0.14566909017E+03  0.12500000000E+03 0.  0.
         25    1    1    2    0    0 -0.34586377031E+02  0.54295489350E+01  0.27439711802E+03  0.30355308573E+03  0.12500000000E+03 0.  0.
         25    1    1    2    0    0 -0.24292081362E+02 -0.14934437597E+02  0.12031235424E+03  0.17582151525E+03  0.12500000000E+03 0.  0.
</event>
<event>
 5    0  0.5950739E-005  0.3333186E+03  0.7546771E-02  0.1069678E+00
         21   -1    0    0  502  501  0.00000000000E+00  0.00000000000E+00  0.63451408682E+03  0.63451408682E+03  0.00000000000E+00 0. -1.
         21   -1    0    0  501  502 -0.00000000000E+00 -0.00000000000E+00 -0.17509666113E+03  0.17509666113E+03  0.00000000000E+00 0. -1.
         25    1    1    2    0    0  0.10349636375E+03  0.35317383753E+01  0.45478831668E+03  0.48288858288E+03  0.12500000000E+03 0.  0.
         25    1    1    2    0    0 -0.14148874563E+03 -0.33463626081E+02 -0.93309786917E+01  0.19196600369E+03  0.12500000000E+03 0.  0.
         25    1    1    2    0    0  0.37992381879E+02  0.29931887706E+02  0.13960087709E+02  0.13475616139E+03  0.12500000000E+03 0.  0.
</event>
<event>
 5    0  0.5612316E-005  0.2438987E+03  0.7546771E-02  0.1117223E+00
         21   -1    0    0  502  501  0.00000000000E+00  0.00000000000E+00  0.68524400400E+02  0.68524400400E+02  0.00000000000E+00 0.  1.
         21   -1    0    0  501  502 -0.00000000000E+00 -0.00000000000E+00 -0.86810777767E+03  0.86810777767E+03  0.00000000000E+00 0.  1.
         25    1    1    2    0    0 -0.13589501489E+01  0.54749312211E+02 -0.29290923476E+03  0.32314107405E+03  0.12500000000E+03 0.  0.
         25    1    1    2    0    0 -0.10235675354E+03 -0.43702565674E+02 -0.34800176714E+03  0.38615676762E+03  0.12500000000E+03 0.  0.
         25    1    1    2    0    0  0.10371570369E+03 -0.11046746538E+02 -0.15867237538E+03  0.22733433641E+03  0.12500000000E+03 0.  0.
</event>
<event>
 5    0  0.5612316E-005  0.2223020E+03  0.7546771E-02  0.1132178E+00
         21   -1    0    0  502  501  0.00000000000E+00  0.00000000000E+00  0.16534707464E+03  0.16534707464E+03  0.00000000000E+00 0.  1.
         21   -1    0    0  501  502 -0.00000000000E+00 -0.00000000000E+00 -0.29887548973E+03  0.29887548973E+03  0.00000000000E+00 0.  1.
         25    1    1    2    0    0  0.56605455503E+01 -0.25774654175E+02 -0.35001312965E+02  0.13246307592E+03  0.12500000000E+03 0.  0.
         25    1    1    2    0    0  0.46838195739E+02  0.71099258345E+02  0.11045381741E+02  0.15164406212E+03  0.12500000000E+03 0.  0.
         25    1    1    2    0    0 -0.52498741290E+02 -0.45324604170E+02 -0.10957248387E+03  0.18011542633E+03  0.12500000000E+03 0.  0.
</event>
<event>
 5    0  0.5612316E-005  0.3063333E+03  0.7546771E-02  0.1082117E+00
         21   -1    0    0  502  501  0.00000000000E+00  0.00000000000E+00  0.12053046408E+04  0.12053046408E+04  0.00000000000E+00 0. -1.
         21   -1    0    0  501  502 -0.00000000000E+00 -0.00000000000E+00 -0.77855921006E+02  0.77855921006E+02  0.00000000000E+00 0. -1.
         25    1    1    2    0    0  0.92524377028E+02  0.13239193722E+03  0.26465949657E+03  0.33430231006E+03  0.12500000000E+03 0.  0.
         25    1    1    2    0    0  0.24200337519E+02  0.54483452455E+02  0.25046899884E+03  0.28620590893E+03  0.12500000000E+03 0.  0.
         25    1    1    2    0    0 -0.11672471455E+03 -0.18687538967E+03  0.61232022437E+03  0.66265234280E+03  0.12500000000E+03 0.  0.
</event>
<event>
 5    0  0.5612316E-005  0.2808646E+03  0.7546771E-02  0.1095218E+00
         21   -1    0    0  502  501  0.00000000000E+00  0.00000000000E+00  0.25106257667E+03  0.25106257667E+03  0.00000000000E+00 0.  1.
         21   -1    0    0  501  502 -0.00000000000E+00 -0.00000000000E+00 -0.31420427562E+03  0.31420427562E+03  0.00000000000E+00 0.  1.
         25    1    1    2    0    0 -0.56059540062E+02  0.39308407489E+02  0.90330433990E+02  0.16873769655E+03  0.12500000000E+03 0.  0.
         25    1    1    2    0    0  0.93333594727E+02  0.85453286817E+02 -0.36898377629E+02  0.18165878565E+03  0.12500000000E+03 0.  0.
         25    1    1    2    0    0 -0.37274054665E+02 -0.12476169431E+03 -0.11657375531E+03  0.21487037009E+03  0.12500000000E+03 0.  0.
</event>
<event>
 5    0  0.5642881E-005  0.3349900E+03  0.7546771E-02  0.1068950E+00
         21   -1    0    0  502  501  0.00000000000E+00  0.00000000000E+00  0.49103771309E+03  0.49103771309E+03  0.00000000000E+00 0.  1.
         21   -1    0    0  501  502 -0.00000000000E+00 -0.00000000000E+00 -0.22853298343E+03  0.22853298343E+03  0.00000000000E+00 0.  1.
         25    1    1    2    0    0  0.24086589481E+01  0.10818641864E+03  0.93088944561E+02  0.18973838414E+03  0.12500000000E+03 0.  0.
         25    1    1    2    0    0 -0.16402409061E+03 -0.11681526964E+03 -0.36289650823E+02  0.23977416099E+03  0.12500000000E+03 0.  0.
         25    1    1    2    0    0  0.16161543167E+03  0.86288510025E+01  0.20570543592E+03  0.29005815139E+03  0.12500000000E+03 0.  0.
</event>
<event>
 5    0  0.5612316E-005  0.3658678E+03  0.7546771E-02  0.1056284E+00
         21   -1    0    0  502  501  0.00000000000E+00  0.00000000000E+00  0.38916145493E+03  0.38916145493E+03  0.00000000000E+00 0.  1.
         21   -1    0    0  501  502 -0.00000000000E+00 -0.00000000000E+00 -0.34396834300E+03  0.34396834300E+03  0.00000000000E+00 0.  1.
         25    1    1    2    0    0 -0.29173843911E+01 -0.56949459375E+02 -0.10379660472E+03  0.17219316829E+03  0.12500000000E+03 0.  0.
         25    1    1    2    0    0 -0.66307791655E+02 -0.90161228552E+02 -0.13170790741E+03  0.21330200009E+03  0.12500000000E+03 0.  0.
         25    1    1    2    0    0  0.69225176046E+02  0.14711068793E+03  0.28069762407E+03  0.34763462955E+03  0.12500000000E+03 0.  0.
</event>
<event>
 5    0  0.5612316E-005  0.3214063E+03  0.7546771E-02  0.1075004E+00
         21   -1    0    0  502  501  0.00000000000E+00  0.00000000000E+00  0.96003287298E+03  0.96003287298E+03  0.00000000000E+00 0. -1.
         21   -1    0    0  501  502 -0.00000000000E+00 -0.00000000000E+00 -0.10760258402E+03  0.10760258402E+03  0.00000000000E+00 0. -1.
         25    1    1    2    0    0 -0.21243822916E+03  0.43468566009E+01  0.24285522622E+03  0.34605282439E+03  0.12500000000E+03 0.  0.
         25    1    1    2    0    0  0.14562736258E+03 -0.53417050254E-03  0.15901396962E+03  0.24923437015E+03  0.12500000000E+03 0.  0.
         25    1    1    2    0    0  0.66810866576E+02 -0.43463224304E+01  0.45056109312E+03  0.47234826245E+03  0.12500000000E+03 0.  0.
</event>
<event>
 5    0  0.5612316E-005  0.2517025E+03  0.7546771E-02  0.1112234E+00
         21   -1    0    0  502  501  0.00000000000E+00  0.00000000000E+00  0.58977305711E+03  0.58977305711E+03  0.00000000000E+00 0. -1.
         21   -1    0    0  501  502 -0.00000000000E+00 -0.00000000000E+00 -0.10742122255E+03  0.10742122255E+03  0.00000000000E+00 0. -1.
         25    1    1    2    0    0  0.59950526754E+02  0.45002959010E+01  0.42052463953E+02  0.14494042930E+03  0.12500000000E+03 0.  0.
         25    1    1    2    0    0  0.84277383097E+01 -0.89008619837E+02  0.13342188638E+03  0.20351894493E+03  0.12500000000E+03 0.  0.
         25    1    1    2    0    0 -0.68378265064E+02  0.84508323936E+02  0.30687748422E+03  0.34873490544E+03  0.12500000000E+03 0.  0.
</event>
<event>
 5    0  0.5612316E-005  0.3201840E+03  0.7546771E-02  0.1075565E+00
         21   -1    0    0  502  501  0.00000000000E+00  0.00000000000E+00  0.87148063532E+03  0.87148063532E+03  0.00000000000E+00 0.  1.
         21   -1    0    0  501  502 -0.00000000000E+00 -0.00000000000E+00 -0.11763637748E+03  0.11763637748E+03  0.00000000000E+00 0.  1.
         25    1    1    2    0    0 -0.19646692775E+02  0.41734959456E+02  0.34295766944E+03  0.36793037712E+03  0.12500000000E+03 0.  0.
         25    1    1    2    0    0 -0.14553142238E+03  0.12589224115E+02  0.34870298503E+03  0.39819173175E+03  0.12500000000E+03 0.  0.
         25    1    1    2    0    0  0.16517811516E+03 -0.54324183571E+02  0.62183603370E+02  0.22299490392E+03  0.12500000000E+03 0.  0.
</event>
<event>
 5    0  0.5612316E-005  0.3298449E+03  0.7546771E-02  0.1071206E+00
         21   -1    0    0  502  501  0.00000000000E+00  0.00000000000E+00  0.10432460181E+03  0.10432460181E+03  0.00000000000E+00 0.  1.
         21   -1    0    0  501  502 -0.00000000000E+00 -0.00000000000E+00 -0.10428761605E+04  0.10428761605E+04  0.00000000000E+00 0.  1.
         25    1    1    2    0    0 -0.16962156983E+02  0.77363893360E+02 -0.23018823674E+03  0.27365034459E+03  0.12500000000E+03 0.  0.
         25    1    1    2    0    0 -0.19707997739E+03 -0.91439684519E+02 -0.45089891177E+03  0.51588425255E+03  0.12500000000E+03 0.  0.
         25    1    1    2    0    0  0.21404213438E+03  0.14075791159E+02 -0.25746441014E+03  0.35766616512E+03  0.12500000000E+03 0.  0.
</event>
<event>
 5    0  0.5612316E-005  0.2051190E+03  0.7546771E-02  0.1145491E+00
         21   -1    0    0  502  501  0.00000000000E+00  0.00000000000E+00  0.63147521232E+03  0.63147521232E+03  0.00000000000E+00 0.  1.
         21   -1    0    0  501  502 -0.00000000000E+00 -0.00000000000E+00 -0.66627782146E+02  0.66627782146E+02  0.00000000000E+00 0.  1.
         25    1    1    2    0    0 -0.15106952306E+02  0.51764373301E+00  0.14026479683E+03  0.18848793382E+03  0.12500000000E+03 0.  0.
         25    1    1    2    0    0  0.45056216648E+02  0.52413209421E+02  0.21539593364E+03  0.25845234649E+03  0.12500000000E+03 0.  0.
         25    1    1    2    0    0 -0.29949264342E+02 -0.52930853154E+02  0.20918669970E+03  0.25116271416E+03  0.12500000000E+03 0.  0.
</event>
<event>
 5    0  0.5612316E-005  0.2361942E+03  0.7546771E-02  0.1122354E+00
         21   -1    0    0  502  501  0.00000000000E+00  0.00000000000E+00  0.25023232472E+03  0.25023232472E+03  0.00000000000E+00 0. -1.
         21   -1    0    0  501  502 -0.00000000000E+00 -0.00000000000E+00 -0.22294371171E+03  0.22294371171E+03  0.00000000000E+00 0. -1.
         25    1    1    2    0    0 -0.19870568679E+02  0.11582135842E+03  0.81017533835E+02  0.18973209364E+03  0.12500000000E+03 0.  0.
         25    1    1    2    0    0  0.21240818104E+02 -0.70527577050E+02 -0.34124266218E+02  0.14904622445E+03  0.12500000000E+03 0.  0.
         25    1    1    2    0    0 -0.13702494246E+01 -0.45293781375E+02 -0.19604654601E+02  0.13439771835E+03  0.12500000000E+03 0.  0.
</event>
<event>
 5    0  0.5612316E-005  0.2820054E+03  0.7546771E-02  0.1094599E+00
         21   -1    0    0  502  501  0.00000000000E+00  0.00000000000E+00  0.22412608902E+03  0.22412608902E+03  0.00000000000E+00 0.  1.
         21   -1    0    0  501  502 -0.00000000000E+00 -0.00000000000E+00 -0.35483167186E+03  0.35483167186E+03  0.00000000000E+00 0.  1.
         25    1    1    2    0    0  0.74086599105E+02  0.26349091850E+02  0.46089187410E+02  0.15470071753E+03  0.12500000000E+03 0.  0.
         25    1    1    2    0    0 -0.87859040893E+02  0.92402172123E+02 -0.23099783563E+01  0.17857129803E+03  0.12500000000E+03 0.  0.
         25    1    1    2    0    0  0.13772441787E+02 -0.11875126397E+03 -0.17448479189E+03  0.24568574531E+03  0.12500000000E+03 0.  0.
</event>
<event>
 5    0  0.5612316E-005  0.3369965E+03  0.7546771E-02  0.1068082E+00
         21   -1    0    0  502  501  0.00000000000E+00  0.00000000000E+00  0.77223752569E+02  0.77223752569E+02  0.00000000000E+00 0.  1.
         21   -1    0    0  501  502 -0.00000000000E+00 -0.00000000000E+00 -0.14706180606E+04  0.14706180606E+04  0.00000000000E+00 0.  1.
         25    1    1    2    0    0 -0.17887268575E+03 -0.59907354581E+02 -0.35027008095E+03  0.41701134091E+03  0.12500000000E+03 0.  0.
         25    1    1    2    0    0 -0.18857775234E+02 -0.29322195901E+02 -0.12876734431E+03  0.18281530521E+03  0.12500000000E+03 0.  0.
         25    1    1    2    0    0  0.19773046098E+03  0.89229550482E+02 -0.91435688275E+03  0.94801516702E+03  0.12500000000E+03 0.  0.
</event>
<event>
 5    0  0.5612316E-005  0.2812081E+03  0.7546771E-02  0.1095031E+00
         21   -1    0    0  502  501  0.00000000000E+00  0.00000000000E+00  0.40192793768E+02  0.40192793768E+02  0.00000000000E+00 0. -1.
         21   -1    0    0  501  502 -0.00000000000E+00 -0.00000000000E+00 -0.19674667667E+04  0.19674667667E+04  0.00000000000E+00 0. -1.
         25    1    1    2    0    0 -0.42515772198E+02  0.26952098688E+02 -0.25552024371E+03  0.28887644669E+03  0.12500000000E+03 0.  0.
         25    1    1    2    0    0  0.81244583741E+02 -0.99205684238E+02 -0.39976141959E+03  0.43803726185E+03  0.12500000000E+03 0.  0.
         25    1    1    2    0    0 -0.38728811543E+02  0.72253585550E+02 -0.12719923097E+04  0.12807458520E+04  0.12500000000E+03 0.  0.
</event>
<event>
 5    0  0.5612316E-005  0.3134319E+03  0.7546771E-02  0.1078712E+00
         21   -1    0    0  502  501  0.00000000000E+00  0.00000000000E+00  0.97915428474E+03  0.97915428474E+03  0.00000000000E+00 0. -1.
         21   -1    0    0  501  502 -0.00000000000E+00 -0.00000000000E+00 -0.10033100226E+03  0.10033100226E+03  0.00000000000E+00 0. -1.
         25    1    1    2    0    0  0.45875016204E+02 -0.67068826957E+02  0.79313839219E+02  0.16887400556E+03  0.12500000000E+03 0.  0.
         25    1    1    2    0    0  0.75780680554E+02 -0.11123496541E+03  0.28921492089E+03  0.34261669478E+03  0.12500000000E+03 0.  0.
         25    1    1    2    0    0 -0.12165569676E+03  0.17830379236E+03  0.51029452236E+03  0.56799458666E+03  0.12500000000E+03 0.  0.
</event>
<event>
 5    0  0.5612316E-005  0.3029459E+03  0.7546771E-02  0.1083777E+00
         21   -1    0    0  502  501  0.00000000000E+00  0.00000000000E+00  0.72116043123E+02  0.72116043123E+02  0.00000000000E+00 0. -1.
         21   -1    0    0  501  502 -0.00000000000E+00 -0.00000000000E+00 -0.12726187639E+04  0.12726187639E+04  0.00000000000E+00 0. -1.
         25    1    1    2    0    0 -0.55525892621E+02 -0.12250896597E+03 -0.83526386026E+03  0.85520891468E+03  0.12500000000E+03 0.  0.
         25    1    1    2    0    0  0.14921443168E+02  0.10698895299E+03 -0.29882472424E+03  0.34145351271E+03  0.12500000000E+03 0.  0.
         25    1    1    2    0    0  0.40604449452E+02  0.15520012978E+02 -0.66414136318E+02  0.14807237967E+03  0.12500000000E+03 0.  0.
</event>
<event>
 5    0  0.5612316E-005  0.4220506E+03  0.7546771E-02  0.1036401E+00
         21   -1    0    0  502  501  0.00000000000E+00  0.00000000000E+00  0.57317956241E+03  0.57317956241E+03  0.00000000000E+00 0. -1.
         21   -1    0    0  501  502 -0.00000000000E+00 -0.00000000000E+00 -0.31076943008E+03  0.31076943008E+03  0.00000000000E+00 0. -1.
         25    1    1    2    0    0 -0.78949555067E+02 -0.50452836644E+02  0.59875626445E+02  0.16729797253E+03  0.12500000000E+03 0.  0.
         25    1    1    2    0    0  0.12924368028E+03  0.26264008278E+03  0.30906509702E+03  0.44365524472E+03  0.12500000000E+03 0.  0.
         25    1    1    2    0    0 -0.50294125213E+02 -0.21218724613E+03 -0.10653059114E+03  0.27299577524E+03  0.12500000000E+03 0.  0.
</event>
<event>
 5    0  0.5612316E-005  0.3048264E+03  0.7546771E-02  0.1082853E+00
         21   -1    0    0  502  501  0.00000000000E+00  0.00000000000E+00  0.26816926656E+03  0.26816926656E+03  0.00000000000E+00 0. -1.
         21   -1    0    0  501  502 -0.00000000000E+00 -0.00000000000E+00 -0.34649429109E+03  0.34649429109E+03  0.00000000000E+00 0. -1.
         25    1    1    2    0    0 -0.25108367154E+02  0.48810306068E+01  0.11412596172E+03  0.17118408132E+03  0.12500000000E+03 0.  0.
         25    1    1    2    0    0 -0.21206612950E+02 -0.14972044609E+03 -0.13592900401E+03  0.23867891935E+03  0.12500000000E+03 0.  0.
         25    1    1    2    0    0  0.46314980104E+02  0.14483941548E+03 -0.56521982239E+02  0.20480055697E+03  0.12500000000E+03 0.  0.
</event>
<event>
 5    0  0.5612316E-005  0.2882287E+03  0.7546771E-02  0.1091278E+00
         21   -1    0    0  502  501  0.00000000000E+00  0.00000000000E+00  0.14484078931E+04  0.14484078931E+04  0.00000000000E+00 0. -1.
         21   -1    0    0  501  502 -0.00000000000E+00 -0.00000000000E+00 -0.57356621475E+02  0.57356621475E+02  0.00000000000E+00 0. -1.
         25    1    1    2    0    0  0.76277506912E+02 -0.10992535408E+03  0.46466347060E+03  0.49943866735E+03  0.12500000000E+03 0.  0.
         25    1    1    2    0    0  0.90801357545E+02  0.74962058460E+02  0.30651692143E+03  0.35134288077E+03  0.12500000000E+03 0.  0.
         25    1    1    2    0    0 -0.16707886446E+03  0.34963295621E+02  0.61987087960E+03  0.65498296647E+03  0.12500000000E+03 0.  0.
</event>
<event>
 5    0  0.5612316E-005  0.2948812E+03  0.7546771E-02  0.1087828E+00
         21   -1    0    0  502  501  0.00000000000E+00  0.00000000000E+00  0.11493857924E+04  0.11493857924E+04  0.00000000000E+00 0. -1.
         21   -1    0    0  501  502 -0.00000000000E+00 -0.00000000000E+00 -0.75653375729E+02  0.75653375729E+02  0.00000000000E+00 0. -1.
         25    1    1    2    0    0  0.37561646528E+02 -0.14935921713E+02  0.38197301118E+03  0.40393358404E+03  0.12500000000E+03 0.  0.
         25    1    1    2    0    0 -0.61688438515E+02  0.11208361775E+03  0.62060987275E+03  0.64587136100E+03  0.12500000000E+03 0.  0.
         25    1    1    2    0    0  0.24126791987E+02 -0.97147696033E+02  0.71149532774E+02  0.17523422311E+03  0.12500000000E+03 0.  0.
</event>
<event>
 5    0  0.5612316E-005  0.3190380E+03  0.7546771E-02  0.1076093E+00
         21   -1    0    0  502  501  0.00000000000E+00  0.00000000000E+00  0.12551765979E+03  0.12551765979E+03  0.00000000000E+00 0. -1.
         21   -1    0    0  501  502 -0.00000000000E+00 -0.00000000000E+00 -0.81092352105E+03  0.81092352105E+03  0.00000000000E+00 0. -1.
         25    1    1    2    0    0  0.13036856650E+03 -0.71603601391E+02 -0.14350930651E+03  0.24154287387E+03  0.12500000000E+03 0.  0.
         25    1    1    2    0    0  0.25537109625E+02 -0.75186822569E+02 -0.74422096816E+02  0.16573729439E+03  0.12500000000E+03 0.  0.
         25    1    1    2    0    0 -0.15590567613E+03  0.14679042396E+03 -0.46747445793E+03  0.52916101258E+03  0.12500000000E+03 0.  0.
</event>
<event>
 5    0  0.5612316E-005  0.2675222E+03  0.7546771E-02  0.1102706E+00
         21   -1    0    0  502  501  0.00000000000E+00  0.00000000000E+00  0.18939892081E+04  0.18939892081E+04  0.00000000000E+00 0.  1.
         21   -1    0    0  501  502 -0.00000000000E+00 -0.00000000000E+00 -0.37786973457E+02  0.37786973457E+02  0.00000000000E+00 0.  1.
         25    1    1    2    0    0  0.39632796026E+02 -0.66244997710E+02  0.13048953848E+04  0.13131397958E+04  0.12500000000E+03 0.  0.
         25    1    1    2    0    0  0.88203017707E+01  0.48397474337E+02  0.18871691022E+03  0.23164452389E+03  0.12500000000E+03 0.  0.
         25    1    1    2    0    0 -0.48453097797E+02  0.17847523373E+02  0.36258993966E+03  0.38699186182E+03  0.12500000000E+03 0.  0.
</event>
<event>
 5    0  0.5612316E-005  0.3413846E+03  0.7546771E-02  0.1066208E+00
         21   -1    0    0  502  501  0.00000000000E+00  0.00000000000E+00  0.31757248554E+03  0.31757248554E+03  0.00000000000E+00 0. -1.
         21   -1    0    0  501  502 -0.00000000000E+00 -0.00000000000E+00 -0.36698214081E+03  0.36698214081E+03  0.00000000000E+00 0. -1.
         25    1    1    2    0    0  0.19380736395E+03  0.79135562776E+02 -0.15287639187E+03  0.28778450759E+03  0.12500000000E+03 0.  0.
         25    1    1    2    0    0 -0.80132956500E+02 -0.10749662908E+03 -0.21711143895E+02  0.18458924603E+03  0.12500000000E+03 0.  0.
         25    1    1    2    0    0 -0.11367440745E+03  0.28361066299E+02  0.12517788049E+03  0.21218087274E+03  0.12500000000E+03 0.  0.
</event>
<event>
 5    0  0.5612316E-005  0.4077753E+03  0.7546771E-02  0.1041120E+00
         21   -1    0    0  502  501  0.00000000000E+00  0.00000000000E+00  0.76672145863E+02  0.76672145863E+02  0.00000000000E+00 0. -1.
         21   -1    0    0  501  502 -0.00000000000E+00 -0.00000000000E+00 -0.21687232249E+04  0.21687232249E+04  0.00000000000E+00 0. -1.
         25    1    1    2    0    0  0.15439711096E+03 -0.22532088722E+03 -0.63009843602E+03  0.69803797115E+03  0.12500000000E+03 0.  0.
         25    1    1    2    0    0  0.68609620499E+02  0.44259562064E+02 -0.21568318625E+03  0.26231741401E+03  0.12500000000E+03 0.  0.
         25    1    1    2    0    0 -0.22300673146E+03  0.18106132516E+03 -0.12462694567E+04  0.12850399856E+04  0.12500000000E+03 0.  0.
</event>
<event>
 5    0  0.5612316E-005  0.3051770E+03  0.7546771E-02  0.1082681E+00
         21   -1    0    0  502  501  0.00000000000E+00  0.00000000000E+00  0.53280993305E+03  0.53280993305E+03  0.00000000000E+00 0. -1.
         21   -1    0    0  501  502 -0.00000000000E+00 -0.00000000000E+00 -0.17479590521E+03  0.17479590521E+03  0.00000000000E+00 0. -1.
         25    1    1    2    0    0 -0.35075340799E+02 -0.63498518576E+02  0.35795418451E+03  0.38602919527E+03  0.12500000000E+03 0.  0.
         25    1    1    2    0    0 -0.52060535246E+02 -0.32740064796E+02  0.17988175625E+02  0.14046631495E+03  0.12500000000E+03 0.  0.
         25    1    1    2    0    0  0.87135876045E+02  0.96238583371E+02 -0.17928332303E+02  0.18111032804E+03  0.12500000000E+03 0.  0.
</event>
<event>
 5    0  0.5612316E-005  0.5374481E+03  0.7546771E-02  0.1004442E+00
         21   -1    0    0  502  501  0.00000000000E+00  0.00000000000E+00  0.49838282238E+03  0.49838282238E+03  0.00000000000E+00 0.  1.
         21   -1    0    0  501  502 -0.00000000000E+00 -0.00000000000E+00 -0.57957543980E+03  0.57957543980E+03  0.00000000000E+00 0.  1.
         25    1    1    2    0    0 -0.12261838046E+03 -0.12706068694E+03  0.14118162817E+03  0.25833493284E+03  0.12500000000E+03 0.  0.
         25    1    1    2    0    0  0.31352826377E+03 -0.19680779983E+03 -0.81398769419E+02  0.39910404899E+03  0.12500000000E+03 0.  0.
         25    1    1    2    0    0 -0.19090988331E+03  0.32386848676E+03 -0.14097547618E+03  0.42051928035E+03  0.12500000000E+03 0.  0.
</event>
<event>
 5    0  0.5612316E-005  0.2107898E+03  0.7546771E-02  0.1140942E+00
         21   -1    0    0  502  501  0.00000000000E+00  0.00000000000E+00  0.14437721725E+03  0.14437721725E+03  0.00000000000E+00 0. -1.
         21   -1    0    0  501  502 -0.00000000000E+00 -0.00000000000E+00 -0.30775173881E+03  0.30775173881E+03  0.00000000000E+00 0. -1.
         25    1    1    2    0    0 -0.47148929098E+02  0.44166329172E+02 -0.83949607878E+02  0.16384816999E+03  0.12500000000E+03 0.  0.
         25    1    1    2    0    0  0.41188104977E+02 -0.70347982093E+02 -0.40342623125E+02  0.15458921637E+03  0.12500000000E+03 0.  0.
         25    1    1    2    0    0  0.59608241216E+01  0.26181652921E+02 -0.39082290556E+02  0.13369156970E+03  0.12500000000E+03 0.  0.
</event>
<event>
 5    0  0.5612316E-005  0.3185674E+03  0.7546771E-02  0.1076311E+00
         21   -1    0    0  502  501  0.00000000000E+00  0.00000000000E+00  0.19447640281E+03  0.19447640281E+03  0.00000000000E+00 0.  1.
         21   -1    0    0  501  502 -0.00000000000E+00 -0.00000000000E+00 -0.52183814015E+03  0.52183814015E+03  0.00000000000E+00 0.  1.
         25    1    1    2    0    0 -0.79279115073E+02 -0.95737283438E+02 -0.29557992643E+03  0.34415592170E+03  0.12500000000E+03 0.  0.
         25    1    1    2    0    0  0.14255411602E+02 -0.22871511397E+01  0.95918831355E+02  0.15822095319E+03  0.12500000000E+03 0.  0.
         25    1    1    2    0    0  0.65023703470E+02  0.98024434578E+02 -0.12770064226E+03  0.21393766807E+03  0.12500000000E+03 0.  0.
</event>
<event>
 5    0  0.5612316E-005  0.2769346E+03  0.7546771E-02  0.1097375E+00
         21   -1    0    0  502  501  0.00000000000E+00  0.00000000000E+00  0.73741974188E+03  0.73741974188E+03  0.00000000000E+00 0. -1.
         21   -1    0    0  501  502 -0.00000000000E+00 -0.00000000000E+00 -0.10400149515E+03  0.10400149515E+03  0.00000000000E+00 0. -1.
         25    1    1    2    0    0 -0.25791757596E+02 -0.14020551487E+03  0.13745035745E+03  0.23418027655E+03  0.12500000000E+03 0.  0.
         25    1    1    2    0    0 -0.63927993035E+02  0.58016599548E+02  0.12289279573E+03  0.19539793591E+03  0.12500000000E+03 0.  0.
         25    1    1    2    0    0  0.89719750631E+02  0.82188915325E+02  0.37307509356E+03  0.41184302458E+03  0.12500000000E+03 0.  0.
</event>
<event>
 5    0  0.5612316E-005  0.3222628E+03  0.7546771E-02  0.1074613E+00
         21   -1    0    0  502  501  0.00000000000E+00  0.00000000000E+00  0.42542456491E+03  0.42542456491E+03  0.00000000000E+00 0. -1.
         21   -1    0    0  501  502 -0.00000000000E+00 -0.00000000000E+00 -0.24411688771E+03  0.24411688771E+03  0.00000000000E+00 0. -1.
         25    1    1    2    0    0 -0.50945389793E+02  0.17414831445E+03  0.23384339495E+02  0.22157367962E+03  0.12500000000E+03 0.  0.
         25    1    1    2    0    0  0.73767527508E+02 -0.15713998579E+03  0.21884651771E+03  0.30602846528E+03  0.12500000000E+03 0.  0.
         25    1    1    2    0    0 -0.22822137716E+02 -0.17008328656E+02 -0.60923180001E+02  0.14193930772E+03  0.12500000000E+03 0.  0.
</event>
<event>
 5    0  0.5612316E-005  0.2220739E+03  0.7546771E-02  0.1132346E+00
         21   -1    0    0  502  501  0.00000000000E+00  0.00000000000E+00  0.13179204651E+03  0.13179204651E+03  0.00000000000E+00 0.  1.
         21   -1    0    0  501  502 -0.00000000000E+00 -0.00000000000E+00 -0.37420174114E+03  0.37420174114E+03  0.00000000000E+00 0.  1.
         25    1    1    2    0    0  0.38913227190E+02 -0.68705450523E+02 -0.74782749581E+02  0.16568686676E+03  0.12500000000E+03 0.  0.
         25    1    1    2    0    0  0.27061519789E+02 -0.79469439956E+01 -0.37667815055E+02  0.13356400736E+03  0.12500000000E+03 0.  0.
         25    1    1    2    0    0 -0.65974746979E+02  0.76652394519E+02 -0.12995912999E+03  0.20674291353E+03  0.12500000000E+03 0.  0.
</event>
<event>
 5    0  0.5612316E-005  0.3668868E+03  0.7546771E-02  0.1055890E+00
         21   -1    0    0  502  501  0.00000000000E+00  0.00000000000E+00  0.12385751375E+03  0.12385751375E+03  0.00000000000E+00 0. -1.
         21   -1    0    0  501  502 -0.00000000000E+00 -0.00000000000E+00 -0.10867807204E+04  0.10867807204E+04  0.00000000000E+00 0. -1.
         25    1    1    2    0    0  0.44646629383E+02  0.55388403851E+02 -0.33889086096E+03  0.36814835656E+03  0.12500000000E+03 0.  0.
         25    1    1    2    0    0 -0.76539880238E+02  0.13895648347E+03 -0.56764725087E+03  0.60250780823E+03  0.12500000000E+03 0.  0.
         25    1    1    2    0    0  0.31893250854E+02 -0.19434488733E+03 -0.56385094788E+02  0.23998206932E+03  0.12500000000E+03 0.  0.
</event>
<event>
 5    0  0.5612316E-005  0.2380423E+03  0.7546771E-02  0.1121104E+00
         21   -1    0    0  502  501  0.00000000000E+00  0.00000000000E+00  0.58433352231E+03  0.58433352231E+03  0.00000000000E+00 0.  1.
         21   -1    0    0  501  502 -0.00000000000E+00 -0.00000000000E+00 -0.96972258644E+02  0.96972258644E+02  0.00000000000E+00 0.  1.
         25    1    1    2    0    0 -0.64295020196E+01 -0.72522916929E+02  0.23675999646E+03  0.27745487543E+03  0.12500000000E+03 0.  0.
         25    1    1    2    0    0 -0.27474058294E+02  0.12284127320E+03  0.14989612344E+03  0.23224695930E+03  0.12500000000E+03 0.  0.
         25    1    1    2    0    0  0.33903560313E+02 -0.50318356273E+02  0.10070514376E+03  0.17160394623E+03  0.12500000000E+03 0.  0.
</event>
<event>
 5    0  0.5612316E-005  0.4290304E+03  0.7546771E-02  0.1034167E+00
         21   -1    0    0  502  501  0.00000000000E+00  0.00000000000E+00  0.16513935897E+03  0.16513935897E+03  0.00000000000E+00 0. -1.
         21   -1    0    0  501  502 -0.00000000000E+00 -0.00000000000E+00 -0.11146167185E+04  0.11146167185E+04  0.00000000000E+00 0. -1.
         25    1    1    2    0    0  0.48245023843E+02  0.91908986829E+02 -0.40622566800E+02  0.16748145306E+03  0.12500000000E+03 0.  0.
         25    1    1    2    0    0  0.19913611368E+03 -0.56348229758E+02 -0.75608473336E+03  0.79380062912E+03  0.12500000000E+03 0.  0.
         25    1    1    2    0    0 -0.24738113753E+03 -0.35560757071E+02 -0.15277005939E+03  0.31847399532E+03  0.12500000000E+03 0.  0.
</event>
<event>
 5    0  0.5612316E-005  0.3437081E+03  0.7546771E-02  0.1065228E+00
         21   -1    0    0  502  501  0.00000000000E+00  0.00000000000E+00  0.55495831711E+02  0.55495831711E+02  0.00000000000E+00 0.  1.
         21   -1    0    0  501  502 -0.00000000000E+00 -0.00000000000E+00 -0.21287230888E+04  0.21287230888E+04  0.00000000000E+00 0.  1.
         25    1    1    2    0    0  0.13162106969E+03  0.20326889305E+02 -0.36567986827E+03  0.40875916439E+03  0.12500000000E+03 0.  0.
         25    1    1    2    0    0 -0.23247426458E+03  0.18193221782E+02 -0.14148624867E+04  0.14393874159E+04  0.12500000000E+03 0.  0.
         25    1    1    2    0    0  0.10085319489E+03 -0.38520111087E+02 -0.29268490212E+03  0.33607234014E+03  0.12500000000E+03 0.  0.
</event>
<event>
 5    0  0.5612316E-005  0.6009636E+03  0.7546771E-02  0.9903409E-01
         21   -1    0    0  502  501  0.00000000000E+00  0.00000000000E+00  0.14717014973E+03  0.14717014973E+03  0.00000000000E+00 0. -1.
         21   -1    0    0  501  502 -0.00000000000E+00 -0.00000000000E+00 -0.24540118362E+04  0.24540118362E+04  0.00000000000E+00 0. -1.
         25    1    1    2    0    0  0.34345980972E+02 -0.17842156932E+02 -0.68667339421E+02  0.14777751005E+03  0.12500000000E+03 0.  0.
         25    1    1    2    0    0  0.42506087605E+03 -0.11020279599E+02 -0.15772700508E+04  0.16383540545E+04  0.12500000000E+03 0.  0.
         25    1    1    2    0    0 -0.45940685702E+03  0.28862436531E+02 -0.66090429625E+03  0.81505042134E+03  0.12500000000E+03 0.  0.
</event>
<event>
 5    0  0.5719938E-005  0.2656331E+03  0.7546771E-02  0.1103805E+00
         21   -1    0    0  502  501  0.00000000000E+00  0.00000000000E+00  0.16027852152E+03  0.16027852152E+03  0.00000000000E+00 0. -1.
         21   -1    0    0  501  502 -0.00000000000E+00 -0.00000000000E+00 -0.44023955104E+03  0.44023955104E+03  0.00000000000E+00 0. -1.
         25    1    1    2    0    0  0.11558882081E+03  0.55156593896E+02 -0.24154544788E+03  0.30061974110E+03  0.12500000000E+03 0.  0.
         25    1    1    2    0    0 -0.95632684939E+02 -0.61573869534E+02 -0.37672091258E+02  0.17315062315E+03  0.12500000000E+03 0.  0.
         25    1    1    2    0    0 -0.19956135868E+02  0.64172756386E+01 -0.74349038474E+00  0.12674770832E+03  0.12500000000E+03 0.  0.
</event>
<event>
 5    0  0.5612316E-005  0.2856669E+03  0.7546771E-02  0.1092633E+00
         21   -1    0    0  502  501  0.00000000000E+00  0.00000000000E+00  0.42334176818E+03  0.42334176818E+03  0.00000000000E+00 0. -1.
         21   -1    0    0  501  502 -0.00000000000E+00 -0.00000000000E+00 -0.19276519748E+03  0.19276519748E+03  0.00000000000E+00 0. -1.
         25    1    1    2    0    0 -0.25453018628E+02 -0.10900915157E+03 -0.24118717718E+02  0.16952157334E+03  0.12500000000E+03 0.  0.
         25    1    1    2    0    0  0.19861812757E+02 -0.44167755585E+01 -0.15872686978E+02  0.12763597339E+03  0.12500000000E+03 0.  0.
         25    1    1    2    0    0  0.55912058703E+01  0.11342592712E+03  0.27056797540E+03  0.31894941893E+03  0.12500000000E+03 0.  0.
</event>
<event>
 5    0  0.5612316E-005  0.2806329E+03  0.7546771E-02  0.1095344E+00
         21   -1    0    0  502  501  0.00000000000E+00  0.00000000000E+00  0.19524377737E+03  0.19524377737E+03  0.00000000000E+00 0. -1.
         21   -1    0    0  501  502 -0.00000000000E+00 -0.00000000000E+00 -0.40336648886E+03  0.40336648886E+03  0.00000000000E+00 0. -1.
         25    1    1    2    0    0  0.92135684083E+02 -0.28471227739E+02 -0.25671838342E+03  0.30137837261E+03  0.12500000000E+03 0.  0.
         25    1    1    2    0    0 -0.25622823931E+02  0.26033927488E+02  0.79100190917E+02  0.15236841763E+03  0.12500000000E+03 0.  0.
         25    1    1    2    0    0 -0.66512860152E+02  0.24373002513E+01 -0.30504518988E+02  0.14486347599E+03  0.12500000000E+03 0.  0.
</event>
<event>
 5    0  0.5612316E-005  0.2507494E+03  0.7546771E-02  0.1112832E+00
         21   -1    0    0  502  501  0.00000000000E+00  0.00000000000E+00  0.32721266229E+03  0.32721266229E+03  0.00000000000E+00 0. -1.
         21   -1    0    0  501  502 -0.00000000000E+00 -0.00000000000E+00 -0.19215416672E+03  0.19215416672E+03  0.00000000000E+00 0. -1.
         25    1    1    2    0    0  0.50568801769E+02 -0.33571852528E+02 -0.14417210395E+02  0.13970371845E+03  0.12500000000E+03 0.  0.
         25    1    1    2    0    0 -0.22701419009E+02  0.13441397468E+03  0.94054525848E+02  0.20749391520E+03  0.12500000000E+03 0.  0.
         25    1    1    2    0    0 -0.27867382760E+02 -0.10084212215E+03  0.55421180124E+02  0.17216919535E+03  0.12500000000E+03 0.  0.
</event>
<event>
 5    0  0.5612316E-005  0.2529593E+03  0.7546771E-02  0.1111449E+00
         21   -1    0    0  502  501  0.00000000000E+00  0.00000000000E+00  0.72147080810E+03  0.72147080810E+03  0.00000000000E+00 0. -1.
         21   -1    0    0  501  502 -0.00000000000E+00 -0.00000000000E+00 -0.88691624988E+02  0.88691624988E+02  0.00000000000E+00 0. -1.
         25    1    1    2    0    0 -0.83289679790E+02 -0.15067702203E+02  0.36167841779E+02  0.15523311241E+03  0.12500000000E+03 0.  0.
         25    1    1    2    0    0  0.48709029474E+02  0.15520475095E+02  0.23887120612E+03  0.27440464248E+03  0.12500000000E+03 0.  0.
         25    1    1    2    0    0  0.34580650316E+02 -0.45277289128E+00  0.35774013522E+03  0.38052467821E+03  0.12500000000E+03 0.  0.
</event>
<event>
 5    0  0.5612316E-005  0.2344125E+03  0.7546771E-02  0.1123572E+00
         21   -1    0    0  502  501  0.00000000000E+00  0.00000000000E+00  0.32566946484E+02  0.32566946484E+02  0.00000000000E+00 0.  1.
         21   -1    0    0  501  502 -0.00000000000E+00 -0.00000000000E+00 -0.16872700084E+04  0.16872700084E+04  0.00000000000E+00 0.  1.
         25    1    1    2    0    0 -0.53946599316E+02  0.33114789943E+02 -0.82205284008E+03  0.83390808653E+03  0.12500000000E+03 0.  0.
         25    1    1    2    0    0  0.67069395255E+02  0.28146984575E+02 -0.57362147192E+03  0.59157176198E+03  0.12500000000E+03 0.  0.
         25    1    1    2    0    0 -0.13122795938E+02 -0.61261774518E+02 -0.25902874986E+03  0.29435710633E+03  0.12500000000E+03 0.  0.
</event>
<event>
 5    0  0.5612316E-005  0.2980037E+03  0.7546771E-02  0.1086243E+00
         21   -1    0    0  502  501  0.00000000000E+00  0.00000000000E+00  0.17954021346E+03  0.17954021346E+03  0.00000000000E+00 0. -1.
         21   -1    0    0  501  502 -0.00000000000E+00 -0.00000000000E+00 -0.49463118533E+03  0.49463118533E+03  0.00000000000E+00 0. -1.
         25    1    1    2    0    0  0.17746616689E+02  0.46640430616E+02 -0.11561602698E+03  0.17743262909E+03  0.12500000000E+03 0.  0.
         25    1    1    2    0    0  0.16378360303E+02 -0.15664448460E+03  0.38070099778E+02  0.20464622581E+03  0.12500000000E+03 0.  0.
         25    1    1    2    0    0 -0.34124976992E+02  0.11000405398E+03 -0.23754504467E+03  0.29209254389E+03  0.12500000000E+03 0.  0.
</event>
<event>
 5    0  0.5612316E-005  0.2776622E+03  0.7546771E-02  0.1096973E+00
         21   -1    0    0  502  501  0.00000000000E+00  0.00000000000E+00  0.12780439578E+03  0.12780439578E+03  0.00000000000E+00 0. -1.
         21   -1    0    0  501  502 -0.00000000000E+00 -0.00000000000E+00 -0.60323662392E+03  0.60323662392E+03  0.00000000000E+00 0. -1.
         25    1    1    2    0    0 -0.85925928980E+02 -0.80257203202E+02 -0.26405640518E+03  0.31492105209E+03  0.12500000000E+03 0.  0.
         25    1    1    2    0    0 -0.65981260418E+02  0.49365574632E+02 -0.44176767950E+02  0.15609956282E+03  0.12500000000E+03 0.  0.
         25    1    1    2    0    0  0.15190718940E+03  0.30891628569E+02 -0.16719905501E+03  0.26002040478E+03  0.12500000000E+03 0.  0.
</event>
<event>
 5    0  0.5612316E-005  0.2381733E+03  0.7546771E-02  0.1121016E+00
         21   -1    0    0  502  501  0.00000000000E+00  0.00000000000E+00  0.80209494301E+02  0.80209494301E+02  0.00000000000E+00 0.  1.
         21   -1    0    0  501  502 -0.00000000000E+00 -0.00000000000E+00 -0.70722941732E+03  0.70722941732E+03  0.00000000000E+00 0.  1.
         25    1    1    2    0    0  0.48718799323E+02 -0.28858099086E+02 -0.33492992243E+03  0.36195215738E+03  0.12500000000E+03 0.  0.
         25    1    1    2    0    0 -0.91120509037E+02 -0.25840815267E+01 -0.22772450608E+03  0.27530542188E+03  0.12500000000E+03 0.  0.
         25    1    1    2    0    0  0.42401709714E+02  0.31442180612E+02 -0.64365494504E+02  0.15018133237E+03  0.12500000000E+03 0.  0.
</event>
<event>
 5    0  0.5612316E-005  0.2780374E+03  0.7546771E-02  0.1096766E+00
         21   -1    0    0  502  501  0.00000000000E+00  0.00000000000E+00  0.39084035337E+03  0.39084035337E+03  0.00000000000E+00 0. -1.
         21   -1    0    0  501  502 -0.00000000000E+00 -0.00000000000E+00 -0.19779126529E+03  0.19779126529E+03  0.00000000000E+00 0. -1.
         25    1    1    2    0    0  0.78259258302E+02 -0.92800193784E+00 -0.42397750035E+02  0.15345338675E+03  0.12500000000E+03 0.  0.
         25    1    1    2    0    0  0.89871873566E+02  0.18863964625E+02  0.11238016897E+03  0.19153878249E+03  0.12500000000E+03 0.  0.
         25    1    1    2    0    0 -0.16813113187E+03 -0.17935962687E+02  0.12306666915E+03  0.24363944942E+03  0.12500000000E+03 0.  0.
</event>
<event>
 5    0  0.5612316E-005  0.2812798E+03  0.7546771E-02  0.1094992E+00
         21   -1    0    0  502  501  0.00000000000E+00  0.00000000000E+00  0.13034245824E+03  0.13034245824E+03  0.00000000000E+00 0.  1.
         21   -1    0    0  501  502 -0.00000000000E+00 -0.00000000000E+00 -0.60700343826E+03  0.60700343826E+03  0.00000000000E+00 0.  1.
         25    1    1    2    0    0 -0.17726131192E+02  0.55762569469E+02 -0.12214423360E+03  0.18430380811E+03  0.12500000000E+03 0.  0.
         25    1    1    2    0    0  0.95285068521E+02 -0.17434077901E+03 -0.21309819513E+03  0.31703279369E+03  0.12500000000E+03 0.  0.
         25    1    1    2    0    0 -0.77558937329E+02  0.11857820954E+03 -0.14141855129E+03  0.23600929470E+03  0.12500000000E+03 0.  0.
</event>
<event>
 5    0  0.5612316E-005  0.2655244E+03  0.7546771E-02  0.1103869E+00
         21   -1    0    0  502  501  0.00000000000E+00  0.00000000000E+00  0.88516083792E+03  0.88516083792E+03  0.00000000000E+00 0. -1.
         21   -1    0    0  501  502 -0.00000000000E+00 -0.00000000000E+00 -0.79650180222E+02  0.79650180222E+02  0.00000000000E+00 0. -1.
         25    1    1    2    0    0  0.26756925911E+02 -0.32215637259E+02  0.38978130860E+03  0.41147083603E+03  0.12500000000E+03 0.  0.
         25    1    1    2    0    0 -0.52326817570E+02  0.12604545179E+02  0.40094033895E+03  0.42340893447E+03  0.12500000000E+03 0.  0.
         25    1    1    2    0    0  0.25569891659E+02  0.19611092081E+02  0.14789010151E+02  0.12993124764E+03  0.12500000000E+03 0.  0.
</event>
<event>
 5    0  0.5612316E-005  0.5603065E+03  0.7546771E-02  0.9991361E-01
         21   -1    0    0  502  501  0.00000000000E+00  0.00000000000E+00  0.90703927668E+03  0.90703927668E+03  0.00000000000E+00 0. -1.
         21   -1    0    0  501  502 -0.00000000000E+00 -0.00000000000E+00 -0.34611889121E+03  0.34611889121E+03  0.00000000000E+00 0. -1.
         25    1    1    2    0    0  0.27972298954E+03  0.86655463875E+02 -0.92974125052E+02  0.33169761564E+03  0.12500000000E+03 0.  0.
         25    1    1    2    0    0  0.11980059267E+03  0.24041793530E+02  0.56627730128E+02  0.18374408741E+03  0.12500000000E+03 0.  0.
         25    1    1    2    0    0 -0.39952358220E+03 -0.11069725740E+03  0.59726678039E+03  0.73771646484E+03  0.12500000000E+03 0.  0.
</event>
<event>
 5    0  0.5612316E-005  0.2242843E+03  0.7546771E-02  0.1130729E+00
         21   -1    0    0  502  501  0.00000000000E+00  0.00000000000E+00  0.30556618325E+03  0.30556618325E+03  0.00000000000E+00 0.  1.
         21   -1    0    0  501  502 -0.00000000000E+00 -0.00000000000E+00 -0.16462376229E+03  0.16462376229E+03  0.00000000000E+00 0.  1.
         25    1    1    2    0    0 -0.59609852965E+01  0.27802387400E+02 -0.55693926653E+02  0.13976880752E+03  0.12500000000E+03 0.  0.
         25    1    1    2    0    0  0.25726301536E+02 -0.18939872488E+01  0.13977791353E+03  0.18928363609E+03  0.12500000000E+03 0.  0.
         25    1    1    2    0    0 -0.19765316240E+02 -0.25908400151E+02  0.56858434082E+02  0.14113750193E+03  0.12500000000E+03 0.  0.
</event>
<event>
 5    0  0.5612316E-005  0.1952415E+03  0.7546771E-02  0.1153817E+00
         21   -1    0    0  502  501  0.00000000000E+00  0.00000000000E+00  0.75372942894E+03  0.75372942894E+03  0.00000000000E+00 0.  1.
         21   -1    0    0  501  502 -0.00000000000E+00 -0.00000000000E+00 -0.50574186209E+02  0.50574186209E+02  0.00000000000E+00 0.  1.
         25    1    1    2    0    0 -0.31684125526E+02  0.13496410639E+02  0.20588462857E+03  0.24330950905E+03  0.12500000000E+03 0.  0.
         25    1    1    2    0    0  0.79289453200E+01 -0.32916207039E+02  0.27919535347E+03  0.30776840361E+03  0.12500000000E+03 0.  0.
         25    1    1    2    0    0  0.23755180206E+02  0.19419796399E+02  0.21807526069E+03  0.25322570249E+03  0.12500000000E+03 0.  0.
</event>
<event>
 5    0  0.5612316E-005  0.3129225E+03  0.7546771E-02  0.1078953E+00
         21   -1    0    0  502  501  0.00000000000E+00  0.00000000000E+00  0.33087934260E+03  0.33087934260E+03  0.00000000000E+00 0. -1.
         21   -1    0    0  501  502 -0.00000000000E+00 -0.00000000000E+00 -0.29594010911E+03  0.29594010911E+03  0.00000000000E+00 0. -1.
         25    1    1    2    0    0  0.12865059146E+02  0.30098648719E+02  0.48688246636E+02  0.13808324939E+03  0.12500000000E+03 0.  0.
         25    1    1    2    0    0  0.77387699265E+02 -0.51685532109E+02  0.18136769384E+03  0.23912233395E+03  0.12500000000E+03 0.  0.
         25    1    1    2    0    0 -0.90252758411E+02  0.21586883389E+02 -0.19511670699E+03  0.24961386836E+03  0.12500000000E+03 0.  0.
</event>
<event>
 5    0  0.5612316E-005  0.4267684E+03  0.7546771E-02  0.1034886E+00
         21   -1    0    0  502  501  0.00000000000E+00  0.00000000000E+00  0.27841322140E+03  0.27841322140E+03  0.00000000000E+00 0. -1.
         21   -1    0    0  501  502 -0.00000000000E+00 -0.00000000000E+00 -0.65417619806E+03  0.65417619806E+03  0.00000000000E+00 0. -1.
         25    1    1    2    0    0  0.23120130829E+02  0.94509276646E+02 -0.20265148975E+03  0.25721424945E+03  0.12500000000E+03 0.  0.
         25    1    1    2    0    0 -0.15107107993E+03  0.20367707716E+03  0.89686346918E+01  0.28286438334E+03  0.12500000000E+03 0.  0.
         25    1    1    2    0    0  0.12795094910E+03 -0.29818635381E+03 -0.18208012160E+03  0.39251078667E+03  0.12500000000E+03 0.  0.
</event>
<event>
 5    0  0.5612316E-005  0.2737265E+03  0.7546771E-02  0.1099166E+00
         21   -1    0    0  502  501  0.00000000000E+00  0.00000000000E+00  0.74101790581E+02  0.74101790581E+02  0.00000000000E+00 0. -1.
         21   -1    0    0  501  502 -0.00000000000E+00 -0.00000000000E+00 -0.10111251395E+04  0.10111251395E+04  0.00000000000E+00 0. -1.
         25    1    1    2    0    0  0.81307131930E+02 -0.94055209960E+02 -0.10173875927E+03  0.20355099450E+03  0.12500000000E+03 0.  0.
         25    1    1    2    0    0 -0.48477426687E+02  0.41980709829E+02 -0.36195557786E+03  0.38826444756E+03  0.12500000000E+03 0.  0.
         25    1    1    2    0    0 -0.32829705244E+02  0.52074500131E+02 -0.47332901178E+03  0.49341148801E+03  0.12500000000E+03 0.  0.
</event>
<event>
 5    0  0.5612316E-005  0.3518341E+03  0.7546771E-02  0.1061865E+00
         21   -1    0    0  502  501  0.00000000000E+00  0.00000000000E+00  0.16358792417E+04  0.16358792417E+04  0.00000000000E+00 0. -1.
         21   -1    0    0  501  502 -0.00000000000E+00 -0.00000000000E+00 -0.75670141438E+02  0.75670141438E+02  0.00000000000E+00 0. -1.
         25    1    1    2    0    0 -0.11285385296E+03  0.14722961982E+03  0.95582296626E+03  0.98164917150E+03  0.12500000000E+03 0.  0.
         25    1    1    2    0    0 -0.22599263351E+02 -0.76518110734E+01  0.40525149936E+03  0.42476235080E+03  0.12500000000E+03 0.  0.
         25    1    1    2    0    0  0.13545311631E+03 -0.13957780875E+03  0.19913463466E+03  0.30513786087E+03  0.12500000000E+03 0.  0.
</event>
<event>
 5    0  0.5612316E-005  0.3420850E+03  0.7546771E-02  0.1065911E+00
         21   -1    0    0  502  501  0.00000000000E+00  0.00000000000E+00  0.64142133659E+03  0.64142133659E+03  0.00000000000E+00 0. -1.
         21   -1    0    0  501  502 -0.00000000000E+00 -0.00000000000E+00 -0.18244192927E+03  0.18244192927E+03  0.00000000000E+00 0. -1.
         25    1    1    2    0    0  0.22621721332E+03  0.19532581421E+02  0.31379454730E+03  0.40699848557E+03  0.12500000000E+03 0.  0.
         25    1    1    2    0    0 -0.32688798139E+01 -0.43829603411E+02  0.32231517992E+02  0.13636564986E+03  0.12500000000E+03 0.  0.
         25    1    1    2    0    0 -0.22294833351E+03  0.24297021989E+02  0.11295334203E+03  0.28049913042E+03  0.12500000000E+03 0.  0.
</event>
<event>
 5    0  0.5612316E-005  0.3973612E+03  0.7546771E-02  0.1044697E+00
         21   -1    0    0  502  501  0.00000000000E+00  0.00000000000E+00  0.11363950127E+04  0.11363950127E+04  0.00000000000E+00 0.  1.
         21   -1    0    0  501  502 -0.00000000000E+00 -0.00000000000E+00 -0.13894456204E+03  0.13894456204E+03  0.00000000000E+00 0.  1.
         25    1    1    2    0    0 -0.24901486214E+02  0.12400290050E+03  0.11395353588E+02  0.17818994762E+03  0.12500000000E+03 0.  0.
         25    1    1    2    0    0 -0.17951914628E+03 -0.45429706569E+02  0.38139857481E+03  0.44201906631E+03  0.12500000000E+03 0.  0.
         25    1    1    2    0    0  0.20442063249E+03 -0.78573193932E+02  0.60465652222E+03  0.65513056077E+03  0.12500000000E+03 0.  0.
</event>
<event>
 5    0  0.5612316E-005  0.3229770E+03  0.7546771E-02  0.1074287E+00
         21   -1    0    0  502  501  0.00000000000E+00  0.00000000000E+00  0.40707580744E+03  0.40707580744E+03  0.00000000000E+00 0.  1.
         21   -1    0    0  501  502 -0.00000000000E+00 -0.00000000000E+00 -0.25625230604E+03  0.25625230604E+03  0.00000000000E+00 0.  1.
         25    1    1    2    0    0  0.10776690105E+03 -0.96628441313E+01 -0.13020735577E+03  0.21044246486E+03  0.12500000000E+03 0.  0.
         25    1    1    2    0    0  0.50525946846E+02  0.30875366878E+01  0.18620658202E+03  0.22991366940E+03  0.12500000000E+03 0.  0.
         25    1    1    2    0    0 -0.15829284789E+03  0.65753074436E+01  0.94824275144E+02  0.22297197922E+03  0.12500000000E+03 0.  0.
</event>
<event>
 5    0  0.5988516E-005  0.2791459E+03  0.7546771E-02  0.1096156E+00
         21   -1    0    0  502  501  0.00000000000E+00  0.00000000000E+00  0.12044441525E+03  0.12044441525E+03  0.00000000000E+00 0.  1.
         21   -1    0    0  501  502 -0.00000000000E+00 -0.00000000000E+00 -0.64695741871E+03  0.64695741871E+03  0.00000000000E+00 0.  1.
         25    1    1    2    0    0 -0.13911221390E+02 -0.12335281051E+03 -0.12146096745E+03  0.21397944891E+03  0.12500000000E+03 0.  0.
         25    1    1    2    0    0  0.11173539451E+03  0.13863503041E+03 -0.23972278653E+03  0.32372285126E+03  0.12500000000E+03 0.  0.
         25    1    1    2    0    0 -0.97824173123E+02 -0.15282219899E+02 -0.16532924947E+03  0.22969953379E+03  0.12500000000E+03 0.  0.
</event>
<event>
 5    0  0.5612316E-005  0.2969787E+03  0.7546771E-02  0.1086761E+00
         21   -1    0    0  502  501  0.00000000000E+00  0.00000000000E+00  0.30745978834E+03  0.30745978834E+03  0.00000000000E+00 0. -1.
         21   -1    0    0  501  502 -0.00000000000E+00 -0.00000000000E+00 -0.28685485509E+03  0.28685485509E+03  0.00000000000E+00 0. -1.
         25    1    1    2    0    0  0.12435461295E+02  0.69517042732E+02 -0.12754749130E+03  0.19204328279E+03  0.12500000000E+03 0.  0.
         25    1    1    2    0    0 -0.15984313768E+01 -0.98477009486E+02  0.20666197254E+03  0.26083413748E+03  0.12500000000E+03 0.  0.
         25    1    1    2    0    0 -0.10837029918E+02  0.28959966754E+02 -0.58509547978E+02  0.14143722316E+03  0.12500000000E+03 0.  0.
</event>
<event>
 5    0  0.5612316E-005  0.3893283E+03  0.7546771E-02  0.1047539E+00
         21   -1    0    0  502  501  0.00000000000E+00  0.00000000000E+00  0.17542812535E+03  0.17542812535E+03  0.00000000000E+00 0. -1.
         21   -1    0    0  501  502 -0.00000000000E+00 -0.00000000000E+00 -0.86403791784E+03  0.86403791784E+03  0.00000000000E+00 0. -1.
         25    1    1    2    0    0 -0.12777263160E+03 -0.89916544566E+02 -0.77671092135E+02  0.21463603827E+03  0.12500000000E+03 0.  0.
         25    1    1    2    0    0  0.10102982922E+03 -0.18736934069E+03 -0.23876958671E+03  0.34343880351E+03  0.12500000000E+03 0.  0.
         25    1    1    2    0    0  0.26742802377E+02  0.27728588525E+03 -0.37216911365E+03  0.48139120141E+03  0.12500000000E+03 0.  0.
</event>
<event>
 5    0  0.5612316E-005  0.2951825E+03  0.7546771E-02  0.1087674E+00
         21   -1    0    0  502  501  0.00000000000E+00  0.00000000000E+00  0.33964713138E+03  0.33964713138E+03  0.00000000000E+00 0.  1.
         21   -1    0    0  501  502 -0.00000000000E+00 -0.00000000000E+00 -0.25653898772E+03  0.25653898772E+03  0.00000000000E+00 0.  1.
         25    1    1    2    0    0 -0.87440292114E+02  0.19816081935E+03  0.23211242618E+02  0.25115189984E+03  0.12500000000E+03 0.  0.
         25    1    1    2    0    0  0.58890556622E+01 -0.72047835919E+02  0.25048253646E+02  0.14655369885E+03  0.12500000000E+03 0.  0.
         25    1    1    2    0    0  0.81551236452E+02 -0.12611298343E+03  0.34848647404E+02  0.19848052041E+03  0.12500000000E+03 0.  0.
</event>
<event>
 5    0  0.5612316E-005  0.2491808E+03  0.7546771E-02  0.1113824E+00
         21   -1    0    0  502  501  0.00000000000E+00  0.00000000000E+00  0.56016789269E+03  0.56016789269E+03  0.00000000000E+00 0. -1.
         21   -1    0    0  501  502 -0.00000000000E+00 -0.00000000000E+00 -0.11084363813E+03  0.11084363813E+03  0.00000000000E+00 0. -1.
         25    1    1    2    0    0 -0.62980307976E+02  0.69081407030E+02  0.10392203092E+03  0.18751946166E+03  0.12500000000E+03 0.  0.
         25    1    1    2    0    0  0.71211721145E+01 -0.24854326326E+02  0.31010190471E+03  0.33534555302E+03  0.12500000000E+03 0.  0.
         25    1    1    2    0    0  0.55859135861E+02 -0.44227080704E+02  0.35300318930E+02  0.14814651614E+03  0.12500000000E+03 0.  0.
</event>
<event>
 5    0  0.5612316E-005  0.2622846E+03  0.7546771E-02  0.1105778E+00
         21   -1    0    0  502  501  0.00000000000E+00  0.00000000000E+00  0.32227213461E+03  0.32227213461E+03  0.00000000000E+00 0. -1.
         21   -1    0    0  501  502 -0.00000000000E+00 -0.00000000000E+00 -0.21346306954E+03  0.21346306954E+03  0.00000000000E+00 0. -1.
         25    1    1    2    0    0  0.45919453497E+02  0.13914661785E+03  0.36987725207E+02  0.19612105773E+03  0.12500000000E+03 0.  0.
         25    1    1    2    0    0 -0.38472996275E+02  0.16120217610E+02  0.17915693387E+02  0.13298873985E+03  0.12500000000E+03 0.  0.
         25    1    1    2    0    0 -0.74464572217E+01 -0.15526683546E+03  0.53905646471E+02  0.20662540657E+03  0.12500000000E+03 0.  0.
</event>
<event>
 5    0  0.5612316E-005  0.3384932E+03  0.7546771E-02  0.1067440E+00
         21   -1    0    0  502  501  0.00000000000E+00  0.00000000000E+00  0.56204165471E+02  0.56204165471E+02  0.00000000000E+00 0. -1.
         21   -1    0    0  501  502 -0.00000000000E+00 -0.00000000000E+00 -0.20385968937E+04  0.20385968937E+04  0.00000000000E+00 0. -1.
         25    1    1    2    0    0  0.24974843526E+03 -0.40993066872E+02 -0.70954371001E+03  0.76363079355E+03  0.12500000000E+03 0.  0.
         25    1    1    2    0    0 -0.38463908818E+02 -0.31032212413E+01 -0.30857264214E+03  0.33515843677E+03  0.12500000000E+03 0.  0.
         25    1    1    2    0    0 -0.21128452644E+03  0.44096288113E+02 -0.96427637610E+03  0.99601182887E+03  0.12500000000E+03 0.  0.
</event>
<event>
 5    0  0.5612316E-005  0.4165830E+03  0.7546771E-02  0.1038184E+00
         21   -1    0    0  502  501  0.00000000000E+00  0.00000000000E+00  0.15589770316E+03  0.15589770316E+03  0.00000000000E+00 0.  1.
         21   -1    0    0  501  502 -0.00000000000E+00 -0.00000000000E+00 -0.11131748080E+04  0.11131748080E+04  0.00000000000E+00 0.  1.
         25    1    1    2    0    0 -0.56144259566E+02  0.16662351812E+03  0.42741085211E+01  0.21577498159E+03  0.12500000000E+03 0.  0.
         25    1    1    2    0    0 -0.92222392288E+02 -0.49567462256E+02 -0.63659647406E+03  0.65714684336E+03  0.12500000000E+03 0.  0.
         25    1    1    2    0    0  0.14836665185E+03 -0.11705605587E+03 -0.32495473930E+03  0.39615068622E+03  0.12500000000E+03 0.  0.
</event>
<event>
 5    0  0.5612316E-005  0.6551278E+03  0.7546771E-02  0.9797205E-01
         21   -1    0    0  502  501  0.00000000000E+00  0.00000000000E+00  0.46598107171E+03  0.46598107171E+03  0.00000000000E+00 0. -1.
         21   -1    0    0  501  502 -0.00000000000E+00 -0.00000000000E+00 -0.92105117850E+03  0.92105117850E+03  0.00000000000E+00 0. -1.
         25    1    1    2    0    0  0.30217469672E+03  0.32053469983E+03 -0.62080949299E+03  0.77141523690E+03  0.12500000000E+03 0.  0.
         25    1    1    2    0    0 -0.29972631540E+03 -0.13673653208E+03  0.26580251001E+02  0.35336136333E+03  0.12500000000E+03 0.  0.
         25    1    1    2    0    0 -0.24483813210E+01 -0.18379816775E+03  0.13915913519E+03  0.26225564998E+03  0.12500000000E+03 0.  0.
</event>
<event>
 5    0  0.6828382E-005  0.2922137E+03  0.7546771E-02  0.1089199E+00
         21   -1    0    0  502  501  0.00000000000E+00  0.00000000000E+00  0.35523381917E+03  0.35523381917E+03  0.00000000000E+00 0. -1.
         21   -1    0    0  501  502 -0.00000000000E+00 -0.00000000000E+00 -0.24037360328E+03  0.24037360328E+03  0.00000000000E+00 0. -1.
         25    1    1    2    0    0 -0.26522261323E+02  0.16936560755E+02  0.16654072603E+03  0.21059698683E+03  0.12500000000E+03 0.  0.
         25    1    1    2    0    0  0.12481700960E+03  0.52926474081E+02  0.39876294875E+02  0.18866800587E+03  0.12500000000E+03 0.  0.
         25    1    1    2    0    0 -0.98294748279E+02 -0.69863034836E+02 -0.91556805012E+02  0.19634242975E+03  0.12500000000E+03 0.  0.
</event>
<event>
 5    0  0.6444387E-005  0.3513916E+03  0.7546771E-02  0.1062045E+00
         21   -1    0    0  502  501  0.00000000000E+00  0.00000000000E+00  0.26757446444E+03  0.26757446444E+03  0.00000000000E+00 0.  1.
         21   -1    0    0  501  502 -0.00000000000E+00 -0.00000000000E+00 -0.46146416296E+03  0.46146416296E+03  0.00000000000E+00 0.  1.
         25    1    1    2    0    0 -0.14945773394E+02  0.17843441394E+03 -0.16139322794E+03  0.27154187568E+03  0.12500000000E+03 0.  0.
         25    1    1    2    0    0  0.66794614140E+02 -0.21323144374E+03 -0.12996422616E+03  0.28713214581E+03  0.12500000000E+03 0.  0.
         25    1    1    2    0    0 -0.51848840746E+02  0.34797029794E+02  0.97467755576E+02  0.17036460591E+03  0.12500000000E+03 0.  0.
</event>
<event>
 5    0  0.5612316E-005  0.3331089E+03  0.7546771E-02  0.1069770E+00
         21   -1    0    0  502  501  0.00000000000E+00  0.00000000000E+00  0.12166656169E+03  0.12166656169E+03  0.00000000000E+00 0.  1.
         21   -1    0    0  501  502 -0.00000000000E+00 -0.00000000000E+00 -0.91201329786E+03  0.91201329786E+03  0.00000000000E+00 0.  1.
         25    1    1    2    0    0 -0.14348997319E+03  0.51266336274E+02 -0.27870480700E+02  0.19904615881E+03  0.12500000000E+03 0.  0.
         25    1    1    2    0    0  0.10709050481E+03  0.50019021722E+02 -0.33867285418E+03  0.37986126535E+03  0.12500000000E+03 0.  0.
         25    1    1    2    0    0  0.36399468384E+02 -0.10128535800E+03 -0.42380340129E+03  0.45477243539E+03  0.12500000000E+03 0.  0.
</event>
<event>
 5    0  0.5612316E-005  0.5330730E+03  0.7546771E-02  0.1005490E+00
         21   -1    0    0  502  501  0.00000000000E+00  0.00000000000E+00  0.10218910731E+04  0.10218910731E+04  0.00000000000E+00 0.  1.
         21   -1    0    0  501  502 -0.00000000000E+00 -0.00000000000E+00 -0.27807931847E+03  0.27807931847E+03  0.00000000000E+00 0.  1.
         25    1    1    2    0    0 -0.11769867333E+03 -0.10609282972E+03 -0.15788508303E+02  0.20244244421E+03  0.12500000000E+03 0.  0.
         25    1    1    2    0    0  0.38469376203E+03  0.23152238087E+03  0.38426580761E+03  0.60405058918E+03  0.12500000000E+03 0.  0.
         25    1    1    2    0    0 -0.26699508869E+03 -0.12542955115E+03  0.37533445528E+03  0.49347735816E+03  0.12500000000E+03 0.  0.
</event>
<event>
 5    0  0.5612316E-005  0.3739951E+03  0.7546771E-02  0.1053176E+00
         21   -1    0    0  502  501  0.00000000000E+00  0.00000000000E+00  0.20410668105E+03  0.20410668105E+03  0.00000000000E+00 0. -1.
         21   -1    0    0  501  502 -0.00000000000E+00 -0.00000000000E+00 -0.68529032432E+03  0.68529032432E+03  0.00000000000E+00 0. -1.
         25    1    1    2    0    0  0.10711812277E+03 -0.22214204345E+03 -0.13015837051E+03  0.30559381720E+03  0.12500000000E+03 0.  0.
         25    1    1    2    0    0 -0.12998324771E+03  0.27426989399E+03 -0.26363404101E+03  0.42100775173E+03  0.12500000000E+03 0.  0.
         25    1    1    2    0    0  0.22865124936E+02 -0.52127850541E+02 -0.87391231741E+02  0.16279543644E+03  0.12500000000E+03 0.  0.
</event>
<event>
 5    0  0.5612316E-005  0.2528256E+03  0.7546771E-02  0.1111532E+00
         21   -1    0    0  502  501  0.00000000000E+00  0.00000000000E+00  0.17262163758E+04  0.17262163758E+04  0.00000000000E+00 0.  1.
         21   -1    0    0  501  502 -0.00000000000E+00 -0.00000000000E+00 -0.37029430387E+02  0.37029430387E+02  0.00000000000E+00 0.  1.
         25    1    1    2    0    0 -0.11288638671E+03 -0.25249217859E+02  0.64017908428E+03  0.66244631424E+03  0.12500000000E+03 0.  0.
         25    1    1    2    0    0 -0.25766891865E+02 -0.43348773021E+02  0.42676638252E+03  0.44754619213E+03  0.12500000000E+03 0.  0.
         25    1    1    2    0    0  0.13865327857E+03  0.68597990880E+02  0.62224147861E+03  0.65325329981E+03  0.12500000000E+03 0.  0.
</event>
<event>
 5    0  0.5612316E-005  0.3867559E+03  0.7546771E-02  0.1048465E+00
         21   -1    0    0  502  501  0.00000000000E+00  0.00000000000E+00  0.85187838784E+03  0.85187838784E+03  0.00000000000E+00 0. -1.
         21   -1    0    0  501  502 -0.00000000000E+00 -0.00000000000E+00 -0.17558861383E+03  0.17558861383E+03  0.00000000000E+00 0. -1.
         25    1    1    2    0    0 -0.27034790832E+03 -0.13074221711E+03  0.34553410602E+03  0.47455277609E+03  0.12500000000E+03 0.  0.
         25    1    1    2    0    0  0.48882094617E+02  0.12288307832E+03  0.91591365668E+02  0.20372454044E+03  0.12500000000E+03 0.  0.
         25    1    1    2    0    0  0.22146581371E+03  0.78591387847E+01  0.23916430232E+03  0.34918968514E+03  0.12500000000E+03 0.  0.
</event>
<event>
 5    0  0.5612316E-005  0.2129376E+03  0.7546771E-02  0.1139261E+00
         21   -1    0    0  502  501  0.00000000000E+00  0.00000000000E+00  0.28492279649E+02  0.28492279649E+02  0.00000000000E+00 0.  1.
         21   -1    0    0  501  502 -0.00000000000E+00 -0.00000000000E+00 -0.15913938265E+04  0.15913938265E+04  0.00000000000E+00 0.  1.
         25    1    1    2    0    0 -0.40929883807E+02 -0.16515975120E+02 -0.45537665980E+03  0.47427938508E+03  0.12500000000E+03 0.  0.
         25    1    1    2    0    0  0.90220056074E+02  0.33371992134E+01 -0.68032343028E+03  0.69757850111E+03  0.12500000000E+03 0.  0.
         25    1    1    2    0    0 -0.49290172266E+02  0.13178775907E+02 -0.42720145681E+03  0.44802822000E+03  0.12500000000E+03 0.  0.
</event>
<event>
 5    0  0.5612316E-005  0.3028030E+03  0.7546771E-02  0.1083848E+00
         21   -1    0    0  502  501  0.00000000000E+00  0.00000000000E+00  0.10593362426E+04  0.10593362426E+04  0.00000000000E+00 0.  1.
         21   -1    0    0  501  502 -0.00000000000E+00 -0.00000000000E+00 -0.86553879931E+02  0.86553879931E+02  0.00000000000E+00 0.  1.
         25    1    1    2    0    0  0.14396454766E+03 -0.70780209787E+02  0.58557139825E+03  0.61988264336E+03  0.12500000000E+03 0.  0.
         25    1    1    2    0    0 -0.57167350280E+02  0.25925700968E+02  0.32815040766E+03  0.35671828935E+03  0.12500000000E+03 0.  0.
         25    1    1    2    0    0 -0.86797197385E+02  0.44854508819E+02  0.59060556789E+02  0.16928918986E+03  0.12500000000E+03 0.  0.
</event>
<event>
 5    0  0.5612316E-005  0.3589102E+03  0.7546771E-02  0.1059016E+00
         21   -1    0    0  502  501  0.00000000000E+00  0.00000000000E+00  0.88435727905E+02  0.88435727905E+02  0.00000000000E+00 0.  1.
         21   -1    0    0  501  502 -0.00000000000E+00 -0.00000000000E+00 -0.14566122096E+04  0.14566122096E+04  0.00000000000E+00 0.  1.
         25    1    1    2    0    0 -0.90633480607E+02  0.12629206595E+02 -0.21301386692E+03  0.26338912689E+03  0.12500000000E+03 0.  0.
         25    1    1    2    0    0  0.73420959739E+01  0.23219222350E+03 -0.63172055877E+03  0.68458965768E+03  0.12500000000E+03 0.  0.
         25    1    1    2    0    0  0.83291384633E+02 -0.24482143009E+03 -0.52344205599E+03  0.59706915292E+03  0.12500000000E+03 0.  0.
</event>
<event>
 5    0  0.5612316E-005  0.4169736E+03  0.7546771E-02  0.1038056E+00
         21   -1    0    0  502  501  0.00000000000E+00  0.00000000000E+00  0.11213927502E+04  0.11213927502E+04  0.00000000000E+00 0.  1.
         21   -1    0    0  501  502 -0.00000000000E+00 -0.00000000000E+00 -0.15504557076E+03  0.15504557076E+03  0.00000000000E+00 0.  1.
         25    1    1    2    0    0 -0.15813084390E+03 -0.10268974948E+03  0.10831685376E+03  0.25081485054E+03  0.12500000000E+03 0.  0.
         25    1    1    2    0    0 -0.21737863771E+02  0.23469838624E+03  0.62529717869E+03  0.67983632508E+03  0.12500000000E+03 0.  0.
         25    1    1    2    0    0  0.17986870767E+03 -0.13200863677E+03  0.23273314702E+03  0.34578714537E+03  0.12500000000E+03 0.  0.
</event>
<event>
 5    0  0.5612316E-005  0.2784960E+03  0.7546771E-02  0.1096513E+00
         21   -1    0    0  502  501  0.00000000000E+00  0.00000000000E+00  0.45463961571E+03  0.45463961571E+03  0.00000000000E+00 0.  1.
         21   -1    0    0  501  502 -0.00000000000E+00 -0.00000000000E+00 -0.17059675651E+03  0.17059675651E+03  0.00000000000E+00 0.  1.
         25    1    1    2    0    0  0.10250841858E+03 -0.27196873896E+02  0.53250045208E+02  0.17236070650E+03  0.12500000000E+03 0.  0.
         25    1    1    2    0    0  0.30407062469E+02 -0.38667112603E+02  0.22102784769E+03  0.25864656290E+03  0.12500000000E+03 0.  0.
         25    1    1    2    0    0 -0.13291548105E+03  0.65863986499E+02  0.97649663129E+01  0.19422910283E+03  0.12500000000E+03 0.  0.
</event>
<event>
 5    0  0.5612316E-005  0.2528959E+03  0.7546771E-02  0.1111488E+00
         21   -1    0    0  502  501  0.00000000000E+00  0.00000000000E+00  0.48274856747E+03  0.48274856747E+03  0.00000000000E+00 0.  1.
         21   -1    0    0  501  502 -0.00000000000E+00 -0.00000000000E+00 -0.13248369846E+03  0.13248369846E+03  0.00000000000E+00 0.  1.
         25    1    1    2    0    0  0.94181713468E+01 -0.53443664312E+02  0.19883057396E+03  0.24104672648E+03  0.12500000000E+03 0.  0.
         25    1    1    2    0    0 -0.42792160730E+02  0.31450874856E+02 -0.40456016998E+02  0.14171102942E+03  0.12500000000E+03 0.  0.
         25    1    1    2    0    0  0.33373989383E+02  0.21992789456E+02  0.19189031204E+03  0.23247451002E+03  0.12500000000E+03 0.  0.
</event>
<event>
 5    0  0.5612316E-005  0.2909267E+03  0.7546771E-02  0.1089866E+00
         21   -1    0    0  502  501  0.00000000000E+00  0.00000000000E+00  0.55869978167E+02  0.55869978167E+02  0.00000000000E+00 0.  1.
         21   -1    0    0  501  502 -0.00000000000E+00 -0.00000000000E+00 -0.15149160422E+04  0.15149160422E+04  0.00000000000E+00 0.  1.
         25    1    1    2    0    0 -0.19704706215E+02 -0.60632296955E+02 -0.29812944027E+03  0.32950070415E+03  0.12500000000E+03 0.  0.
         25    1    1    2    0    0  0.12050331065E+03 -0.20305368432E+02 -0.94152118487E+03  0.95761187202E+03  0.12500000000E+03 0.  0.
         25    1    1    2    0    0 -0.10079860444E+03  0.80937665387E+02 -0.21939543888E+03  0.28367344418E+03  0.12500000000E+03 0.  0.
</event>
<event>
 5    0  0.5612316E-005  0.3230388E+03  0.7546771E-02  0.1074259E+00
         21   -1    0    0  502  501  0.00000000000E+00  0.00000000000E+00  0.11214964035E+04  0.11214964035E+04  0.00000000000E+00 0. -1.
         21   -1    0    0  501  502 -0.00000000000E+00 -0.00000000000E+00 -0.93048953800E+02  0.93048953800E+02  0.00000000000E+00 0. -1.
         25    1    1    2    0    0 -0.14553797484E+03 -0.20276108794E+02  0.20088758443E+03  0.27851973770E+03  0.12500000000E+03 0.  0.
         25    1    1    2    0    0  0.17009436433E+03 -0.12118867561E+03  0.40408760390E+03  0.47173146969E+03  0.12500000000E+03 0.  0.
         25    1    1    2    0    0 -0.24556389491E+02  0.14146478441E+03  0.42347226141E+03  0.46429414995E+03  0.12500000000E+03 0.  0.
</event>
<event>
 5    0  0.5612316E-005  0.2101007E+03  0.7546771E-02  0.1141486E+00
         21   -1    0    0  502  501  0.00000000000E+00  0.00000000000E+00  0.10365813340E+04  0.10365813340E+04  0.00000000000E+00 0.  1.
         21   -1    0    0  501  502 -0.00000000000E+00 -0.00000000000E+00 -0.42584507146E+02  0.42584507146E+02  0.00000000000E+00 0.  1.
         25    1    1    2    0    0 -0.54686147831E+02  0.38155836055E+02  0.43771346204E+03  0.46007012231E+03  0.12500000000E+03 0.  0.
         25    1    1    2    0    0  0.46666848649E+02 -0.77701844169E+01  0.20312258782E+03  0.24315006932E+03  0.12500000000E+03 0.  0.
         25    1    1    2    0    0  0.80192991812E+01 -0.30385651639E+02  0.35316077704E+03  0.37594564956E+03  0.12500000000E+03 0.  0.
</event>
<event>
 5    0  0.5612316E-005  0.3762213E+03  0.7546771E-02  0.1052339E+00
         21   -1    0    0  502  501  0.00000000000E+00  0.00000000000E+00  0.12778125253E+03  0.12778125253E+03  0.00000000000E+00 0.  1.
         21   -1    0    0  501  502 -0.00000000000E+00 -0.00000000000E+00 -0.11076933301E+04  0.11076933301E+04  0.00000000000E+00 0.  1.
         25    1    1    2    0    0 -0.16076526488E+03 -0.13645759298E+03 -0.49280008457E+03  0.55040264210E+03  0.12500000000E+03 0.  0.
         25    1    1    2    0    0  0.30124426041E+02  0.15745498852E+03 -0.46775958322E+02  0.20859660767E+03  0.12500000000E+03 0.  0.
         25    1    1    2    0    0  0.13064083884E+03 -0.20997395544E+02 -0.44033603471E+03  0.47647533289E+03  0.12500000000E+03 0.  0.
</event>
<event>
 5    0  0.5612316E-005  0.2215073E+03  0.7546771E-02  0.1132764E+00
         21   -1    0    0  502  501  0.00000000000E+00  0.00000000000E+00  0.14514788052E+03  0.14514788052E+03  0.00000000000E+00 0. -1.
         21   -1    0    0  501  502 -0.00000000000E+00 -0.00000000000E+00 -0.33803783547E+03  0.33803783547E+03  0.00000000000E+00 0. -1.
         25    1    1    2    0    0 -0.37598566452E+02  0.14284731884E+02 -0.52558578953E+02  0.14143942161E+03  0.12500000000E+03 0.  0.
         25    1    1    2    0    0 -0.33121102480E+02 -0.22645784841E+02  0.12477518701E+02  0.13187314918E+03  0.12500000000E+03 0.  0.
         25    1    1    2    0    0  0.70719668931E+02  0.83610529571E+01 -0.15280889470E+03  0.20987314521E+03  0.12500000000E+03 0.  0.
</event>
<event>
 5    0  0.5612316E-005  0.2819902E+03  0.7546771E-02  0.1094607E+00
         21   -1    0    0  502  501  0.00000000000E+00  0.00000000000E+00  0.14721828483E+03  0.14721828483E+03  0.00000000000E+00 0.  1.
         21   -1    0    0  501  502 -0.00000000000E+00 -0.00000000000E+00 -0.54013985928E+03  0.54013985928E+03  0.00000000000E+00 0.  1.
         25    1    1    2    0    0  0.10588356488E+03  0.76471128455E+02  0.17798366718E+02  0.18166162131E+03  0.12500000000E+03 0.  0.
         25    1    1    2    0    0 -0.57517992680E+02 -0.80217261518E+02 -0.19606539253E+03  0.25260595138E+03  0.12500000000E+03 0.  0.
         25    1    1    2    0    0 -0.48365572196E+02  0.37461330628E+01 -0.21465454864E+03  0.25309057142E+03  0.12500000000E+03 0.  0.
</event>
<event>
 5    0  0.5612316E-005  0.4742670E+03  0.7546771E-02  0.1020723E+00
         21   -1    0    0  502  501  0.00000000000E+00  0.00000000000E+00  0.67255457128E+03  0.67255457128E+03  0.00000000000E+00 0.  1.
         21   -1    0    0  501  502 -0.00000000000E+00 -0.00000000000E+00 -0.33444010457E+03  0.33444010457E+03  0.00000000000E+00 0.  1.
         25    1    1    2    0    0 -0.31756856453E+02  0.63576071101E+02 -0.29041061353E+03  0.32405823427E+03  0.12500000000E+03 0.  0.
         25    1    1    2    0    0  0.21000376744E+02 -0.29973433489E+02  0.39232907884E+03  0.41338423850E+03  0.12500000000E+03 0.  0.
         25    1    1    2    0    0  0.10756479709E+02 -0.33602637612E+02  0.23619600140E+03  0.26955220308E+03  0.12500000000E+03 0.  0.
</event>
<event>
 5    0  0.5612316E-005  0.3869694E+03  0.7546771E-02  0.1048387E+00
         21   -1    0    0  502  501  0.00000000000E+00  0.00000000000E+00  0.25664456823E+03  0.25664456823E+03  0.00000000000E+00 0.  1.
         21   -1    0    0  501  502 -0.00000000000E+00 -0.00000000000E+00 -0.58347356330E+03  0.58347356330E+03  0.00000000000E+00 0.  1.
         25    1    1    2    0    0  0.17683069302E+03  0.15775281232E+03 -0.56747453759E+01  0.26797807098E+03  0.12500000000E+03 0.  0.
         25    1    1    2    0    0 -0.43817909185E+02 -0.23735732974E+03 -0.21440739114E+03  0.34619942306E+03  0.12500000000E+03 0.  0.
         25    1    1    2    0    0 -0.13301278383E+03  0.79604517424E+02 -0.10674685855E+03  0.22594063749E+03  0.12500000000E+03 0.  0.
</event>
<event>
 5    0  0.5612316E-005  0.2969705E+03  0.7546771E-02  0.1086765E+00
         21   -1    0    0  502  501  0.00000000000E+00  0.00000000000E+00  0.27821330702E+03  0.27821330702E+03  0.00000000000E+00 0.  1.
         21   -1    0    0  501  502 -0.00000000000E+00 -0.00000000000E+00 -0.31699230663E+03  0.31699230663E+03  0.00000000000E+00 0.  1.
         25    1    1    2    0    0  0.56029928761E+02  0.67188349706E+02  0.70722534771E+02  0.16816748847E+03  0.12500000000E+03 0.  0.
         25    1    1    2    0    0 -0.12764696331E+03 -0.11760315670E+03 -0.15907542997E+03  0.26656001600E+03  0.12500000000E+03 0.  0.
         25    1    1    2    0    0  0.71617034552E+02  0.50414806993E+02  0.49573895597E+02  0.16047810918E+03  0.12500000000E+03 0.  0.
</event>
<event>
 5    0  0.5612316E-005  0.3070634E+03  0.7546771E-02  0.1081762E+00
         21   -1    0    0  502  501  0.00000000000E+00  0.00000000000E+00  0.29556549933E+03  0.29556549933E+03  0.00000000000E+00 0. -1.
         21   -1    0    0  501  502 -0.00000000000E+00 -0.00000000000E+00 -0.31900864259E+03  0.31900864259E+03  0.00000000000E+00 0. -1.
         25    1    1    2    0    0  0.71258065003E+02 -0.10983415402E+03 -0.14430320327E+03  0.23149442259E+03  0.12500000000E+03 0.  0.
         25    1    1    2    0    0  0.57622656276E+02 -0.10698013836E+02  0.89599038741E+02  0.16458373480E+03  0.12500000000E+03 0.  0.
         25    1    1    2    0    0 -0.12888072128E+03  0.12053216786E+03  0.31261021262E+02  0.21849598453E+03  0.12500000000E+03 0.  0.
</event>
<event>
 5    0  0.5612316E-005  0.2068293E+03  0.7546771E-02  0.1144102E+00
         21   -1    0    0  502  501  0.00000000000E+00  0.00000000000E+00  0.17187003152E+03  0.17187003152E+03  0.00000000000E+00 0. -1.
         21   -1    0    0  501  502 -0.00000000000E+00 -0.00000000000E+00 -0.24889953580E+03  0.24889953580E+03  0.00000000000E+00 0. -1.
         25    1    1    2    0    0  0.39412168505E+02  0.42130779943E+02 -0.33017834362E+01  0.13771065107E+03  0.12500000000E+03 0.  0.
         25    1    1    2    0    0 -0.43726234656E+02 -0.64200988466E+01 -0.76282102598E+02  0.15296130374E+03  0.12500000000E+03 0.  0.
         25    1    1    2    0    0  0.43140661509E+01 -0.35710681096E+02  0.25543817519E+01  0.13009761250E+03  0.12500000000E+03 0.  0.
</event>
<event>
 5    0  0.5612316E-005  0.4767575E+03  0.7546771E-02  0.1020030E+00
         21   -1    0    0  502  501  0.00000000000E+00  0.00000000000E+00  0.69564627735E+03  0.69564627735E+03  0.00000000000E+00 0.  1.
         21   -1    0    0  501  502 -0.00000000000E+00 -0.00000000000E+00 -0.32674327675E+03  0.32674327675E+03  0.00000000000E+00 0.  1.
         25    1    1    2    0    0 -0.20747744814E+03  0.26434585997E+03  0.98951982618E+00  0.35854093813E+03  0.12500000000E+03 0.  0.
         25    1    1    2    0    0  0.18620348812E+03 -0.27986584100E+03  0.39472742668E+03  0.53332107527E+03  0.12500000000E+03 0.  0.
         25    1    1    2    0    0  0.21273960022E+02  0.15519981038E+02 -0.26813945911E+02  0.13052754070E+03  0.12500000000E+03 0.  0.
</event>
<event>
 5    0  0.5612316E-005  0.3305051E+03  0.7546771E-02  0.1070914E+00
         21   -1    0    0  502  501  0.00000000000E+00  0.00000000000E+00  0.58414721917E+02  0.58414721917E+02  0.00000000000E+00 0. -1.
         21   -1    0    0  501  502 -0.00000000000E+00 -0.00000000000E+00 -0.18699669801E+04  0.18699669801E+04  0.00000000000E+00 0. -1.
         25    1    1    2    0    0  0.20094069933E+02  0.78409975477E+02 -0.43621492439E+03  0.46093422107E+03  0.12500000000E+03 0.  0.
         25    1    1    2    0    0  0.49840198638E+02 -0.25176699399E+03 -0.82203770680E+03  0.87019633191E+03  0.12500000000E+03 0.  0.
         25    1    1    2    0    0 -0.69934268571E+02  0.17335701851E+03 -0.55329962699E+03  0.59725114903E+03  0.12500000000E+03 0.  0.
</event>
<event>
 5    0  0.5612316E-005  0.2673207E+03  0.7546771E-02  0.1102823E+00
         21   -1    0    0  502  501  0.00000000000E+00  0.00000000000E+00  0.83796700579E+03  0.83796700579E+03  0.00000000000E+00 0. -1.
         21   -1    0    0  501  502 -0.00000000000E+00 -0.00000000000E+00 -0.85278270486E+02  0.85278270486E+02  0.00000000000E+00 0.  1.
         25    1    1    2    0    0 -0.61913829596E+02 -0.63888475566E+02  0.64936085050E+02  0.16660358564E+03  0.12500000000E+03 0.  0.
         25    1    1    2    0    0  0.10950202793E+03  0.71069428052E+02  0.36885910286E+03  0.41075977832E+03  0.12500000000E+03 0.  0.
         25    1    1    2    0    0 -0.47588198330E+02 -0.71809524858E+01  0.31889354739E+03  0.34588191232E+03  0.12500000000E+03 0.  0.
</event>
<event>
 5    0  0.5612316E-005  0.4140404E+03  0.7546771E-02  0.1039024E+00
         21   -1    0    0  502  501  0.00000000000E+00  0.00000000000E+00  0.17752946660E+03  0.17752946660E+03  0.00000000000E+00 0.  1.
         21   -1    0    0  501  502 -0.00000000000E+00 -0.00000000000E+00 -0.96563965991E+03  0.96563965991E+03  0.00000000000E+00 0.  1.
         25    1    1    2    0    0  0.21422805027E+03  0.12620455454E+03 -0.67595070012E+03  0.73099630376E+03  0.12500000000E+03 0.  0.
         25    1    1    2    0    0  0.86111344101E+00 -0.31027774248E+02 -0.20107586085E+02  0.13035635508E+03  0.12500000000E+03 0.  0.
         25    1    1    2    0    0 -0.21508916371E+03 -0.95176780297E+02 -0.92051907100E+02  0.28181646768E+03  0.12500000000E+03 0.  0.
</event>
<event>
 5    0  0.5612316E-005  0.3663725E+03  0.7546771E-02  0.1056089E+00
         21   -1    0    0  502  501  0.00000000000E+00  0.00000000000E+00  0.49998428311E+02  0.49998428311E+02  0.00000000000E+00 0.  1.
         21   -1    0    0  501  502 -0.00000000000E+00 -0.00000000000E+00 -0.26846606668E+04  0.26846606668E+04  0.00000000000E+00 0.  1.
         25    1    1    2    0    0 -0.15880477758E+03  0.72327849722E+02 -0.43669507322E+03  0.48659825545E+03  0.12500000000E+03 0.  0.
         25    1    1    2    0    0  0.92517203643E+02  0.60831747146E+02 -0.17722747418E+04  0.17801243481E+04  0.12500000000E+03 0.  0.
         25    1    1    2    0    0  0.66287573939E+02 -0.13315959687E+03 -0.42569242345E+03  0.46793649150E+03  0.12500000000E+03 0.  0.
</event>
<event>
 5    0  0.5612316E-005  0.3668174E+03  0.7546771E-02  0.1055917E+00
         21   -1    0    0  502  501  0.00000000000E+00  0.00000000000E+00  0.53296900128E+03  0.53296900128E+03  0.00000000000E+00 0.  1.
         21   -1    0    0  501  502 -0.00000000000E+00 -0.00000000000E+00 -0.25246305147E+03  0.25246305147E+03  0.00000000000E+00 0.  1.
         25    1    1    2    0    0  0.58644246670E+02 -0.48114220914E+00  0.12917674644E+03  0.18907937747E+03  0.12500000000E+03 0.  0.
         25    1    1    2    0    0  0.76396045660E+02  0.21401262067E+03 -0.30161167291E+02  0.26109855153E+03  0.12500000000E+03 0.  0.
         25    1    1    2    0    0 -0.13504029233E+03 -0.21353147846E+03  0.18149037067E+03  0.33525412375E+03  0.12500000000E+03 0.  0.
</event>
<event>
 5    0  0.5612316E-005  0.2428437E+03  0.7546771E-02  0.1117913E+00
         21   -1    0    0  502  501  0.00000000000E+00  0.00000000000E+00  0.36891725330E+02  0.36891725330E+02  0.00000000000E+00 0.  1.
         21   -1    0    0  501  502 -0.00000000000E+00 -0.00000000000E+00 -0.15985440720E+04  0.15985440720E+04  0.00000000000E+00 0.  1.
         25    1    1    2    0    0 -0.56604579452E+02 -0.34174101668E+02 -0.10177165451E+04  0.10274939970E+04  0.12500000000E+03 0.  0.
         25    1    1    2    0    0  0.67599847343E+02  0.27151260384E+02 -0.31903022375E+03  0.35030303163E+03  0.12500000000E+03 0.  0.
         25    1    1    2    0    0 -0.10995267891E+02  0.70228412835E+01 -0.22490557776E+03  0.25763876867E+03  0.12500000000E+03 0.  0.
</event>
<event>
 5    0  0.5612316E-005  0.3485099E+03  0.7546771E-02  0.1063228E+00
         21   -1    0    0  502  501  0.00000000000E+00  0.00000000000E+00  0.80922202776E+02  0.80922202776E+02  0.00000000000E+00 0.  1.
         21   -1    0    0  501  502 -0.00000000000E+00 -0.00000000000E+00 -0.15009376098E+04  0.15009376098E+04  0.00000000000E+00 0.  1.
         25    1    1    2    0    0  0.79041833936E+02  0.10927467309E+03 -0.34851822412E+03  0.39405395346E+03  0.12500000000E+03 0.  0.
         25    1    1    2    0    0 -0.91442233165E+02  0.10299013773E+03 -0.16593561596E+03  0.24925544953E+03  0.12500000000E+03 0.  0.
         25    1    1    2    0    0  0.12400399229E+02 -0.21226481082E+03 -0.90556156694E+03  0.93855040958E+03  0.12500000000E+03 0.  0.
</event>
<event>
 5    0  0.5612316E-005  0.3516625E+03  0.7546771E-02  0.1061935E+00
         21   -1    0    0  502  501  0.00000000000E+00  0.00000000000E+00  0.85938180569E+03  0.85938180569E+03  0.00000000000E+00 0. -1.
         21   -1    0    0  501  502 -0.00000000000E+00 -0.00000000000E+00 -0.14390170532E+03  0.14390170532E+03  0.00000000000E+00 0. -1.
         25    1    1    2    0    0 -0.98423662943E+02  0.12934981155E+03  0.69545409731E+01  0.20516324431E+03  0.12500000000E+03 0.  0.
         25    1    1    2    0    0 -0.35183161590E+02 -0.13056948817E+02  0.14907522243E+03  0.19813318933E+03  0.12500000000E+03 0.  0.
         25    1    1    2    0    0  0.13360682453E+03 -0.11629286273E+03  0.55945033697E+03  0.59998707737E+03  0.12500000000E+03 0.  0.
</event>
<event>
 5    0  0.5612316E-005  0.5605225E+03  0.7546771E-02  0.9990873E-01
         21   -1    0    0  502  501  0.00000000000E+00  0.00000000000E+00  0.18642823424E+03  0.18642823424E+03  0.00000000000E+00 0.  1.
         21   -1    0    0  501  502 -0.00000000000E+00 -0.00000000000E+00 -0.16852888657E+04  0.16852888657E+04  0.00000000000E+00 0.  1.
         25    1    1    2    0    0  0.64426679059E+02 -0.38098129893E+03 -0.27420229406E+03  0.49000963784E+03  0.12500000000E+03 0.  0.
         25    1    1    2    0    0  0.77133063476E+02 -0.59729571001E+02 -0.26179226567E+03  0.30606751134E+03  0.12500000000E+03 0.  0.
         25    1    1    2    0    0 -0.14155974253E+03  0.44071086993E+03 -0.96286607176E+03  0.10756399508E+04  0.12500000000E+03 0.  0.
</event>
<event>
 5    0  0.6874560E-005  0.2947812E+03  0.7546771E-02  0.1087879E+00
         21   -1    0    0  502  501  0.00000000000E+00  0.00000000000E+00  0.45339516708E+03  0.45339516708E+03  0.00000000000E+00 0. -1.
         21   -1    0    0  501  502 -0.00000000000E+00 -0.00000000000E+00 -0.19165614758E+03  0.19165614758E+03  0.00000000000E+00 0. -1.
         25    1    1    2    0    0  0.57209519468E+02  0.39438747438E+02  0.20968099659E+03  0.25380989785E+03  0.12500000000E+03 0.  0.
         25    1    1    2    0    0 -0.39467092905E+02  0.64093257059E+02  0.14303824841E+03  0.20432948278E+03  0.12500000000E+03 0.  0.
         25    1    1    2    0    0 -0.17742426564E+02 -0.10353200450E+03 -0.90980225493E+02  0.18691193404E+03  0.12500000000E+03 0.  0.
</event>
<event>
 5    0  0.5612316E-005  0.2595852E+03  0.7546771E-02  0.1107393E+00
         21   -1    0    0  502  501  0.00000000000E+00  0.00000000000E+00  0.42841290124E+03  0.42841290124E+03  0.00000000000E+00 0.  1.
         21   -1    0    0  501  502 -0.00000000000E+00 -0.00000000000E+00 -0.15728856949E+03  0.15728856949E+03  0.00000000000E+00 0.  1.
         25    1    1    2    0    0  0.12358468975E+03  0.75303156611E+02  0.72167329470E+02  0.20439389516E+03  0.12500000000E+03 0.  0.
         25    1    1    2    0    0 -0.10008389041E+03  0.34033440005E+01  0.16077038410E+03  0.22693718134E+03  0.12500000000E+03 0.  0.
         25    1    1    2    0    0 -0.23500799336E+02 -0.78706500611E+02  0.38186618175E+02  0.15437039423E+03  0.12500000000E+03 0.  0.
</event>
<event>
 5    0  0.5612316E-005  0.3454612E+03  0.7546771E-02  0.1064494E+00
         21   -1    0    0  502  501  0.00000000000E+00  0.00000000000E+00  0.15343636291E+03  0.15343636291E+03  0.00000000000E+00 0.  1.
         21   -1    0    0  501  502 -0.00000000000E+00 -0.00000000000E+00 -0.77780398490E+03  0.77780398490E+03  0.00000000000E+00 0.  1.
         25    1    1    2    0    0  0.46083999230E+02 -0.34797589258E+02 -0.31890724577E+03  0.34736355394E+03  0.12500000000E+03 0.  0.
         25    1    1    2    0    0  0.38637586648E+01 -0.12931426666E+03 -0.32423016344E+03  0.37079280882E+03  0.12500000000E+03 0.  0.
         25    1    1    2    0    0 -0.49947757895E+02  0.16411185592E+03  0.18769787214E+02  0.21308398505E+03  0.12500000000E+03 0.  0.
</event>
<event>
 5    0  0.5695598E-005  0.3527852E+03  0.7546771E-02  0.1061478E+00
         21   -1    0    0  502  501  0.00000000000E+00  0.00000000000E+00  0.42124813117E+03  0.42124813117E+03  0.00000000000E+00 0. -1.
         21   -1    0    0  501  502 -0.00000000000E+00 -0.00000000000E+00 -0.29544908691E+03  0.29544908691E+03  0.00000000000E+00 0. -1.
         25    1    1    2    0    0 -0.17100836199E+03  0.87068180272E+01  0.10350985063E+03  0.23592150756E+03  0.12500000000E+03 0.  0.
         25    1    1    2    0    0 -0.88715601972E+02 -0.17555684758E+02  0.97810661386E+02  0.18267617683E+03  0.12500000000E+03 0.  0.
         25    1    1    2    0    0  0.25972396396E+03  0.88488667304E+01 -0.75521467759E+02  0.29809953369E+03  0.12500000000E+03 0.  0.
</event>
<event>
 5    0  0.5612316E-005  0.2984403E+03  0.7546771E-02  0.1086023E+00
         21   -1    0    0  502  501  0.00000000000E+00  0.00000000000E+00  0.73237753910E+03  0.73237753910E+03  0.00000000000E+00 0.  1.
         21   -1    0    0  501  502 -0.00000000000E+00 -0.00000000000E+00 -0.12161297875E+03  0.12161297875E+03  0.00000000000E+00 0.  1.
         25    1    1    2    0    0 -0.14475470527E+03  0.31428674248E+02  0.29138588231E+03  0.34996059588E+03  0.12500000000E+03 0.  0.
         25    1    1    2    0    0 -0.44470743402E+02 -0.62088746450E+02  0.60457059284E+02  0.15846991977E+03  0.12500000000E+03 0.  0.
         25    1    1    2    0    0  0.18922544867E+03  0.30660072202E+02  0.25892161876E+03  0.34556000219E+03  0.12500000000E+03 0.  0.
</event>
<event>
 5    0  0.5612316E-005  0.2319671E+03  0.7546771E-02  0.1125263E+00
         21   -1    0    0  502  501  0.00000000000E+00  0.00000000000E+00  0.14095309604E+03  0.14095309604E+03  0.00000000000E+00 0.  1.
         21   -1    0    0  501  502 -0.00000000000E+00 -0.00000000000E+00 -0.38174931859E+03  0.38174931859E+03  0.00000000000E+00 0.  1.
         25    1    1    2    0    0 -0.13126592641E+02  0.30738611533E+02  0.14251788873E+02  0.13017404949E+03  0.12500000000E+03 0.  0.
         25    1    1    2    0    0 -0.48147951300E+02  0.38773214981E+02 -0.14987862252E+03  0.20471978142E+03  0.12500000000E+03 0.  0.
         25    1    1    2    0    0  0.61274543941E+02 -0.69511826514E+02 -0.10516938889E+03  0.18780858372E+03  0.12500000000E+03 0.  0.
</event>
<event>
 5    0  0.5612316E-005  0.3919170E+03  0.7546771E-02  0.1046615E+00
         21   -1    0    0  502  501  0.00000000000E+00  0.00000000000E+00  0.94437712210E+02  0.94437712210E+02  0.00000000000E+00 0. -1.
         21   -1    0    0  501  502 -0.00000000000E+00 -0.00000000000E+00 -0.16264572706E+04  0.16264572706E+04  0.00000000000E+00 0. -1.
         25    1    1    2    0    0 -0.17199092576E+03 -0.21442864804E+03 -0.82228031986E+03  0.87597399966E+03  0.12500000000E+03 0.  0.
         25    1    1    2    0    0  0.18591212263E+03  0.70872747495E+02 -0.23084134776E+03  0.32939185102E+03  0.12500000000E+03 0.  0.
         25    1    1    2    0    0 -0.13921196872E+02  0.14355590054E+03 -0.47889789073E+03  0.51552913211E+03  0.12500000000E+03 0.  0.
</event>
<event>
 5    0  0.5612316E-005  0.2598481E+03  0.7546771E-02  0.1107235E+00
         21   -1    0    0  502  501  0.00000000000E+00  0.00000000000E+00  0.44028175938E+03  0.44028175938E+03  0.00000000000E+00 0. -1.
         21   -1    0    0  501  502 -0.00000000000E+00 -0.00000000000E+00 -0.15335868121E+03  0.15335868121E+03  0.00000000000E+00 0. -1.
         25    1    1    2    0    0  0.34301596645E+01  0.22846160278E+02  0.40786253679E+02  0.13349993080E+03  0.12500000000E+03 0.  0.
         25    1    1    2    0    0  0.81643317136E+00 -0.15933162055E+03  0.11100702361E+03  0.23094326394E+03  0.12500000000E+03 0.  0.
         25    1    1    2    0    0 -0.42465928359E+01  0.13648546027E+03  0.13512980088E+03  0.22919724584E+03  0.12500000000E+03 0.  0.
</event>
<event>
 5    0  0.5612316E-005  0.3956703E+03  0.7546771E-02  0.1045289E+00
         21   -1    0    0  502  501  0.00000000000E+00  0.00000000000E+00  0.71027009531E+02  0.71027009531E+02  0.00000000000E+00 0.  1.
         21   -1    0    0  501  502 -0.00000000000E+00 -0.00000000000E+00 -0.22041616750E+04  0.22041616750E+04  0.00000000000E+00 0.  1.
         25    1    1    2    0    0  0.18927935614E+03 -0.34395535358E+02 -0.32235045529E+03  0.39565710348E+03  0.12500000000E+03 0.  0.
         25    1    1    2    0    0  0.77554534404E+02  0.99985849096E+02 -0.41558534128E+03  0.45204872714E+03  0.12500000000E+03 0.  0.
         25    1    1    2    0    0 -0.26683389055E+03 -0.65590313738E+02 -0.13951988689E+04  0.14274828539E+04  0.12500000000E+03 0.  0.
</event>
<event>
 5    0  0.5612316E-005  0.3399012E+03  0.7546771E-02  0.1066838E+00
         21   -1    0    0  502  501  0.00000000000E+00  0.00000000000E+00  0.11445851788E+04  0.11445851788E+04  0.00000000000E+00 0. -1.
         21   -1    0    0  501  502 -0.00000000000E+00 -0.00000000000E+00 -0.10093858759E+03  0.10093858759E+03  0.00000000000E+00 0. -1.
         25    1    1    2    0    0 -0.20143247997E+01 -0.47595019544E+02  0.52254979860E+03  0.53940025529E+03  0.12500000000E+03 0.  0.
         25    1    1    2    0    0 -0.28624964226E+02  0.21733225678E+03  0.35725316226E+03  0.43738715157E+03  0.12500000000E+03 0.  0.
         25    1    1    2    0    0  0.30639289026E+02 -0.16973723724E+03  0.16384363040E+03  0.26873635958E+03  0.12500000000E+03 0.  0.
</event>
<event>
 5    0  0.5612316E-005  0.4369284E+03  0.7546771E-02  0.1031693E+00
         21   -1    0    0  502  501  0.00000000000E+00  0.00000000000E+00  0.52106482298E+03  0.52106482298E+03  0.00000000000E+00 0.  1.
         21   -1    0    0  501  502 -0.00000000000E+00 -0.00000000000E+00 -0.36637743736E+03  0.36637743736E+03  0.00000000000E+00 0.  1.
         25    1    1    2    0    0  0.69013935133E+02  0.73461274620E+02  0.42636314826E+03  0.45559852535E+03  0.12500000000E+03 0.  0.
         25    1    1    2    0    0  0.40712687223E+02 -0.10216688238E+03 -0.12439212888E+03  0.20783165419E+03  0.12500000000E+03 0.  0.
         25    1    1    2    0    0 -0.10972662236E+03  0.28705607756E+02 -0.14728363375E+03  0.22401208079E+03  0.12500000000E+03 0.  0.
</event>
<event>
 5    0  0.5612316E-005  0.2668679E+03  0.7546771E-02  0.1103086E+00
         21   -1    0    0  502  501  0.00000000000E+00  0.00000000000E+00  0.21234099871E+03  0.21234099871E+03  0.00000000000E+00 0.  1.
         21   -1    0    0  501  502 -0.00000000000E+00 -0.00000000000E+00 -0.33539682295E+03  0.33539682295E+03  0.00000000000E+00 0.  1.
         25    1    1    2    0    0 -0.47898464842E+02 -0.10733977567E+03  0.70591130395E+02  0.18553759205E+03  0.12500000000E+03 0.  0.
         25    1    1    2    0    0  0.15524413017E+02  0.10811984717E+02 -0.14800133643E+03  0.19464660798E+03  0.12500000000E+03 0.  0.
         25    1    1    2    0    0  0.32374051825E+02  0.96527790949E+02 -0.45645618210E+02  0.16755362162E+03  0.12500000000E+03 0.  0.
</event>
<event>
 5    0  0.5612316E-005  0.2563639E+03  0.7546771E-02  0.1109348E+00
         21   -1    0    0  502  501  0.00000000000E+00  0.00000000000E+00  0.16860911392E+03  0.16860911392E+03  0.00000000000E+00 0. -1.
         21   -1    0    0  501  502 -0.00000000000E+00 -0.00000000000E+00 -0.38979180662E+03  0.38979180662E+03  0.00000000000E+00 0. -1.
         25    1    1    2    0    0 -0.18779831715E+02 -0.81600788013E+02 -0.50718428657E+02  0.15877257222E+03  0.12500000000E+03 0.  0.
         25    1    1    2    0    0  0.10466120971E+03  0.12219704592E+03 -0.10861530191E+03  0.23088605557E+03  0.12500000000E+03 0.  0.
         25    1    1    2    0    0 -0.85881377998E+02 -0.40596257902E+02 -0.61848962132E+02  0.16874229274E+03  0.12500000000E+03 0.  0.
</event>
<event>
 5    0  0.5612316E-005  0.3225142E+03  0.7546771E-02  0.1074498E+00
         21   -1    0    0  502  501  0.00000000000E+00  0.00000000000E+00  0.58939840492E+02  0.58939840492E+02  0.00000000000E+00 0.  1.
         21   -1    0    0  501  502 -0.00000000000E+00 -0.00000000000E+00 -0.17647728740E+04  0.17647728740E+04  0.00000000000E+00 0.  1.
         25    1    1    2    0    0 -0.14608489188E+03  0.14064009594E+02 -0.42619345502E+03  0.46776538254E+03  0.12500000000E+03 0.  0.
         25    1    1    2    0    0 -0.24414421352E+02 -0.14445822088E+03 -0.43915211717E+03  0.47952458078E+03  0.12500000000E+03 0.  0.
         25    1    1    2    0    0  0.17049931323E+03  0.13039421129E+03 -0.84048746127E+03  0.87642275113E+03  0.12500000000E+03 0.  0.
</event>
<event>
 5    0  0.5642078E-005  0.2895558E+03  0.7546771E-02  0.1090581E+00
         21   -1    0    0  502  501  0.00000000000E+00  0.00000000000E+00  0.18720455838E+03  0.18720455838E+03  0.00000000000E+00 0.  1.
         21   -1    0    0  501  502 -0.00000000000E+00 -0.00000000000E+00 -0.44786590417E+03  0.44786590417E+03  0.00000000000E+00 0.  1.
         25    1    1    2    0    0  0.17622082461E+02 -0.13515452768E+03 -0.47977274829E+02  0.19106046960E+03  0.12500000000E+03 0.  0.
         25    1    1    2    0    0 -0.20514643436E+02  0.91064742758E+02  0.37871854998E+02  0.16053945113E+03  0.12500000000E+03 0.  0.
         25    1    1    2    0    0  0.28925609750E+01  0.44089784921E+02 -0.25055592596E+03  0.28347054182E+03  0.12500000000E+03 0.  0.
</event>
<event>
 5    0  0.5612316E-005  0.2640003E+03  0.7546771E-02  0.1104763E+00
         21   -1    0    0  502  501  0.00000000000E+00  0.00000000000E+00  0.77711598706E+03  0.77711598706E+03  0.00000000000E+00 0.  1.
         21   -1    0    0  501  502 -0.00000000000E+00 -0.00000000000E+00 -0.89685662737E+02  0.89685662737E+02  0.00000000000E+00 0.  1.
         25    1    1    2    0    0  0.20926707806E+02  0.14024346201E+03  0.12742613353E+03  0.22796617127E+03  0.12500000000E+03 0.  0.
         25    1    1    2    0    0  0.42490986640E+02 -0.71215386525E+02  0.30216783818E+03  0.33735369814E+03  0.12500000000E+03 0.  0.
         25    1    1    2    0    0 -0.63417694446E+02 -0.69028075485E+02  0.25783635262E+03  0.30148178039E+03  0.12500000000E+03 0.  0.
</event>
<event>
 5    0  0.5612316E-005  0.3344023E+03  0.7546771E-02  0.1069205E+00
         21   -1    0    0  502  501  0.00000000000E+00  0.00000000000E+00  0.26393417455E+03  0.26393417455E+03  0.00000000000E+00 0.  1.
         21   -1    0    0  501  502 -0.00000000000E+00 -0.00000000000E+00 -0.42368489376E+03  0.42368489376E+03  0.00000000000E+00 0.  1.
         25    1    1    2    0    0  0.16465318314E+03  0.11788382368E+03 -0.18014206667E+03  0.29846847537E+03  0.12500000000E+03 0.  0.
         25    1    1    2    0    0 -0.42419021232E+02  0.28040987359E+02 -0.59952173884E+02  0.14766493655E+03  0.12500000000E+03 0.  0.
         25    1    1    2    0    0 -0.12223416191E+03 -0.14592481104E+03  0.80343521353E+02  0.24148565638E+03  0.12500000000E+03 0.  0.
</event>
<event>
 5    0  0.5612316E-005  0.2437581E+03  0.7546771E-02  0.1117314E+00
         21   -1    0    0  502  501  0.00000000000E+00  0.00000000000E+00  0.22861137356E+03  0.22861137356E+03  0.00000000000E+00 0.  1.
         21   -1    0    0  501  502 -0.00000000000E+00 -0.00000000000E+00 -0.25990838874E+03  0.25990838874E+03  0.00000000000E+00 0.  1.
         25    1    1    2    0    0  0.10913014187E+02  0.12782728323E+03 -0.27989496136E+02  0.18129346406E+03  0.12500000000E+03 0.  0.
         25    1    1    2    0    0  0.16352678036E+02 -0.81788195440E+01 -0.30498565968E+02  0.12995947712E+03  0.12500000000E+03 0.  0.
         25    1    1    2    0    0 -0.27265692222E+02 -0.11964846369E+03  0.27191046926E+02  0.17726682111E+03  0.12500000000E+03 0.  0.
</event>
<event>
 5    0  0.6286120E-005  0.3338160E+03  0.7546771E-02  0.1069461E+00
         21   -1    0    0  502  501  0.00000000000E+00  0.00000000000E+00  0.40831218287E+03  0.40831218287E+03  0.00000000000E+00 0.  1.
         21   -1    0    0  501  502 -0.00000000000E+00 -0.00000000000E+00 -0.27291158523E+03  0.27291158523E+03  0.00000000000E+00 0.  1.
         25    1    1    2    0    0 -0.16060291447E+03 -0.10907971501E+03  0.73477455323E+02  0.24231305537E+03  0.12500000000E+03 0.  0.
         25    1    1    2    0    0  0.79553309663E+02 -0.48601426558E+02 -0.84338274522E+02  0.17728161859E+03  0.12500000000E+03 0.  0.
         25    1    1    2    0    0  0.81049604806E+02  0.15768114157E+03  0.14626141684E+03  0.26162909414E+03  0.12500000000E+03 0.  0.
</event>
<event>
 5    0  0.5612316E-005  0.4148366E+03  0.7546771E-02  0.1038760E+00
         21   -1    0    0  502  501  0.00000000000E+00  0.00000000000E+00  0.23357990314E+03  0.23357990314E+03  0.00000000000E+00 0.  1.
         21   -1    0    0  501  502 -0.00000000000E+00 -0.00000000000E+00 -0.73674733390E+03  0.73674733390E+03  0.00000000000E+00 0.  1.
         25    1    1    2    0    0 -0.21036196937E+03 -0.93617769979E+02  0.24025717625E+02  0.26309443194E+03  0.12500000000E+03 0.  0.
         25    1    1    2    0    0  0.11090747561E+03 -0.11881677730E+03 -0.21205878203E+03  0.29497766314E+03  0.12500000000E+03 0.  0.
         25    1    1    2    0    0  0.99454493760E+02  0.21243454728E+03 -0.31513436635E+03  0.41225514195E+03  0.12500000000E+03 0.  0.
</event>
<event>
 5    0  0.5966745E-005  0.2393689E+03  0.7546771E-02  0.1120214E+00
         21   -1    0    0  502  501  0.00000000000E+00  0.00000000000E+00  0.57164635536E+03  0.57164635536E+03  0.00000000000E+00 0. -1.
         21   -1    0    0  501  502 -0.00000000000E+00 -0.00000000000E+00 -0.10023233656E+03  0.10023233656E+03  0.00000000000E+00 0. -1.
         25    1    1    2    0    0 -0.26803345562E+02 -0.29408650994E+02  0.23257651645E+03  0.26702083082E+03  0.12500000000E+03 0.  0.
         25    1    1    2    0    0  0.48517196601E+02 -0.27853197032E+02  0.22706358513E+03  0.26516521386E+03  0.12500000000E+03 0.  0.
         25    1    1    2    0    0 -0.21713851039E+02  0.57261848027E+02  0.11773917223E+02  0.13969264724E+03  0.12500000000E+03 0.  0.
</event>
<event>
 5    0  0.5612316E-005  0.3642358E+03  0.7546771E-02  0.1056919E+00
         21   -1    0    0  502  501  0.00000000000E+00  0.00000000000E+00  0.15725790562E+03  0.15725790562E+03  0.00000000000E+00 0. -1.
         21   -1    0    0  501  502 -0.00000000000E+00 -0.00000000000E+00 -0.84363164191E+03  0.84363164191E+03  0.00000000000E+00 0. -1.
         25    1    1    2    0    0 -0.14610225916E+03  0.21237649419E+02 -0.32887420510E+03  0.38154966999E+03  0.12500000000E+03 0.  0.
         25    1    1    2    0    0  0.18525767212E+03  0.11158005552E+03 -0.35337986757E+03  0.43275032602E+03  0.12500000000E+03 0.  0.
         25    1    1    2    0    0 -0.39155412959E+02 -0.13281770494E+03 -0.41196636274E+01  0.18658955152E+03  0.12500000000E+03 0.  0.
</event>
<event>
 5    0  0.5612316E-005  0.2841775E+03  0.7546771E-02  0.1093429E+00
         21   -1    0    0  502  501  0.00000000000E+00  0.00000000000E+00  0.94044767142E+03  0.94044767142E+03  0.00000000000E+00 0.  1.
         21   -1    0    0  501  502 -0.00000000000E+00 -0.00000000000E+00 -0.85870663152E+02  0.85870663152E+02  0.00000000000E+00 0.  1.
         25    1    1    2    0    0 -0.70215618753E+02 -0.34700453451E+02  0.47385467908E+03  0.49628380134E+03  0.12500000000E+03 0.  0.
         25    1    1    2    0    0  0.15956996165E+03  0.59190099079E+02  0.24618394687E+03  0.32434175831E+03  0.12500000000E+03 0.  0.
         25    1    1    2    0    0 -0.89354342896E+02 -0.24489645628E+02  0.13453838233E+03  0.20569277493E+03  0.12500000000E+03 0.  0.
</event>
<event>
 5    0  0.5612316E-005  0.2392764E+03  0.7546771E-02  0.1120276E+00
         21   -1    0    0  502  501  0.00000000000E+00  0.00000000000E+00  0.31039432636E+03  0.31039432636E+03  0.00000000000E+00 0. -1.
         21   -1    0    0  501  502 -0.00000000000E+00 -0.00000000000E+00 -0.18445315286E+03  0.18445315286E+03  0.00000000000E+00 0. -1.
         25    1    1    2    0    0  0.10127667142E+02  0.14521518715E+02  0.10120287787E+03  0.16180379055E+03  0.12500000000E+03 0.  0.
         25    1    1    2    0    0 -0.35757626324E+02  0.84805891466E+02 -0.37640565730E+02  0.15972620091E+03  0.12500000000E+03 0.  0.
         25    1    1    2    0    0  0.25629959183E+02 -0.99327410180E+02  0.62378861349E+02  0.17331748776E+03  0.12500000000E+03 0.  0.
</event>
<event>
 5    0  0.5612316E-005  0.2428819E+03  0.7546771E-02  0.1117888E+00
         21   -1    0    0  502  501  0.00000000000E+00  0.00000000000E+00  0.43067156555E+03  0.43067156555E+03  0.00000000000E+00 0.  1.
         21   -1    0    0  501  502 -0.00000000000E+00 -0.00000000000E+00 -0.13697593369E+03  0.13697593369E+03  0.00000000000E+00 0.  1.
         25    1    1    2    0    0 -0.61849554762E+02 -0.17898231616E+02  0.14247121791E+03  0.20017183131E+03  0.12500000000E+03 0.  0.
         25    1    1    2    0    0  0.80836157351E+02  0.25858405788E+02 -0.22196366625E+02  0.15271155875E+03  0.12500000000E+03 0.  0.
         25    1    1    2    0    0 -0.18986602589E+02 -0.79601741727E+01  0.17342078058E+03  0.21476410917E+03  0.12500000000E+03 0.  0.
</event>
<event>
 5    0  0.5612316E-005  0.2126015E+03  0.7546771E-02  0.1139522E+00
         21   -1    0    0  502  501  0.00000000000E+00  0.00000000000E+00  0.30214730647E+03  0.30214730647E+03  0.00000000000E+00 0. -1.
         21   -1    0    0  501  502 -0.00000000000E+00 -0.00000000000E+00 -0.14959391082E+03  0.14959391082E+03  0.00000000000E+00 0. -1.
         25    1    1    2    0    0 -0.42297711351E+02  0.50914187802E+02  0.12491769007E+03  0.18870818795E+03  0.12500000000E+03 0.  0.
         25    1    1    2    0    0  0.31414833288E+02 -0.34179510847E+02 -0.57622620938E+00  0.13334340159E+03  0.12500000000E+03 0.  0.
         25    1    1    2    0    0  0.10882878062E+02 -0.16734676956E+02  0.28211931786E+02  0.12968962774E+03  0.12500000000E+03 0.  0.
</event>
<event>
 5    0  0.5612316E-005  0.7175921E+03  0.7546771E-02  0.9687611E-01
         21   -1    0    0  502  501  0.00000000000E+00  0.00000000000E+00  0.56638938257E+03  0.56638938257E+03  0.00000000000E+00 0. -1.
         21   -1    0    0  501  502 -0.00000000000E+00 -0.00000000000E+00 -0.90915985373E+03  0.90915985373E+03  0.00000000000E+00 0. -1.
         25    1    1    2    0    0 -0.71909830244E+00 -0.12947024365E+03 -0.26981070780E+03  0.32432372583E+03  0.12500000000E+03 0.  0.
         25    1    1    2    0    0  0.30296547216E+03  0.10177894996E+03 -0.50380741623E+03  0.60958505939E+03  0.12500000000E+03 0.  0.
         25    1    1    2    0    0 -0.30224637386E+03  0.27691293690E+02  0.43084765287E+03  0.54164045108E+03  0.12500000000E+03 0.  0.
</event>
<event>
 5    0  0.5612316E-005  0.2605037E+03  0.7546771E-02  0.1106841E+00
         21   -1    0    0  502  501  0.00000000000E+00  0.00000000000E+00  0.14500086262E+04  0.14500086262E+04  0.00000000000E+00 0.  1.
         21   -1    0    0  501  502 -0.00000000000E+00 -0.00000000000E+00 -0.46801231148E+02  0.46801231148E+02  0.00000000000E+00 0.  1.
         25    1    1    2    0    0  0.32662535883E+02 -0.85803627857E+02  0.71051200071E+03  0.72724233028E+03  0.12500000000E+03 0.  0.
         25    1    1    2    0    0  0.70413731671E+02  0.53927834072E+02  0.45519564312E+03  0.48030654629E+03  0.12500000000E+03 0.  0.
         25    1    1    2    0    0 -0.10307626755E+03  0.31875793785E+02  0.23749975118E+03  0.28926098073E+03  0.12500000000E+03 0.  0.
</event>
<event>
 5    0  0.5612316E-005  0.3341269E+03  0.7546771E-02  0.1069325E+00
         21   -1    0    0  502  501  0.00000000000E+00  0.00000000000E+00  0.12002092846E+04  0.12002092846E+04  0.00000000000E+00 0.  1.
         21   -1    0    0  501  502 -0.00000000000E+00 -0.00000000000E+00 -0.93017743558E+02  0.93017743558E+02  0.00000000000E+00 0.  1.
         25    1    1    2    0    0 -0.17676386547E+03 -0.17750931938E+03  0.33191813241E+03  0.43422306390E+03  0.12500000000E+03 0.  0.
         25    1    1    2    0    0  0.91433075191E+02  0.15043284019E+03  0.46862254854E+03  0.51596718853E+03  0.12500000000E+03 0.  0.
         25    1    1    2    0    0  0.85330790279E+02  0.27076479194E+02  0.30665086005E+03  0.34303677567E+03  0.12500000000E+03 0.  0.
</event>
<event>
 5    0  0.5612316E-005  0.3652203E+03  0.7546771E-02  0.1056536E+00
         21   -1    0    0  502  501  0.00000000000E+00  0.00000000000E+00  0.78239193177E+02  0.78239193177E+02  0.00000000000E+00 0. -1.
         21   -1    0    0  501  502 -0.00000000000E+00 -0.00000000000E+00 -0.17048469191E+04  0.17048469191E+04  0.00000000000E+00 0. -1.
         25    1    1    2    0    0 -0.16468849964E+03 -0.39775528050E+02 -0.49746240801E+03  0.54018352615E+03  0.12500000000E+03 0.  0.
         25    1    1    2    0    0  0.25817458963E+01  0.19785669175E+03 -0.73594081642E+03  0.77226149792E+03  0.12500000000E+03 0.  0.
         25    1    1    2    0    0  0.16210675374E+03 -0.15808116370E+03 -0.39320450154E+03  0.47064108826E+03  0.12500000000E+03 0.  0.
</event>
<event>
 5    0  0.5612316E-005  0.3142671E+03  0.7546771E-02  0.1078318E+00
         21   -1    0    0  502  501  0.00000000000E+00  0.00000000000E+00  0.23192191987E+03  0.23192191987E+03  0.00000000000E+00 0. -1.
         21   -1    0    0  501  502 -0.00000000000E+00 -0.00000000000E+00 -0.42584928796E+03  0.42584928796E+03  0.00000000000E+00 0. -1.
         25    1    1    2    0    0 -0.19114026911E+03 -0.17222662830E+02 -0.18059087720E+03  0.29166639765E+03  0.12500000000E+03 0.  0.
         25    1    1    2    0    0  0.16201067290E+03 -0.34624915465E+02  0.50616606668E+02  0.21361971767E+03  0.12500000000E+03 0.  0.
         25    1    1    2    0    0  0.29129596210E+02  0.51847578295E+02 -0.63953097555E+02  0.15248509251E+03  0.12500000000E+03 0.  0.
</event>
<event>
 5    0  0.5612316E-005  0.3886976E+03  0.7546771E-02  0.1047765E+00
         21   -1    0    0  502  501  0.00000000000E+00  0.00000000000E+00  0.24094110670E+03  0.24094110670E+03  0.00000000000E+00 0.  1.
         21   -1    0    0  501  502 -0.00000000000E+00 -0.00000000000E+00 -0.62706540904E+03  0.62706540904E+03  0.00000000000E+00 0.  1.
         25    1    1    2    0    0  0.12743645645E+03 -0.44515410408E+02 -0.58425508246E+02  0.19302904499E+03  0.12500000000E+03 0.  0.
         25    1    1    2    0    0 -0.24429701094E+03 -0.18611556836E+01  0.29693035546E+02  0.27602748018E+03  0.12500000000E+03 0.  0.
         25    1    1    2    0    0  0.11686055449E+03  0.46376566092E+02 -0.35739182965E+03  0.39894999057E+03  0.12500000000E+03 0.  0.
</event>
<event>
 5    0  0.6150470E-005  0.2949387E+03  0.7546771E-02  0.1087798E+00
         21   -1    0    0  502  501  0.00000000000E+00  0.00000000000E+00  0.14227456699E+03  0.14227456699E+03  0.00000000000E+00 0.  1.
         21   -1    0    0  501  502 -0.00000000000E+00 -0.00000000000E+00 -0.61141518090E+03  0.61141518090E+03  0.00000000000E+00 0.  1.
         25    1    1    2    0    0  0.34135261696E+02 -0.14203836050E+03 -0.13917819213E+02  0.19276622535E+03  0.12500000000E+03 0.  0.
         25    1    1    2    0    0  0.50400010153E+02  0.71338191384E+02 -0.28179124637E+03  0.32040693673E+03  0.12500000000E+03 0.  0.
         25    1    1    2    0    0 -0.84535271850E+02  0.70700169112E+02 -0.17343154832E+03  0.24051658582E+03  0.12500000000E+03 0.  0.
</event>
<event>
 5    0  0.5612316E-005  0.2566359E+03  0.7546771E-02  0.1109181E+00
         21   -1    0    0  502  501  0.00000000000E+00  0.00000000000E+00  0.25534964708E+03  0.25534964708E+03  0.00000000000E+00 0. -1.
         21   -1    0    0  501  502 -0.00000000000E+00 -0.00000000000E+00 -0.25792860047E+03  0.25792860047E+03  0.00000000000E+00 0. -1.
         25    1    1    2    0    0 -0.12549751891E+02  0.10898346659E+03 -0.10004877455E+02  0.16661329429E+03  0.12500000000E+03 0.  0.
         25    1    1    2    0    0 -0.41699222787E+02 -0.13759245492E+03  0.57015646431E+02  0.19886249715E+03  0.12500000000E+03 0.  0.
         25    1    1    2    0    0  0.54248974678E+02  0.28608988335E+02 -0.49589722371E+02  0.14780245611E+03  0.12500000000E+03 0.  0.
</event>
<event>
 5    0  0.5612316E-005  0.3905890E+03  0.7546771E-02  0.1047088E+00
         21   -1    0    0  502  501  0.00000000000E+00  0.00000000000E+00  0.76995347147E+03  0.76995347147E+03  0.00000000000E+00 0. -1.
         21   -1    0    0  501  502 -0.00000000000E+00 -0.00000000000E+00 -0.19814158710E+03  0.19814158710E+03  0.00000000000E+00 0. -1.
         25    1    1    2    0    0  0.13717323753E+03 -0.56990716544E+02  0.46091431430E+02  0.19953410465E+03  0.12500000000E+03 0.  0.
         25    1    1    2    0    0  0.14386944700E+03  0.61333705230E+02  0.57458398860E+02  0.20829476416E+03  0.12500000000E+03 0.  0.
         25    1    1    2    0    0 -0.28104268454E+03 -0.43429886864E+01  0.46826205409E+03  0.56026618975E+03  0.12500000000E+03 0.  0.
</event>
<event>
 5    0  0.6049033E-005  0.2659165E+03  0.7546771E-02  0.1103640E+00
         21   -1    0    0  502  501  0.00000000000E+00  0.00000000000E+00  0.47605525255E+03  0.47605525255E+03  0.00000000000E+00 0. -1.
         21   -1    0    0  501  502 -0.00000000000E+00 -0.00000000000E+00 -0.14853653140E+03  0.14853653140E+03  0.00000000000E+00 0. -1.
         25    1    1    2    0    0  0.12260724209E+01  0.74117551641E+02  0.17650229353E+03  0.22863283740E+03  0.12500000000E+03 0.  0.
         25    1    1    2    0    0  0.59386042428E+02 -0.12926615845E+03  0.86930119067E+01  0.18957059427E+03  0.12500000000E+03 0.  0.
         25    1    1    2    0    0 -0.60612114849E+02  0.55148606807E+02  0.14232341571E+03  0.20638835228E+03  0.12500000000E+03 0.  0.
</event>
<event>
 5    0  0.5612316E-005  0.2649619E+03  0.7546771E-02  0.1104198E+00
         21   -1    0    0  502  501  0.00000000000E+00  0.00000000000E+00  0.84784194089E+02  0.84784194089E+02  0.00000000000E+00 0.  1.
         21   -1    0    0  501  502 -0.00000000000E+00 -0.00000000000E+00 -0.82804132666E+03  0.82804132666E+03  0.00000000000E+00 0.  1.
         25    1    1    2    0    0  0.83358995670E+02  0.94027739742E+02 -0.16767043810E+03  0.24398424911E+03  0.12500000000E+03 0.  0.
         25    1    1    2    0    0 -0.72813863983E+01 -0.12663768407E+03 -0.40068626133E+03  0.43847987597E+03  0.12500000000E+03 0.  0.
         25    1    1    2    0    0 -0.76077609271E+02  0.32609944326E+02 -0.17490043314E+03  0.23036139567E+03  0.12500000000E+03 0.  0.
</event>
<event>
 5    0  0.5612316E-005  0.3425117E+03  0.7546771E-02  0.1065731E+00
         21   -1    0    0  502  501  0.00000000000E+00  0.00000000000E+00  0.22964787690E+03  0.22964787690E+03  0.00000000000E+00 0.  1.
         21   -1    0    0  501  502 -0.00000000000E+00 -0.00000000000E+00 -0.51084423278E+03  0.51084423278E+03  0.00000000000E+00 0.  1.
         25    1    1    2    0    0  0.14703146402E+03  0.37668809929E+01  0.57785963541E+02  0.20148612455E+03  0.12500000000E+03 0.  0.
         25    1    1    2    0    0  0.11852403266E+02 -0.12101378406E+03 -0.20681105994E+03  0.27051918584E+03  0.12500000000E+03 0.  0.
         25    1    1    2    0    0 -0.15888386728E+03  0.11724690306E+03 -0.13217125948E+03  0.26848679929E+03  0.12500000000E+03 0.  0.
</event>
<event>
 5    0  0.5965376E-005  0.2599539E+03  0.7546771E-02  0.1107171E+00
         21   -1    0    0  502  501  0.00000000000E+00  0.00000000000E+00  0.30698672958E+03  0.30698672958E+03  0.00000000000E+00 0.  1.
         21   -1    0    0  501  502 -0.00000000000E+00 -0.00000000000E+00 -0.22012687044E+03  0.22012687044E+03  0.00000000000E+00 0.  1.
         25    1    1    2    0    0 -0.77974418096E+02 -0.43638987376E+02 -0.30974269189E+01  0.15368462887E+03  0.12500000000E+03 0.  0.
         25    1    1    2    0    0 -0.75791236539E+02  0.38095951108E+02  0.88705879990E+02  0.17518374974E+03  0.12500000000E+03 0.  0.
         25    1    1    2    0    0  0.15376565463E+03  0.55430362685E+01  0.12514060748E+01  0.19824522141E+03  0.12500000000E+03 0.  0.
</event>
<event>
 5    0  0.5612316E-005  0.3338977E+03  0.7546771E-02  0.1069425E+00
         21   -1    0    0  502  501  0.00000000000E+00  0.00000000000E+00  0.29933252897E+02  0.29933252897E+02  0.00000000000E+00 0.  1.
         21   -1    0    0  501  502 -0.00000000000E+00 -0.00000000000E+00 -0.37245416979E+04  0.37245416979E+04  0.00000000000E+00 0.  1.
         25    1    1    2    0    0  0.28187942823E+02  0.56377956852E+02 -0.30781070650E+03  0.33815006310E+03  0.12500000000E+03 0.  0.
         25    1    1    2    0    0 -0.19476487604E+03 -0.47324536608E+02 -0.15842399833E+04  0.16017535058E+04  0.12500000000E+03 0.  0.
         25    1    1    2    0    0  0.16657693322E+03 -0.90534202444E+01 -0.18025577552E+04  0.18145713819E+04  0.12500000000E+03 0.  0.
</event>
<event>
 5    0  0.5612316E-005  0.2841478E+03  0.7546771E-02  0.1093445E+00
         21   -1    0    0  502  501  0.00000000000E+00  0.00000000000E+00  0.90066421608E+02  0.90066421608E+02  0.00000000000E+00 0. -1.
         21   -1    0    0  501  502 -0.00000000000E+00 -0.00000000000E+00 -0.89644895890E+03  0.89644895890E+03  0.00000000000E+00 0. -1.
         25    1    1    2    0    0 -0.25221692223E+02 -0.12946518725E+03 -0.20974902714E+03  0.27751940987E+03  0.12500000000E+03 0.  0.
         25    1    1    2    0    0  0.10526895543E+03  0.19087287375E-01 -0.39338204617E+03  0.42597651061E+03  0.12500000000E+03 0.  0.
         25    1    1    2    0    0 -0.80047263206E+02  0.12944609997E+03 -0.20325146398E+03  0.28301946002E+03  0.12500000000E+03 0.  0.
</event>
<event>
 5    0  0.5612316E-005  0.3834881E+03  0.7546771E-02  0.1049652E+00
         21   -1    0    0  502  501  0.00000000000E+00  0.00000000000E+00  0.89352356783E+02  0.89352356783E+02  0.00000000000E+00 0.  1.
         21   -1    0    0  501  502 -0.00000000000E+00 -0.00000000000E+00 -0.16458782153E+04  0.16458782153E+04  0.00000000000E+00 0.  1.
         25    1    1    2    0    0 -0.28727366681E+03  0.10940479351E+03 -0.59087909317E+03  0.67768626313E+03  0.12500000000E+03 0.  0.
         25    1    1    2    0    0  0.21302384038E+03 -0.12129232231E+03 -0.51537118691E+03  0.58422893143E+03  0.12500000000E+03 0.  0.
         25    1    1    2    0    0  0.74249826435E+02  0.11887528806E+02 -0.45027557847E+03  0.47331537755E+03  0.12500000000E+03 0.  0.
</event>
<event>
 5    0  0.5612316E-005  0.2579512E+03  0.7546771E-02  0.1108380E+00
         21   -1    0    0  502  501  0.00000000000E+00  0.00000000000E+00  0.11840345091E+04  0.11840345091E+04  0.00000000000E+00 0.  1.
         21   -1    0    0  501  502 -0.00000000000E+00 -0.00000000000E+00 -0.56196700966E+02  0.56196700966E+02  0.00000000000E+00 0.  1.
         25    1    1    2    0    0  0.74822725395E+02  0.11019801471E+03  0.68127087941E+03  0.70533471049E+03  0.12500000000E+03 0.  0.
         25    1    1    2    0    0  0.21983424484E+01 -0.61809780790E+02  0.19827383305E+03  0.24241038465E+03  0.12500000000E+03 0.  0.
         25    1    1    2    0    0 -0.77021067843E+02 -0.48388233925E+02  0.24829309570E+03  0.29248611496E+03  0.12500000000E+03 0.  0.
</event>
<event>
 5    0  0.5612316E-005  0.4230312E+03  0.7546771E-02  0.1036084E+00
         21   -1    0    0  502  501  0.00000000000E+00  0.00000000000E+00  0.20928383235E+03  0.20928383235E+03  0.00000000000E+00 0.  1.
         21   -1    0    0  501  502 -0.00000000000E+00 -0.00000000000E+00 -0.85508460398E+03  0.85508460398E+03  0.00000000000E+00 0.  1.
         25    1    1    2    0    0  0.36569731895E+02 -0.19595963966E+03 -0.44750431173E+03  0.50559137125E+03  0.12500000000E+03 0.  0.
         25    1    1    2    0    0  0.84181461673E+02 -0.96099359615E+02 -0.10084274678E+03  0.20522150225E+03  0.12500000000E+03 0.  0.
         25    1    1    2    0    0 -0.12075119357E+03  0.29205899928E+03 -0.97453713128E+02  0.35355556283E+03  0.12500000000E+03 0.  0.
</event>
<event>
 5    0  0.5612316E-005  0.2963204E+03  0.7546771E-02  0.1087095E+00
         21   -1    0    0  502  501  0.00000000000E+00  0.00000000000E+00  0.49003934839E+03  0.49003934839E+03  0.00000000000E+00 0.  1.
         21   -1    0    0  501  502 -0.00000000000E+00 -0.00000000000E+00 -0.17918113761E+03  0.17918113761E+03  0.00000000000E+00 0.  1.
         25    1    1    2    0    0 -0.15743681154E+03  0.29760114194E+02  0.39471120046E+01  0.20325499678E+03  0.12500000000E+03 0.  0.
         25    1    1    2    0    0  0.54896564187E+02  0.40921275621E+02  0.43684844253E+02  0.14906894102E+03  0.12500000000E+03 0.  0.
         25    1    1    2    0    0  0.10254024735E+03 -0.70681389815E+02  0.26322625453E+03  0.31689654821E+03  0.12500000000E+03 0.  0.
</event>
<event>
 5    0  0.5612316E-005  0.2607448E+03  0.7546771E-02  0.1106697E+00
         21   -1    0    0  502  501  0.00000000000E+00  0.00000000000E+00  0.10384407927E+03  0.10384407927E+03  0.00000000000E+00 0. -1.
         21   -1    0    0  501  502 -0.00000000000E+00 -0.00000000000E+00 -0.65471090327E+03  0.65471090327E+03  0.00000000000E+00 0. -1.
         25    1    1    2    0    0 -0.33322300345E+02  0.14792476766E+03 -0.23742842784E+03  0.30820345704E+03  0.12500000000E+03 0.  0.
         25    1    1    2    0    0  0.10270388208E+02 -0.11669477133E+03 -0.25454380209E+03  0.30682356121E+03  0.12500000000E+03 0.  0.
         25    1    1    2    0    0  0.23051912137E+02 -0.31229996325E+02 -0.58894594077E+02  0.14352796430E+03  0.12500000000E+03 0.  0.
</event>
<event>
 5    0  0.6319384E-005  0.3498185E+03  0.7546771E-02  0.1062690E+00
         21   -1    0    0  502  501  0.00000000000E+00  0.00000000000E+00  0.28565919036E+03  0.28565919036E+03  0.00000000000E+00 0. -1.
         21   -1    0    0  501  502 -0.00000000000E+00 -0.00000000000E+00 -0.42838812700E+03  0.42838812700E+03  0.00000000000E+00 0. -1.
         25    1    1    2    0    0  0.10822202509E+03  0.92127752029E+02 -0.18073647035E+02  0.19013465262E+03  0.12500000000E+03 0.  0.
         25    1    1    2    0    0  0.10980071148E+03 -0.75605138162E+02  0.79899328857E+02  0.19945233994E+03  0.12500000000E+03 0.  0.
         25    1    1    2    0    0 -0.21802273657E+03 -0.16522613868E+02 -0.20455461846E+03  0.32446032479E+03  0.12500000000E+03 0.  0.
</event>
<event>
 5    0  0.5612316E-005  0.4550072E+03  0.7546771E-02  0.1026239E+00
         21   -1    0    0  502  501  0.00000000000E+00  0.00000000000E+00  0.52200052758E+03  0.52200052758E+03  0.00000000000E+00 0. -1.
         21   -1    0    0  501  502 -0.00000000000E+00 -0.00000000000E+00 -0.39661185361E+03  0.39661185361E+03  0.00000000000E+00 0. -1.
         25    1    1    2    0    0 -0.20768230650E+03 -0.15083127283E+03  0.18721984221E+03  0.34140633066E+03  0.12500000000E+03 0.  0.
         25    1    1    2    0    0  0.12909440363E+03  0.29820374836E+03 -0.10605690365E+03  0.36395591409E+03  0.12500000000E+03 0.  0.
         25    1    1    2    0    0  0.78587902870E+02 -0.14737247553E+03  0.44225735400E+02  0.21325013644E+03  0.12500000000E+03 0.  0.
</event>
<event>
 5    0  0.5612316E-005  0.2525027E+03  0.7546771E-02  0.1111733E+00
         21   -1    0    0  502  501  0.00000000000E+00  0.00000000000E+00  0.10391982526E+03  0.10391982526E+03  0.00000000000E+00 0. -1.
         21   -1    0    0  501  502 -0.00000000000E+00 -0.00000000000E+00 -0.61352688881E+03  0.61352688881E+03  0.00000000000E+00 0. -1.
         25    1    1    2    0    0  0.78911813868E+02  0.54498275328E+02 -0.91020971366E+02  0.18195316323E+03  0.12500000000E+03 0.  0.
         25    1    1    2    0    0 -0.33572298135E+02  0.36507936466E+02 -0.70312469085E+02  0.15175233750E+03  0.12500000000E+03 0.  0.
         25    1    1    2    0    0 -0.45339515733E+02 -0.91006211794E+02 -0.34827362310E+03  0.38374121334E+03  0.12500000000E+03 0.  0.
</event>
<event>
 5    0  0.5612316E-005  0.3135022E+03  0.7546771E-02  0.1078679E+00
         21   -1    0    0  502  501  0.00000000000E+00  0.00000000000E+00  0.11216122637E+03  0.11216122637E+03  0.00000000000E+00 0. -1.
         21   -1    0    0  501  502 -0.00000000000E+00 -0.00000000000E+00 -0.87627112922E+03  0.87627112922E+03  0.00000000000E+00 0. -1.
         25    1    1    2    0    0  0.80333125542E+01 -0.65360174825E+02 -0.51091507772E+03  0.53009027836E+03  0.12500000000E+03 0.  0.
         25    1    1    2    0    0 -0.75706734266E+02 -0.89873128468E+02 -0.11155592071E+03  0.20464215665E+03  0.12500000000E+03 0.  0.
         25    1    1    2    0    0  0.67673421712E+02  0.15523330329E+03 -0.14163890442E+03  0.25369992058E+03  0.12500000000E+03 0.  0.
</event>
<event>
 5    0  0.5612316E-005  0.2652269E+03  0.7546771E-02  0.1104043E+00
         21   -1    0    0  502  501  0.00000000000E+00  0.00000000000E+00  0.34786366693E+03  0.34786366693E+03  0.00000000000E+00 0.  1.
         21   -1    0    0  501  502 -0.00000000000E+00 -0.00000000000E+00 -0.20222088285E+03  0.20222088285E+03  0.00000000000E+00 0.  1.
         25    1    1    2    0    0  0.37087376971E+02 -0.10704427479E+03  0.10932444488E+03  0.20102433819E+03  0.12500000000E+03 0.  0.
         25    1    1    2    0    0  0.86928179178E+01 -0.92958660314E+01  0.10058520267E+03  0.16094831843E+03  0.12500000000E+03 0.  0.
         25    1    1    2    0    0 -0.45780194889E+02  0.11634014082E+03 -0.64266863469E+02  0.18811189317E+03  0.12500000000E+03 0.  0.
</event>
<event>
 5    0  0.5953175E-005  0.3620479E+03  0.7546771E-02  0.1057776E+00
         21   -1    0    0  502  501  0.00000000000E+00  0.00000000000E+00  0.43735958742E+03  0.43735958742E+03  0.00000000000E+00 0.  1.
         21   -1    0    0  501  502 -0.00000000000E+00 -0.00000000000E+00 -0.29970454926E+03  0.29970454926E+03  0.00000000000E+00 0.  1.
         25    1    1    2    0    0  0.12508423047E+03  0.55334892717E+02  0.24701777254E+03  0.30878924044E+03  0.12500000000E+03 0.  0.
         25    1    1    2    0    0 -0.51147426132E+02  0.10335992329E+03 -0.12726064504E+03  0.21241375831E+03  0.12500000000E+03 0.  0.
         25    1    1    2    0    0 -0.73936804337E+02 -0.15869481601E+03  0.17897910663E+02  0.21586113793E+03  0.12500000000E+03 0.  0.
</event>
<event>
 5    0  0.5612316E-005  0.2241543E+03  0.7546771E-02  0.1130823E+00
         21   -1    0    0  502  501  0.00000000000E+00  0.00000000000E+00  0.56739471501E+03  0.56739471501E+03  0.00000000000E+00 0.  1.
         21   -1    0    0  501  502 -0.00000000000E+00 -0.00000000000E+00 -0.88554102365E+02  0.88554102365E+02  0.00000000000E+00 0.  1.
         25    1    1    2    0    0  0.19984556364E+02  0.99858457727E+02  0.24620639630E+03  0.29430202794E+03  0.12500000000E+03 0.  0.
         25    1    1    2    0    0  0.63987548813E+01 -0.71701757948E+02  0.14262993740E+03  0.20285557720E+03  0.12500000000E+03 0.  0.
         25    1    1    2    0    0 -0.26383311246E+02 -0.28156699779E+02  0.90004278947E+02  0.15879121224E+03  0.12500000000E+03 0.  0.
</event>
<event>
 5    0  0.5612316E-005  0.4121006E+03  0.7546771E-02  0.1039668E+00
         21   -1    0    0  502  501  0.00000000000E+00  0.00000000000E+00  0.14192456029E+04  0.14192456029E+04  0.00000000000E+00 0.  1.
         21   -1    0    0  501  502 -0.00000000000E+00 -0.00000000000E+00 -0.11966000518E+03  0.11966000518E+03  0.00000000000E+00 0.  1.
         25    1    1    2    0    0 -0.23004492501E+02  0.15740196775E+03  0.55009726979E+01  0.20238539183E+03  0.12500000000E+03 0.  0.
         25    1    1    2    0    0  0.55344382473E+01 -0.16151519211E+02  0.31585080916E+03  0.34011503234E+03  0.12500000000E+03 0.  0.
         25    1    1    2    0    0  0.17470054254E+02 -0.14125044853E+03  0.97823381589E+03  0.99640518393E+03  0.12500000000E+03 0.  0.
</event>
<event>
 5    0  0.5692696E-005  0.3124671E+03  0.7546771E-02  0.1079169E+00
         21   -1    0    0  502  501  0.00000000000E+00  0.00000000000E+00  0.43503203831E+03  0.43503203831E+03  0.00000000000E+00 0. -1.
         21   -1    0    0  501  502 -0.00000000000E+00 -0.00000000000E+00 -0.22443329466E+03  0.22443329466E+03  0.00000000000E+00 0. -1.
         25    1    1    2    0    0  0.11613967623E+03  0.10524355894E+03  0.21771178268E+03  0.29595278578E+03  0.12500000000E+03 0.  0.
         25    1    1    2    0    0 -0.15729075845E+02 -0.14873646051E+03  0.16911584144E+02  0.19565515631E+03  0.12500000000E+03 0.  0.
         25    1    1    2    0    0 -0.10041060038E+03  0.43492901570E+02 -0.24024623181E+02  0.16785739089E+03  0.12500000000E+03 0.  0.
</event>
<event>
 5    0  0.5612316E-005  0.4192469E+03  0.7546771E-02  0.1037312E+00
         21   -1    0    0  502  501  0.00000000000E+00  0.00000000000E+00  0.38899207237E+03  0.38899207237E+03  0.00000000000E+00 0.  1.
         21   -1    0    0  501  502 -0.00000000000E+00 -0.00000000000E+00 -0.45185489888E+03  0.45185489888E+03  0.00000000000E+00 0.  1.
         25    1    1    2    0    0  0.14654300342E+03 -0.18730578795E+03  0.48913506452E+02  0.27308577620E+03  0.12500000000E+03 0.  0.
         25    1    1    2    0    0 -0.79902786831E+02  0.16764248153E+03  0.14999873211E+03  0.26946813651E+03  0.12500000000E+03 0.  0.
         25    1    1    2    0    0 -0.66640216587E+02  0.19663306419E+02 -0.26177506507E+03  0.29829305855E+03  0.12500000000E+03 0.  0.
</event>
<event>
 5    0  0.5612316E-005  0.3337120E+03  0.7546771E-02  0.1069506E+00
         21   -1    0    0  502  501  0.00000000000E+00  0.00000000000E+00  0.41506943857E+02  0.41506943857E+02  0.00000000000E+00 0. -1.
         21   -1    0    0  501  502 -0.00000000000E+00 -0.00000000000E+00 -0.26830134827E+04  0.26830134827E+04  0.00000000000E+00 0. -1.
         25    1    1    2    0    0  0.37380869779E+02  0.62333747888E+02 -0.21829607121E+04  0.21877443397E+04  0.12500000000E+03 0.  0.
         25    1    1    2    0    0  0.30972193094E+02 -0.23949065475E+02 -0.23180891169E+03  0.26625778114E+03  0.12500000000E+03 0.  0.
         25    1    1    2    0    0 -0.68353062873E+02 -0.38384682413E+02 -0.22673691506E+03  0.27051830566E+03  0.12500000000E+03 0.  0.
</event>
<event>
 5    0  0.5612316E-005  0.4947917E+03  0.7546771E-02  0.1015147E+00
         21   -1    0    0  502  501  0.00000000000E+00  0.00000000000E+00  0.79859772604E+03  0.79859772604E+03  0.00000000000E+00 0. -1.
         21   -1    0    0  501  502 -0.00000000000E+00 -0.00000000000E+00 -0.30656083479E+03  0.30656083479E+03  0.00000000000E+00 0. -1.
         25    1    1    2    0    0 -0.59837629419E+02 -0.12530199312E+03  0.14572759128E+03  0.23694442858E+03  0.12500000000E+03 0.  0.
         25    1    1    2    0    0  0.10091897341E+03 -0.28459514200E+02  0.55442053760E+03  0.57792881539E+03  0.12500000000E+03 0.  0.
         25    1    1    2    0    0 -0.41081343995E+02  0.15376150732E+03 -0.20811123763E+03  0.29028531687E+03  0.12500000000E+03 0.  0.
</event>
<event>
 5    0  0.5612316E-005  0.3098181E+03  0.7546771E-02  0.1080433E+00
         21   -1    0    0  502  501  0.00000000000E+00  0.00000000000E+00  0.10401115876E+04  0.10401115876E+04  0.00000000000E+00 0. -1.
         21   -1    0    0  501  502 -0.00000000000E+00 -0.00000000000E+00 -0.92285530630E+02  0.92285530630E+02  0.00000000000E+00 0. -1.
         25    1    1    2    0    0  0.25112721864E+02  0.57263986995E+02  0.71082939041E+03  0.72443994594E+03  0.12500000000E+03 0.  0.
         25    1    1    2    0    0 -0.10310411898E+03  0.13574875339E+02  0.79674968782E+02  0.18107412085E+03  0.12500000000E+03 0.  0.
         25    1    1    2    0    0  0.77991397113E+02 -0.70838862334E+02  0.15732169779E+03  0.22688305145E+03  0.12500000000E+03 0.  0.
</event>
<event>
 5    0  0.5612316E-005  0.2785528E+03  0.7546771E-02  0.1096482E+00
         21   -1    0    0  502  501  0.00000000000E+00  0.00000000000E+00  0.95944115350E+02  0.95944115350E+02  0.00000000000E+00 0.  1.
         21   -1    0    0  501  502 -0.00000000000E+00 -0.00000000000E+00 -0.80871753089E+03  0.80871753089E+03  0.00000000000E+00 0.  1.
         25    1    1    2    0    0  0.18202538331E+03  0.12452311991E+02 -0.31288676769E+03  0.38315979648E+03  0.12500000000E+03 0.  0.
         25    1    1    2    0    0 -0.10371781281E+03 -0.51555119150E+02 -0.14186913665E+03  0.22173670634E+03  0.12500000000E+03 0.  0.
         25    1    1    2    0    0 -0.78307570494E+02  0.39102807160E+02 -0.25801751121E+03  0.29976514343E+03  0.12500000000E+03 0.  0.
</event>
<event>
 5    0  0.5612316E-005  0.2358262E+03  0.7546771E-02  0.1122605E+00
         21   -1    0    0  502  501  0.00000000000E+00  0.00000000000E+00  0.94324932659E+02  0.94324932659E+02  0.00000000000E+00 0. -1.
         21   -1    0    0  501  502 -0.00000000000E+00 -0.00000000000E+00 -0.58960041335E+03  0.58960041335E+03  0.00000000000E+00 0. -1.
         25    1    1    2    0    0  0.68784758106E+01 -0.78658354495E+02 -0.24527585984E+03  0.28639081267E+03  0.12500000000E+03 0.  0.
         25    1    1    2    0    0  0.27619158461E+02 -0.36513468931E+02 -0.13399411968E+03  0.18887952625E+03  0.12500000000E+03 0.  0.
         25    1    1    2    0    0 -0.34497634272E+02  0.11517182343E+03 -0.11600550117E+03  0.20865500709E+03  0.12500000000E+03 0.  0.
</event>
<event>
 5    0  0.5612316E-005  0.2373839E+03  0.7546771E-02  0.1121548E+00
         21   -1    0    0  502  501  0.00000000000E+00  0.00000000000E+00  0.17517976483E+03  0.17517976483E+03  0.00000000000E+00 0. -1.
         21   -1    0    0  501  502 -0.00000000000E+00 -0.00000000000E+00 -0.32167602437E+03  0.32167602437E+03  0.00000000000E+00 0. -1.
         25    1    1    2    0    0 -0.43096230189E+01  0.65598250199E+02 -0.23638986628E+02  0.14319743353E+03  0.12500000000E+03 0.  0.
         25    1    1    2    0    0 -0.17509751017E+02  0.53816271468E+02 -0.11534158053E+03  0.17925251087E+03  0.12500000000E+03 0.  0.
         25    1    1    2    0    0  0.21819374036E+02 -0.11941452167E+03 -0.75156923878E+01  0.17440584480E+03  0.12500000000E+03 0.  0.
</event>
<event>
 5    0  0.5612316E-005  0.3499860E+03  0.7546771E-02  0.1062621E+00
         21   -1    0    0  502  501  0.00000000000E+00  0.00000000000E+00  0.39269534723E+03  0.39269534723E+03  0.00000000000E+00 0. -1.
         21   -1    0    0  501  502 -0.00000000000E+00 -0.00000000000E+00 -0.31192171988E+03  0.31192171988E+03  0.00000000000E+00 0. -1.
         25    1    1    2    0    0  0.88029388233E+02 -0.41418252588E+02  0.17301082153E+03  0.23456851708E+03  0.12500000000E+03 0.  0.
         25    1    1    2    0    0  0.99948902580E+02 -0.51016496136E+02  0.64677270590E+02  0.18000170926E+03  0.12500000000E+03 0.  0.
         25    1    1    2    0    0 -0.18797829081E+03  0.92434748723E+02 -0.15691446477E+03  0.29004684077E+03  0.12500000000E+03 0.  0.
</event>
<event>
 5    0  0.5612316E-005  0.3265847E+03  0.7546771E-02  0.1072658E+00
         21   -1    0    0  502  501  0.00000000000E+00  0.00000000000E+00  0.29514256509E+03  0.29514256509E+03  0.00000000000E+00 0.  1.
         21   -1    0    0  501  502 -0.00000000000E+00 -0.00000000000E+00 -0.36137650359E+03  0.36137650359E+03  0.00000000000E+00 0.  1.
         25    1    1    2    0    0 -0.11559925119E+02  0.21858392329E+03 -0.40861676423E+02  0.25535708330E+03  0.12500000000E+03 0.  0.
         25    1    1    2    0    0  0.90380183821E+02 -0.19818136697E+03 -0.13003931110E+02  0.25147273026E+03  0.12500000000E+03 0.  0.
         25    1    1    2    0    0 -0.78820258702E+02 -0.20402556323E+02 -0.12368330963E+02  0.14968925512E+03  0.12500000000E+03 0.  0.
</event>
<event>
 5    0  0.5622144E-005  0.6553078E+03  0.7546771E-02  0.9796870E-01
         21   -1    0    0  502  501  0.00000000000E+00  0.00000000000E+00  0.15422511320E+04  0.15422511320E+04  0.00000000000E+00 0.  1.
         21   -1    0    0  501  502 -0.00000000000E+00 -0.00000000000E+00 -0.27844251271E+03  0.27844251271E+03  0.00000000000E+00 0.  1.
         25    1    1    2    0    0 -0.10918797167E+03 -0.18268493653E+03 -0.98290171615E+01  0.24701702122E+03  0.12500000000E+03 0.  0.
         25    1    1    2    0    0 -0.33099554115E+01  0.36720890791E+03  0.13926664152E+03  0.41215717305E+03  0.12500000000E+03 0.  0.
         25    1    1    2    0    0  0.11249792708E+03 -0.18452397137E+03  0.11343709949E+04  0.11615194505E+04  0.12500000000E+03 0.  0.
</event>
<event>
 5    0  0.5612316E-005  0.3094423E+03  0.7546771E-02  0.1080614E+00
         21   -1    0    0  502  501  0.00000000000E+00  0.00000000000E+00  0.60919777581E+02  0.60919777581E+02  0.00000000000E+00 0.  1.
         21   -1    0    0  501  502 -0.00000000000E+00 -0.00000000000E+00 -0.15718131620E+04  0.15718131620E+04  0.00000000000E+00 0.  1.
         25    1    1    2    0    0 -0.14964582112E+03  0.98216364340E+02 -0.25207160449E+03  0.33347476635E+03  0.12500000000E+03 0.  0.
         25    1    1    2    0    0  0.32919197208E+02 -0.62578329563E+02 -0.66168076693E+03  0.67708652195E+03  0.12500000000E+03 0.  0.
         25    1    1    2    0    0  0.11672662392E+03 -0.35638034777E+02 -0.59714101299E+03  0.62217165127E+03  0.12500000000E+03 0.  0.
</event>
<event>
 5    0  0.5916066E-005  0.2866422E+03  0.7546771E-02  0.1092115E+00
         21   -1    0    0  502  501  0.00000000000E+00  0.00000000000E+00  0.64430803753E+03  0.64430803753E+03  0.00000000000E+00 0.  1.
         21   -1    0    0  501  502 -0.00000000000E+00 -0.00000000000E+00 -0.12752250084E+03  0.12752250084E+03  0.00000000000E+00 0.  1.
         25    1    1    2    0    0 -0.10322742235E+03  0.31626317702E+02  0.72520973433E+02  0.18038962355E+03  0.12500000000E+03 0.  0.
         25    1    1    2    0    0  0.15577538286E+03 -0.10042010916E+03  0.18191908154E+03  0.28821818204E+03  0.12500000000E+03 0.  0.
         25    1    1    2    0    0 -0.52547960509E+02  0.68793791457E+02  0.26234548172E+03  0.30322273278E+03  0.12500000000E+03 0.  0.
</event>
<event>
 5    0  0.5612316E-005  0.3510605E+03  0.7546771E-02  0.1062181E+00
         21   -1    0    0  502  501  0.00000000000E+00  0.00000000000E+00  0.24591543817E+03  0.24591543817E+03  0.00000000000E+00 0. -1.
         21   -1    0    0  501  502 -0.00000000000E+00 -0.00000000000E+00 -0.50116190352E+03  0.50116190352E+03  0.00000000000E+00 0. -1.
         25    1    1    2    0    0  0.10101294358E+02 -0.89616917011E+01  0.11667990757E+03  0.17152710834E+03  0.12500000000E+03 0.  0.
         25    1    1    2    0    0  0.12194954564E+03  0.84561657235E+02 -0.53699947285E+02  0.20132324728E+03  0.12500000000E+03 0.  0.
         25    1    1    2    0    0 -0.13205084000E+03 -0.75599965533E+02 -0.31822642564E+03  0.37422698607E+03  0.12500000000E+03 0.  0.
</event>
<event>
 5    0  0.5612316E-005  0.2357589E+03  0.7546771E-02  0.1122651E+00
         21   -1    0    0  502  501  0.00000000000E+00  0.00000000000E+00  0.34490672500E+04  0.34490672500E+04  0.00000000000E+00 0. -1.
         21   -1    0    0  501  502 -0.00000000000E+00 -0.00000000000E+00 -0.16115154609E+02  0.16115154609E+02  0.00000000000E+00 0. -1.
         25    1    1    2    0    0  0.65573202234E+02  0.11052696452E+02  0.47482810331E+03  0.49548837993E+03  0.12500000000E+03 0.  0.
         25    1    1    2    0    0 -0.32905384236E+02  0.14880190373E+02  0.14708399103E+04  0.14765836333E+04  0.12500000000E+03 0.  0.
         25    1    1    2    0    0 -0.32667817998E+02 -0.25932886825E+02  0.14872840817E+04  0.14931103913E+04  0.12500000000E+03 0.  0.
</event>
<event>
 5    0  0.5612316E-005  0.3604710E+03  0.7546771E-02  0.1058398E+00
         21   -1    0    0  502  501  0.00000000000E+00  0.00000000000E+00  0.29494171640E+03  0.29494171640E+03  0.00000000000E+00 0.  1.
         21   -1    0    0  501  502 -0.00000000000E+00 -0.00000000000E+00 -0.44055947421E+03  0.44055947421E+03  0.00000000000E+00 0.  1.
         25    1    1    2    0    0 -0.22275977864E+02 -0.64770394237E+02  0.13127737839E+03  0.19377867075E+03  0.12500000000E+03 0.  0.
         25    1    1    2    0    0 -0.16606268802E+03 -0.44304433497E+02 -0.10142762256E+03  0.23548303930E+03  0.12500000000E+03 0.  0.
         25    1    1    2    0    0  0.18833866588E+03  0.10907482773E+03 -0.17546751365E+03  0.30623948057E+03  0.12500000000E+03 0.  0.
</event>
<event>
 5    0  0.5612316E-005  0.3404474E+03  0.7546771E-02  0.1066606E+00
         21   -1    0    0  502  501  0.00000000000E+00  0.00000000000E+00  0.55627543660E+02  0.55627543660E+02  0.00000000000E+00 0.  1.
         21   -1    0    0  501  502 -0.00000000000E+00 -0.00000000000E+00 -0.20835803881E+04  0.20835803881E+04  0.00000000000E+00 0.  1.
         25    1    1    2    0    0  0.34950180793E+02  0.87000408698E+02 -0.42219046666E+03  0.45017816072E+03  0.12500000000E+03 0.  0.
         25    1    1    2    0    0  0.18848605283E+03 -0.29983294822E+02 -0.45801276923E+03  0.51169003005E+03  0.12500000000E+03 0.  0.
         25    1    1    2    0    0 -0.22343623362E+03 -0.57017113876E+02 -0.11477496085E+04  0.11773397410E+04  0.12500000000E+03 0.  0.
</event>
<event>
 5    0  0.5612316E-005  0.2787864E+03  0.7546771E-02  0.1096354E+00
         21   -1    0    0  502  501  0.00000000000E+00  0.00000000000E+00  0.11602105531E+04  0.11602105531E+04  0.00000000000E+00 0.  1.
         21   -1    0    0  501  502 -0.00000000000E+00 -0.00000000000E+00 -0.66989445257E+02  0.66989445257E+02  0.00000000000E+00 0.  1.
         25    1    1    2    0    0 -0.18268320053E+03  0.13387875739E+02  0.56745817548E+03  0.60925049684E+03  0.12500000000E+03 0.  0.
         25    1    1    2    0    0  0.10228377048E+03  0.18822698957E+02  0.34729018156E+03  0.38347325058E+03  0.12500000000E+03 0.  0.
         25    1    1    2    0    0  0.80399430053E+02 -0.32210574696E+02  0.17847275077E+03  0.23447625092E+03  0.12500000000E+03 0.  0.
</event>
<event>
 5    0  0.5612316E-005  0.2866612E+03  0.7546771E-02  0.1092105E+00
         21   -1    0    0  502  501  0.00000000000E+00  0.00000000000E+00  0.78820964117E+03  0.78820964117E+03  0.00000000000E+00 0.  1.
         21   -1    0    0  501  502 -0.00000000000E+00 -0.00000000000E+00 -0.10425483129E+03  0.10425483129E+03  0.00000000000E+00 0.  1.
         25    1    1    2    0    0  0.51173317923E+02  0.16643444299E+02  0.15218771242E+03  0.20416124147E+03  0.12500000000E+03 0.  0.
         25    1    1    2    0    0 -0.13645468678E+03  0.11917177888E+03  0.36083788595E+03  0.42267100014E+03  0.12500000000E+03 0.  0.
         25    1    1    2    0    0  0.85281368856E+02 -0.13581522318E+03  0.17092921150E+03  0.26563223085E+03  0.12500000000E+03 0.  0.
</event>
<event>
 5    0  0.5612316E-005  0.2932079E+03  0.7546771E-02  0.1088686E+00
         21   -1    0    0  502  501  0.00000000000E+00  0.00000000000E+00  0.11777276080E+03  0.11777276080E+03  0.00000000000E+00 0.  1.
         21   -1    0    0  501  502 -0.00000000000E+00 -0.00000000000E+00 -0.72997242471E+03  0.72997242471E+03  0.00000000000E+00 0.  1.
         25    1    1    2    0    0 -0.16727159113E+03  0.90413956627E+02 -0.28968073209E+03  0.36836720171E+03  0.12500000000E+03 0.  0.
         25    1    1    2    0    0  0.65747806745E+02 -0.57159011098E+02 -0.48659691845E+02  0.15994590414E+03  0.12500000000E+03 0.  0.
         25    1    1    2    0    0  0.10152378439E+03 -0.33254945529E+02 -0.27385923997E+03  0.31943207966E+03  0.12500000000E+03 0.  0.
</event>
<event>
 5    0  0.5612316E-005  0.4202289E+03  0.7546771E-02  0.1036992E+00
         21   -1    0    0  502  501  0.00000000000E+00  0.00000000000E+00  0.74767742249E+03  0.74767742249E+03  0.00000000000E+00 0. -1.
         21   -1    0    0  501  502 -0.00000000000E+00 -0.00000000000E+00 -0.23618780344E+03  0.23618780344E+03  0.00000000000E+00 0. -1.
         25    1    1    2    0    0  0.39985336241E+02 -0.15646394620E+03  0.14690110657E+03  0.25156456167E+03  0.12500000000E+03 0.  0.
         25    1    1    2    0    0 -0.20899035719E+03  0.20680047072E+03  0.40141703732E+03  0.51303415280E+03  0.12500000000E+03 0.  0.
         25    1    1    2    0    0  0.16900502095E+03 -0.50336524517E+02 -0.36828524840E+02  0.21926651146E+03  0.12500000000E+03 0.  0.
</event>
<event>
 5    0  0.5612316E-005  0.2803806E+03  0.7546771E-02  0.1095481E+00
         21   -1    0    0  502  501  0.00000000000E+00  0.00000000000E+00  0.51395509927E+03  0.51395509927E+03  0.00000000000E+00 0.  1.
         21   -1    0    0  501  502 -0.00000000000E+00 -0.00000000000E+00 -0.15295744898E+03  0.15295744898E+03  0.00000000000E+00 0.  1.
         25    1    1    2    0    0 -0.25376895380E+02 -0.16275865155E+03  0.12182758057E+03  0.24000276011E+03  0.12500000000E+03 0.  0.
         25    1    1    2    0    0  0.62496477377E+02  0.67275030620E+02  0.21253660815E+03  0.26311318712E+03  0.12500000000E+03 0.  0.
         25    1    1    2    0    0 -0.37119581997E+02  0.95483620927E+02  0.26633461576E+02  0.16379660103E+03  0.12500000000E+03 0.  0.
</event>
<event>
 5    0  0.5612316E-005  0.2691547E+03  0.7546771E-02  0.1101764E+00
         21   -1    0    0  502  501  0.00000000000E+00  0.00000000000E+00  0.44824018826E+03  0.44824018826E+03  0.00000000000E+00 0.  1.
         21   -1    0    0  501  502 -0.00000000000E+00 -0.00000000000E+00 -0.16161922677E+03  0.16161922677E+03  0.00000000000E+00 0.  1.
         25    1    1    2    0    0 -0.38880525405E+02 -0.26551680766E+02  0.21322329853E+03  0.25160656200E+03  0.12500000000E+03 0.  0.
         25    1    1    2    0    0  0.17971770121E+02  0.12971303036E+03  0.72014439150E+02  0.19483206669E+03  0.12500000000E+03 0.  0.
         25    1    1    2    0    0  0.20908755284E+02 -0.10316134959E+03  0.13832238176E+01  0.16342078633E+03  0.12500000000E+03 0.  0.
</event>
<event>
 5    0  0.5612316E-005  0.5701142E+03  0.7546771E-02  0.9969426E-01
         21   -1    0    0  502  501  0.00000000000E+00  0.00000000000E+00  0.66814658400E+03  0.66814658400E+03  0.00000000000E+00 0.  1.
         21   -1    0    0  501  502 -0.00000000000E+00 -0.00000000000E+00 -0.48646547679E+03  0.48646547679E+03  0.00000000000E+00 0.  1.
         25    1    1    2    0    0  0.36309995495E+02 -0.34311236302E+03  0.49755963446E+02  0.37033115631E+03  0.12500000000E+03 0.  0.
         25    1    1    2    0    0 -0.93874580235E+02  0.46477050034E+03 -0.87521798732E+02  0.49810553105E+03  0.12500000000E+03 0.  0.
         25    1    1    2    0    0  0.57564584740E+02 -0.12165813732E+03  0.21944694249E+03  0.28617537344E+03  0.12500000000E+03 0.  0.
</event>
<event>
 5    0  0.5612316E-005  0.2749304E+03  0.7546771E-02  0.1098491E+00
         21   -1    0    0  502  501  0.00000000000E+00  0.00000000000E+00  0.12671847144E+03  0.12671847144E+03  0.00000000000E+00 0.  1.
         21   -1    0    0  501  502 -0.00000000000E+00 -0.00000000000E+00 -0.59649313116E+03  0.59649313116E+03  0.00000000000E+00 0.  1.
         25    1    1    2    0    0 -0.13499697065E+02  0.59574871004E+01 -0.21105265215E+03  0.24573553967E+03  0.12500000000E+03 0.  0.
         25    1    1    2    0    0 -0.13995414881E+02 -0.15128384312E+03 -0.75037927395E+02  0.21056676702E+03  0.12500000000E+03 0.  0.
         25    1    1    2    0    0  0.27495111947E+02  0.14532635602E+03 -0.18368408017E+03  0.26690929591E+03  0.12500000000E+03 0.  0.
</event>
<event>
 5    0  0.5612316E-005  0.4098415E+03  0.7546771E-02  0.1040424E+00
         21   -1    0    0  502  501  0.00000000000E+00  0.00000000000E+00  0.55199272799E+03  0.55199272799E+03  0.00000000000E+00 0.  1.
         21   -1    0    0  501  502 -0.00000000000E+00 -0.00000000000E+00 -0.30429762439E+03  0.30429762439E+03  0.00000000000E+00 0.  1.
         25    1    1    2    0    0  0.26262197963E+03  0.40757211236E+02  0.11732841268E+03  0.31626319874E+03  0.12500000000E+03 0.  0.
         25    1    1    2    0    0 -0.31642259841E+03  0.70707106654E+02  0.99287985124E+02  0.36139432717E+03  0.12500000000E+03 0.  0.
         25    1    1    2    0    0  0.53800618783E+02 -0.11146431789E+03  0.31078705793E+02  0.17863282648E+03  0.12500000000E+03 0.  0.
</event>
<event>
 5    0  0.5612316E-005  0.3503037E+03  0.7546771E-02  0.1062490E+00
         21   -1    0    0  502  501  0.00000000000E+00  0.00000000000E+00  0.29179158143E+03  0.29179158143E+03  0.00000000000E+00 0. -1.
         21   -1    0    0  501  502 -0.00000000000E+00 -0.00000000000E+00 -0.42054905095E+03  0.42054905095E+03  0.00000000000E+00 0. -1.
         25    1    1    2    0    0  0.15787775229E+03 -0.14296681622E+03 -0.13477341354E+03  0.28134279483E+03  0.12500000000E+03 0.  0.
         25    1    1    2    0    0 -0.72222618357E+02  0.21242978823E+03  0.42563402543E+02  0.26034431964E+03  0.12500000000E+03 0.  0.
         25    1    1    2    0    0 -0.85655133928E+02 -0.69462972014E+02 -0.36547458527E+02  0.17065351791E+03  0.12500000000E+03 0.  0.
</event>
<event>
 5    0  0.5612316E-005  0.3471480E+03  0.7546771E-02  0.1063792E+00
         21   -1    0    0  502  501  0.00000000000E+00  0.00000000000E+00  0.68655153322E+03  0.68655153322E+03  0.00000000000E+00 0. -1.
         21   -1    0    0  501  502 -0.00000000000E+00 -0.00000000000E+00 -0.17553198766E+03  0.17553198766E+03  0.00000000000E+00 0. -1.
         25    1    1    2    0    0 -0.95154288953E+02 -0.11054211351E+03 -0.21343314621E+02  0.19327295373E+03  0.12500000000E+03 0.  0.
         25    1    1    2    0    0 -0.95976682716E+02  0.71523108799E+02  0.23460207779E+03  0.29153081076E+03  0.12500000000E+03 0.  0.
         25    1    1    2    0    0  0.19113097167E+03  0.39019004708E+02  0.29776078238E+03  0.37727975639E+03  0.12500000000E+03 0.  0.
</event>
<event>
 5    0  0.5612316E-005  0.2389376E+03  0.7546771E-02  0.1120503E+00
         21   -1    0    0  502  501  0.00000000000E+00  0.00000000000E+00  0.51775559843E+02  0.51775559843E+02  0.00000000000E+00 0.  1.
         21   -1    0    0  501  502 -0.00000000000E+00 -0.00000000000E+00 -0.11026664407E+04  0.11026664407E+04  0.00000000000E+00 0.  1.
         25    1    1    2    0    0  0.63459090006E+02  0.53540149535E+02 -0.15008488744E+03  0.21223589977E+03  0.12500000000E+03 0.  0.
         25    1    1    2    0    0 -0.45506670075E+02 -0.58498944429E+02 -0.56551205116E+03  0.58388514583E+03  0.12500000000E+03 0.  0.
         25    1    1    2    0    0 -0.17952419931E+02  0.49587948933E+01 -0.33529394228E+03  0.35832095495E+03  0.12500000000E+03 0.  0.
</event>
<event>
 5    0  0.6017166E-005  0.3249809E+03  0.7546771E-02  0.1073380E+00
         21   -1    0    0  502  501  0.00000000000E+00  0.00000000000E+00  0.19835609044E+03  0.19835609044E+03  0.00000000000E+00 0.  1.
         21   -1    0    0  501  502 -0.00000000000E+00 -0.00000000000E+00 -0.53243926639E+03  0.53243926639E+03  0.00000000000E+00 0.  1.
         25    1    1    2    0    0 -0.11069185077E+03  0.21389855467E+02 -0.11649513413E+03  0.20471035152E+03  0.12500000000E+03 0.  0.
         25    1    1    2    0    0  0.24261879512E-01  0.14981362218E+03  0.10801502657E+02  0.19541185849E+03  0.12500000000E+03 0.  0.
         25    1    1    2    0    0  0.11066758889E+03 -0.17120347765E+03 -0.22838954448E+03  0.33067314681E+03  0.12500000000E+03 0.  0.
</event>
<event>
 5    0  0.5612316E-005  0.3279454E+03  0.7546771E-02  0.1072050E+00
         21   -1    0    0  502  501  0.00000000000E+00  0.00000000000E+00  0.14507826886E+04  0.14507826886E+04  0.00000000000E+00 0. -1.
         21   -1    0    0  501  502 -0.00000000000E+00 -0.00000000000E+00 -0.74131160493E+02  0.74131160493E+02  0.00000000000E+00 0. -1.
         25    1    1    2    0    0  0.13152501698E+03  0.62715081535E+00  0.49589323305E+03  0.52804765125E+03  0.12500000000E+03 0.  0.
         25    1    1    2    0    0 -0.67265140641E+02 -0.16778736302E+03  0.61376765958E+03  0.65193016365E+03  0.12500000000E+03 0.  0.
         25    1    1    2    0    0 -0.64259876337E+02  0.16716021220E+03  0.26699063549E+03  0.34493603420E+03  0.12500000000E+03 0.  0.
</event>
<event>
 5    0  0.5612316E-005  0.2582015E+03  0.7546771E-02  0.1108229E+00
         21   -1    0    0  502  501  0.00000000000E+00  0.00000000000E+00  0.15229273736E+03  0.15229273736E+03  0.00000000000E+00 0.  1.
         21   -1    0    0  501  502 -0.00000000000E+00 -0.00000000000E+00 -0.43776238884E+03  0.43776238884E+03  0.00000000000E+00 0.  1.
         25    1    1    2    0    0  0.85025009998E+02  0.12999361634E+02 -0.19997711979E+02  0.15304621594E+03  0.12500000000E+03 0.  0.
         25    1    1    2    0    0 -0.60420226467E+02 -0.10455583714E+02 -0.27602200756E+03  0.30914894736E+03  0.12500000000E+03 0.  0.
         25    1    1    2    0    0 -0.24604783530E+02 -0.25437779205E+01  0.10550068052E+02  0.12785996291E+03  0.12500000000E+03 0.  0.
</event>
<event>
 5    0  0.5612316E-005  0.2135309E+03  0.7546771E-02  0.1138800E+00
         21   -1    0    0  502  501  0.00000000000E+00  0.00000000000E+00  0.27180569264E+03  0.27180569264E+03  0.00000000000E+00 0. -1.
         21   -1    0    0  501  502 -0.00000000000E+00 -0.00000000000E+00 -0.16775009978E+03  0.16775009978E+03  0.00000000000E+00 0. -1.
         25    1    1    2    0    0 -0.53855867691E+01 -0.46496194880E+02  0.11406098825E+03  0.17557280462E+03  0.12500000000E+03 0.  0.
         25    1    1    2    0    0 -0.18113162723E+02  0.10766968649E+02 -0.30263525473E+02  0.13032611117E+03  0.12500000000E+03 0.  0.
         25    1    1    2    0    0  0.23498749492E+02  0.35729226232E+02  0.20258130091E+02  0.13365687663E+03  0.12500000000E+03 0.  0.
</event>
<event>
 5    0  0.5612316E-005  0.3320091E+03  0.7546771E-02  0.1070251E+00
         21   -1    0    0  502  501  0.00000000000E+00  0.00000000000E+00  0.14491655056E+03  0.14491655056E+03  0.00000000000E+00 0.  1.
         21   -1    0    0  501  502 -0.00000000000E+00 -0.00000000000E+00 -0.76064493936E+03  0.76064493936E+03  0.00000000000E+00 0.  1.
         25    1    1    2    0    0 -0.87903842611E+02  0.83458642380E+02 -0.23710681247E+03  0.29417183933E+03  0.12500000000E+03 0.  0.
         25    1    1    2    0    0  0.16158526652E+02 -0.23718627610E+03 -0.19541981815E+03  0.33216311186E+03  0.12500000000E+03 0.  0.
         25    1    1    2    0    0  0.71745315959E+02  0.15372763372E+03 -0.18320175817E+03  0.27922653873E+03  0.12500000000E+03 0.  0.
</event>
<event>
 5    0  0.5612316E-005  0.4789622E+03  0.7546771E-02  0.1019421E+00
         21   -1    0    0  502  501  0.00000000000E+00  0.00000000000E+00  0.89229732398E+03  0.89229732398E+03  0.00000000000E+00 0. -1.
         21   -1    0    0  501  502 -0.00000000000E+00 -0.00000000000E+00 -0.25709458234E+03  0.25709458234E+03  0.00000000000E+00 0. -1.
         25    1    1    2    0    0  0.30392084509E+03  0.18226397155E+03  0.43225317919E+02  0.37826110494E+03  0.12500000000E+03 0.  0.
         25    1    1    2    0    0 -0.18102326631E+03 -0.12212420271E+03  0.50957906287E+03  0.56831291130E+03  0.12500000000E+03 0.  0.
         25    1    1    2    0    0 -0.12289757878E+03 -0.60139768842E+02  0.82398360842E+02  0.20281789008E+03  0.12500000000E+03 0.  0.
</event>
<event>
 5    0  0.5612316E-005  0.2974697E+03  0.7546771E-02  0.1086512E+00
         21   -1    0    0  502  501  0.00000000000E+00  0.00000000000E+00  0.17543025385E+04  0.17543025385E+04  0.00000000000E+00 0.  1.
         21   -1    0    0  501  502 -0.00000000000E+00 -0.00000000000E+00 -0.50440669963E+02  0.50440669963E+02  0.00000000000E+00 0.  1.
         25    1    1    2    0    0 -0.48473849095E+02 -0.10793101393E+03  0.44672441051E+03  0.47873428617E+03  0.12500000000E+03 0.  0.
         25    1    1    2    0    0 -0.16419062971E+02 -0.93573586904E+02  0.31009400663E+03  0.34757573957E+03  0.12500000000E+03 0.  0.
         25    1    1    2    0    0  0.64892912067E+02  0.20150460083E+03  0.94704345140E+03  0.97843318272E+03  0.12500000000E+03 0.  0.
</event>
<event>
 5    0  0.5612316E-005  0.3271280E+03  0.7546771E-02  0.1072415E+00
         21   -1    0    0  502  501  0.00000000000E+00  0.00000000000E+00  0.82793601818E+02  0.82793601818E+02  0.00000000000E+00 0.  1.
         21   -1    0    0  501  502 -0.00000000000E+00 -0.00000000000E+00 -0.12925244305E+04  0.12925244305E+04  0.00000000000E+00 0.  1.
         25    1    1    2    0    0 -0.68183212395E+02  0.15246956949E+03 -0.44273111776E+03  0.48941982256E+03  0.12500000000E+03 0.  0.
         25    1    1    2    0    0  0.29580732180E+02 -0.21606147283E+03 -0.27375113272E+03  0.37164803568E+03  0.12500000000E+03 0.  0.
         25    1    1    2    0    0  0.38602480215E+02  0.63591903339E+02 -0.49324857822E+03  0.51425017410E+03  0.12500000000E+03 0.  0.
</event>
<event>
 5    0  0.5612316E-005  0.2503234E+03  0.7546771E-02  0.1113101E+00
         21   -1    0    0  502  501  0.00000000000E+00  0.00000000000E+00  0.29565154327E+03  0.29565154327E+03  0.00000000000E+00 0. -1.
         21   -1    0    0  501  502 -0.00000000000E+00 -0.00000000000E+00 -0.21194476393E+03  0.21194476393E+03  0.00000000000E+00 0. -1.
         25    1    1    2    0    0  0.52177906513E+02 -0.66127263177E+01 -0.17864028349E+02  0.13678591150E+03  0.12500000000E+03 0.  0.
         25    1    1    2    0    0 -0.13046077272E+03  0.23522396924E+02  0.12438374005E+03  0.22061194702E+03  0.12500000000E+03 0.  0.
         25    1    1    2    0    0  0.78282866212E+02 -0.16909670607E+02 -0.22812932369E+02  0.15019844868E+03  0.12500000000E+03 0.  0.
</event>
<event>
 5    0  0.8298831E-005  0.6470468E+03  0.7546771E-02  0.9812336E-01
         21   -1    0    0  502  501  0.00000000000E+00  0.00000000000E+00  0.38356871788E+03  0.38356871788E+03  0.00000000000E+00 0.  1.
         21   -1    0    0  501  502 -0.00000000000E+00 -0.00000000000E+00 -0.10915113613E+04  0.10915113613E+04  0.00000000000E+00 0.  1.
         25    1    1    2    0    0 -0.88990557439E+02 -0.19045278529E+03  0.16595520691E+03  0.29556338312E+03  0.12500000000E+03 0.  0.
         25    1    1    2    0    0  0.37285281924E+03 -0.16826043879E+02 -0.59638443976E+03  0.71456402131E+03  0.12500000000E+03 0.  0.
         25    1    1    2    0    0 -0.28386226180E+03  0.20727882917E+03 -0.27751341054E+03  0.46495267471E+03  0.12500000000E+03 0.  0.
</event>
<event>
 5    0  0.5612316E-005  0.2852803E+03  0.7546771E-02  0.1092839E+00
         21   -1    0    0  502  501  0.00000000000E+00  0.00000000000E+00  0.50328908369E+02  0.50328908369E+02  0.00000000000E+00 0.  1.
         21   -1    0    0  501  502 -0.00000000000E+00 -0.00000000000E+00 -0.16170599474E+04  0.16170599474E+04  0.00000000000E+00 0.  1.
         25    1    1    2    0    0 -0.21505857484E+02  0.14569625273E+03 -0.76836257840E+03  0.79227264995E+03  0.12500000000E+03 0.  0.
         25    1    1    2    0    0  0.73794929491E+02 -0.16161015878E+03 -0.55698309369E+03  0.59784504823E+03  0.12500000000E+03 0.  0.
         25    1    1    2    0    0 -0.52289072007E+02  0.15913906043E+02 -0.24138536692E+03  0.27727115757E+03  0.12500000000E+03 0.  0.
</event>
<event>
 5    0  0.5612316E-005  0.3413328E+03  0.7546771E-02  0.1066230E+00
         21   -1    0    0  502  501  0.00000000000E+00  0.00000000000E+00  0.77658219440E+02  0.77658219440E+02  0.00000000000E+00 0. -1.
         21   -1    0    0  501  502 -0.00000000000E+00 -0.00000000000E+00 -0.15002669095E+04  0.15002669095E+04  0.00000000000E+00 0. -1.
         25    1    1    2    0    0  0.14119706757E+03 -0.12325195548E+03 -0.63457968742E+03  0.67338253326E+03  0.12500000000E+03 0.  0.
         25    1    1    2    0    0 -0.15718847037E+03  0.49961529361E+02 -0.70927120969E+03  0.73884708738E+03  0.12500000000E+03 0.  0.
         25    1    1    2    0    0  0.15991402797E+02  0.73290426120E+02 -0.78757792978E+02  0.16569550833E+03  0.12500000000E+03 0.  0.
</event>
<event>
 5    0  0.5612316E-005  0.5000417E+03  0.7546771E-02  0.1013768E+00
         21   -1    0    0  502  501  0.00000000000E+00  0.00000000000E+00  0.13902071791E+04  0.13902071791E+04  0.00000000000E+00 0.  1.
         21   -1    0    0  501  502 -0.00000000000E+00 -0.00000000000E+00 -0.17985934069E+03  0.17985934069E+03  0.00000000000E+00 0.  1.
         25    1    1    2    0    0 -0.19505138733E+03 -0.20288049488E+03  0.11526502613E+03  0.32881083490E+03  0.12500000000E+03 0.  0.
         25    1    1    2    0    0  0.15124055591E+03 -0.12199768745E+03  0.49190704448E+03  0.54346543763E+03  0.12500000000E+03 0.  0.
         25    1    1    2    0    0  0.43810831418E+02  0.32487818233E+03  0.60317576778E+03  0.69779024724E+03  0.12500000000E+03 0.  0.
</event>
<event>
 5    0  0.5612316E-005  0.3615026E+03  0.7546771E-02  0.1057990E+00
         21   -1    0    0  502  501  0.00000000000E+00  0.00000000000E+00  0.33610697074E+03  0.33610697074E+03  0.00000000000E+00 0.  1.
         21   -1    0    0  501  502 -0.00000000000E+00 -0.00000000000E+00 -0.38881702583E+03  0.38881702583E+03  0.00000000000E+00 0.  1.
         25    1    1    2    0    0 -0.15874386526E+03  0.10398657431E+03 -0.19337731550E+03  0.29838332484E+03  0.12500000000E+03 0.  0.
         25    1    1    2    0    0  0.18628918354E+03  0.11114430759E+02  0.11549854889E+03  0.25257099055E+03  0.12500000000E+03 0.  0.
         25    1    1    2    0    0 -0.27545318284E+02 -0.11510100507E+03  0.25168711516E+02  0.17396968117E+03  0.12500000000E+03 0.  0.
</event>
<event>
 5    0  0.5612316E-005  0.2534242E+03  0.7546771E-02  0.1111160E+00
         21   -1    0    0  502  501  0.00000000000E+00  0.00000000000E+00  0.31895562356E+03  0.31895562356E+03  0.00000000000E+00 0.  1.
         21   -1    0    0  501  502 -0.00000000000E+00 -0.00000000000E+00 -0.20135662045E+03  0.20135662045E+03  0.00000000000E+00 0.  1.
         25    1    1    2    0    0 -0.72566626618E+02  0.24452483821E+01  0.10796855279E+03  0.18042755591E+03  0.12500000000E+03 0.  0.
         25    1    1    2    0    0  0.10163901154E+03 -0.67739630986E+02 -0.53338053855E+02  0.18272682962E+03  0.12500000000E+03 0.  0.
         25    1    1    2    0    0 -0.29072384924E+02  0.65294382604E+02  0.62968504171E+02  0.15715785848E+03  0.12500000000E+03 0.  0.
</event>
<event>
 5    0  0.5612316E-005  0.3887625E+03  0.7546771E-02  0.1047742E+00
         21   -1    0    0  502  501  0.00000000000E+00  0.00000000000E+00  0.47008134326E+03  0.47008134326E+03  0.00000000000E+00 0. -1.
         21   -1    0    0  501  502 -0.00000000000E+00 -0.00000000000E+00 -0.32151087906E+03  0.32151087906E+03  0.00000000000E+00 0. -1.
         25    1    1    2    0    0  0.12164792528E+03 -0.23686067088E+03  0.19452177040E+03  0.35265410006E+03  0.12500000000E+03 0.  0.
         25    1    1    2    0    0 -0.17680410038E+03  0.10210970958E+03  0.82256423664E+01  0.23953860627E+03  0.12500000000E+03 0.  0.
         25    1    1    2    0    0  0.55156175095E+02  0.13475096130E+03 -0.54176948556E+02  0.19939951599E+03  0.12500000000E+03 0.  0.
</event>
<event>
 5    0  0.5612316E-005  0.2138984E+03  0.7546771E-02  0.1138516E+00
         21   -1    0    0  502  501  0.00000000000E+00  0.00000000000E+00  0.64658057604E+03  0.64658057604E+03  0.00000000000E+00 0. -1.
         21   -1    0    0  501  502 -0.00000000000E+00 -0.00000000000E+00 -0.70760766473E+02  0.70760766473E+02  0.00000000000E+00 0. -1.
         25    1    1    2    0    0  0.44633681857E+02 -0.51278383975E+02  0.11231585003E+03  0.18127737969E+03  0.12500000000E+03 0.  0.
         25    1    1    2    0    0 -0.22327825410E+02 -0.10712819326E+02  0.23744106101E+03  0.26947458830E+03  0.12500000000E+03 0.  0.
         25    1    1    2    0    0 -0.22305856447E+02  0.61991203302E+02  0.22606289854E+03  0.26658937453E+03  0.12500000000E+03 0.  0.
</event>
<event>
 5    0  0.5612316E-005  0.6638304E+03  0.7546771E-02  0.9781168E-01
         21   -1    0    0  502  501  0.00000000000E+00  0.00000000000E+00  0.12151317342E+04  0.12151317342E+04  0.00000000000E+00 0.  1.
         21   -1    0    0  501  502 -0.00000000000E+00 -0.00000000000E+00 -0.36265267941E+03  0.36265267941E+03  0.00000000000E+00 0.  1.
         25    1    1    2    0    0  0.35877359294E+03 -0.44167940048E+03  0.57474422272E+03  0.81838567030E+03  0.12500000000E+03 0.  0.
         25    1    1    2    0    0 -0.11381474169E+03  0.77917323232E+02 -0.55907130515E+02  0.19435923422E+03  0.12500000000E+03 0.  0.
         25    1    1    2    0    0 -0.24495885125E+03  0.36376207725E+03  0.33364196262E+03  0.56503950913E+03  0.12500000000E+03 0.  0.
</event>
<event>
 5    0  0.6849815E-005  0.5068317E+03  0.7546771E-02  0.1012011E+00
         21   -1    0    0  502  501  0.00000000000E+00  0.00000000000E+00  0.62935221618E+03  0.62935221618E+03  0.00000000000E+00 0. -1.
         21   -1    0    0  501  502 -0.00000000000E+00 -0.00000000000E+00 -0.40816318089E+03  0.40816318089E+03  0.00000000000E+00 0. -1.
         25    1    1    2    0    0  0.23056273829E+02  0.15087796499E+03  0.40885825114E+03  0.45396676267E+03  0.12500000000E+03 0.  0.
         25    1    1    2    0    0 -0.87324941414E+02  0.14478217397E+03 -0.14028211028E+03  0.25276786535E+03  0.12500000000E+03 0.  0.
         25    1    1    2    0    0  0.64268667584E+02 -0.29566013896E+03 -0.47387105575E+02  0.33078076905E+03  0.12500000000E+03 0.  0.
</event>
<event>
 5    0  0.5612316E-005  0.2931798E+03  0.7546771E-02  0.1088701E+00
         21   -1    0    0  502  501  0.00000000000E+00  0.00000000000E+00  0.36119812524E+03  0.36119812524E+03  0.00000000000E+00 0.  1.
         21   -1    0    0  501  502 -0.00000000000E+00 -0.00000000000E+00 -0.23797021033E+03  0.23797021033E+03  0.00000000000E+00 0.  1.
         25    1    1    2    0    0  0.13285023025E+03 -0.10965272533E+03  0.11944992610E+03  0.24406185424E+03  0.12500000000E+03 0.  0.
         25    1    1    2    0    0  0.30662205921E+02  0.21212942844E+02  0.11580500525E+02  0.13095521299E+03  0.12500000000E+03 0.  0.
         25    1    1    2    0    0 -0.16351243617E+03  0.88439782484E+02 -0.78025117111E+01  0.22415126834E+03  0.12500000000E+03 0.  0.
</event>
<event>
 5    0  0.5612316E-005  0.3034044E+03  0.7546771E-02  0.1083551E+00
         21   -1    0    0  502  501  0.00000000000E+00  0.00000000000E+00  0.67088190085E+03  0.67088190085E+03  0.00000000000E+00 0.  1.
         21   -1    0    0  501  502 -0.00000000000E+00 -0.00000000000E+00 -0.13721377401E+03  0.13721377401E+03  0.00000000000E+00 0.  1.
         25    1    1    2    0    0  0.11640326584E+03  0.11465412240E+02  0.21614228947E+02  0.17254956062E+03  0.12500000000E+03 0.  0.
         25    1    1    2    0    0 -0.43104579783E+02  0.45477165865E+01  0.46330321769E+03  0.48182316055E+03  0.12500000000E+03 0.  0.
         25    1    1    2    0    0 -0.73298686055E+02 -0.16013128827E+02  0.48750680200E+02  0.15372295369E+03  0.12500000000E+03 0.  0.
</event>
<event>
 5    0  0.6378336E-005  0.3686760E+03  0.7546771E-02  0.1055200E+00
         21   -1    0    0  502  501  0.00000000000E+00  0.00000000000E+00  0.36819135155E+03  0.36819135155E+03  0.00000000000E+00 0.  1.
         21   -1    0    0  501  502 -0.00000000000E+00 -0.00000000000E+00 -0.36916118645E+03  0.36916118645E+03  0.00000000000E+00 0.  1.
         25    1    1    2    0    0 -0.87634022083E+02  0.64569361171E+02 -0.19127460090E+03  0.25310056732E+03  0.12500000000E+03 0.  0.
         25    1    1    2    0    0  0.66066936903E+02  0.98165140973E+02  0.21614827336E+03  0.27630836240E+03  0.12500000000E+03 0.  0.
         25    1    1    2    0    0  0.21567085180E+02 -0.16273450214E+03 -0.25843507360E+02  0.20794360828E+03  0.12500000000E+03 0.  0.
</event>
<event>
 5    0  0.5632914E-005  0.2803987E+03  0.7546771E-02  0.1095471E+00
         21   -1    0    0  502  501  0.00000000000E+00  0.00000000000E+00  0.29880353814E+03  0.29880353814E+03  0.00000000000E+00 0. -1.
         21   -1    0    0  501  502 -0.00000000000E+00 -0.00000000000E+00 -0.26312745793E+03  0.26312745793E+03  0.00000000000E+00 0. -1.
         25    1    1    2    0    0 -0.25937133303E+02  0.13275262223E+02  0.80204726699E+02  0.15134981221E+03  0.12500000000E+03 0.  0.
         25    1    1    2    0    0 -0.19988992969E+02 -0.15973523247E+03 -0.58772175434E+02  0.21211806367E+03  0.12500000000E+03 0.  0.
         25    1    1    2    0    0  0.45926126272E+02  0.14645997024E+03  0.14243528943E+02  0.19846312019E+03  0.12500000000E+03 0.  0.
</event>
<event>
 5    0  0.5612316E-005  0.4531224E+03  0.7546771E-02  0.1026795E+00
         21   -1    0    0  502  501  0.00000000000E+00  0.00000000000E+00  0.16082962655E+04  0.16082962655E+04  0.00000000000E+00 0.  1.
         21   -1    0    0  501  502 -0.00000000000E+00 -0.00000000000E+00 -0.12766296539E+03  0.12766296539E+03  0.00000000000E+00 0.  1.
         25    1    1    2    0    0  0.67842168870E+01 -0.20160929575E+03  0.32091383957E+03  0.39912783185E+03  0.12500000000E+03 0.  0.
         25    1    1    2    0    0 -0.16522193865E+03  0.21111535528E+03  0.20236635761E+03  0.35839241753E+03  0.12500000000E+03 0.  0.
         25    1    1    2    0    0  0.15843772177E+03 -0.95060595292E+01  0.95735310292E+03  0.97843898150E+03  0.12500000000E+03 0.  0.
</event>
<event>
 5    0  0.5612316E-005  0.3536545E+03  0.7546771E-02  0.1061125E+00
         21   -1    0    0  502  501  0.00000000000E+00  0.00000000000E+00  0.64690778598E+03  0.64690778598E+03  0.00000000000E+00 0. -1.
         21   -1    0    0  501  502 -0.00000000000E+00 -0.00000000000E+00 -0.19333746178E+03  0.19333746178E+03  0.00000000000E+00 0. -1.
         25    1    1    2    0    0 -0.14392299642E+03  0.21195352434E+03  0.21437880800E+03  0.35668108823E+03  0.12500000000E+03 0.  0.
         25    1    1    2    0    0  0.33320353920E+02 -0.86388818676E+02  0.22589712930E+03  0.27427684373E+03  0.12500000000E+03 0.  0.
         25    1    1    2    0    0  0.11060264250E+03 -0.12556470567E+03  0.13294386892E+02  0.20928731581E+03  0.12500000000E+03 0.  0.
</event>
<event>
 5    0  0.5612316E-005  0.2420004E+03  0.7546771E-02  0.1118467E+00
         21   -1    0    0  502  501  0.00000000000E+00  0.00000000000E+00  0.15393419879E+03  0.15393419879E+03  0.00000000000E+00 0. -1.
         21   -1    0    0  501  502 -0.00000000000E+00 -0.00000000000E+00 -0.38044965762E+03  0.38044965762E+03  0.00000000000E+00 0. -1.
         25    1    1    2    0    0 -0.98734530090E+02  0.16754693715E+02 -0.13325284108E+03  0.20835197827E+03  0.12500000000E+03 0.  0.
         25    1    1    2    0    0  0.10930947821E+03 -0.60922051141E+02 -0.32597897201E+02  0.17985461140E+03  0.12500000000E+03 0.  0.
         25    1    1    2    0    0 -0.10574948117E+02  0.44167357426E+02 -0.60664720550E+02  0.14617726673E+03  0.12500000000E+03 0.  0.
</event>
<event>
 5    0  0.5612316E-005  0.2869925E+03  0.7546771E-02  0.1091930E+00
         21   -1    0    0  502  501  0.00000000000E+00  0.00000000000E+00  0.69267795705E+02  0.69267795705E+02  0.00000000000E+00 0.  1.
         21   -1    0    0  501  502 -0.00000000000E+00 -0.00000000000E+00 -0.11890763743E+04  0.11890763743E+04  0.00000000000E+00 0.  1.
         25    1    1    2    0    0  0.95551588092E+00  0.12622426816E+03 -0.25146926137E+03  0.30788840234E+03  0.12500000000E+03 0.  0.
         25    1    1    2    0    0  0.50032266767E+02  0.67281221058E+02 -0.33626933835E+03  0.36841831976E+03  0.12500000000E+03 0.  0.
         25    1    1    2    0    0 -0.50987782648E+02 -0.19350548921E+03 -0.53206997888E+03  0.58203744790E+03  0.12500000000E+03 0.  0.
</event>
<event>
 5    0  0.5612316E-005  0.3122930E+03  0.7546771E-02  0.1079252E+00
         21   -1    0    0  502  501  0.00000000000E+00  0.00000000000E+00  0.30252814694E+03  0.30252814694E+03  0.00000000000E+00 0.  1.
         21   -1    0    0  501  502 -0.00000000000E+00 -0.00000000000E+00 -0.32237301330E+03  0.32237301330E+03  0.00000000000E+00 0.  1.
         25    1    1    2    0    0 -0.17494248325E+03 -0.14170108990E+02 -0.67826087309E+02  0.22590051473E+03  0.12500000000E+03 0.  0.
         25    1    1    2    0    0 -0.11520818469E+02 -0.31522090915E+02 -0.63570758239E+02  0.14419643816E+03  0.12500000000E+03 0.  0.
         25    1    1    2    0    0  0.18646330172E+03  0.45692199905E+02  0.11155197919E+03  0.25480420735E+03  0.12500000000E+03 0.  0.
</event>
<event>
 5    0  0.5612316E-005  0.2121957E+03  0.7546771E-02  0.1139839E+00
         21   -1    0    0  502  501  0.00000000000E+00  0.00000000000E+00  0.10085876441E+04  0.10085876441E+04  0.00000000000E+00 0. -1.
         21   -1    0    0  501  502 -0.00000000000E+00 -0.00000000000E+00 -0.44643640341E+02  0.44643640341E+02  0.00000000000E+00 0. -1.
         25    1    1    2    0    0  0.24309088655E+02  0.30008002687E+02  0.34080561163E+03  0.36505462185E+03  0.12500000000E+03 0.  0.
         25    1    1    2    0    0  0.22689803996E+02 -0.53873056572E+02  0.43405536909E+03  0.45546261851E+03  0.12500000000E+03 0.  0.
         25    1    1    2    0    0 -0.46998892651E+02  0.23865053885E+02  0.18908302303E+03  0.23271404407E+03  0.12500000000E+03 0.  0.
</event>
<event>
 5    0  0.5612316E-005  0.2527128E+03  0.7546771E-02  0.1111602E+00
         21   -1    0    0  502  501  0.00000000000E+00  0.00000000000E+00  0.10954666734E+04  0.10954666734E+04  0.00000000000E+00 0.  1.
         21   -1    0    0  501  502 -0.00000000000E+00 -0.00000000000E+00 -0.58298235336E+02  0.58298235336E+02  0.00000000000E+00 0.  1.
         25    1    1    2    0    0 -0.39125546195E+02 -0.66443441147E+02  0.43508842422E+03  0.45920853229E+03  0.12500000000E+03 0.  0.
         25    1    1    2    0    0  0.65451252495E+02  0.59391307568E+02  0.11641843462E+03  0.19232640429E+03  0.12500000000E+03 0.  0.
         25    1    1    2    0    0 -0.26325706300E+02  0.70521335787E+01  0.48566157924E+03  0.50222997217E+03  0.12500000000E+03 0.  0.
</event>
<event>
 5    0  0.5612316E-005  0.2551182E+03  0.7546771E-02  0.1110112E+00
         21   -1    0    0  502  501  0.00000000000E+00  0.00000000000E+00  0.16005395113E+04  0.16005395113E+04  0.00000000000E+00 0. -1.
         21   -1    0    0  501  502 -0.00000000000E+00 -0.00000000000E+00 -0.40664583129E+02  0.40664583129E+02  0.00000000000E+00 0. -1.
         25    1    1    2    0    0  0.24716059624E+02 -0.11742563119E+03  0.41677459830E+03  0.45135986557E+03  0.12500000000E+03 0.  0.
         25    1    1    2    0    0  0.71931822620E+02  0.87407076697E+02  0.62529037887E+03  0.64763202675E+03  0.12500000000E+03 0.  0.
         25    1    1    2    0    0 -0.96647882244E+02  0.30018554490E+02  0.51780995099E+03  0.54221220209E+03  0.12500000000E+03 0.  0.
</event>
<event>
 5    0  0.5612316E-005  0.2698175E+03  0.7546771E-02  0.1101384E+00
         21   -1    0    0  502  501  0.00000000000E+00  0.00000000000E+00  0.24878586205E+03  0.24878586205E+03  0.00000000000E+00 0.  1.
         21   -1    0    0  501  502 -0.00000000000E+00 -0.00000000000E+00 -0.29262703225E+03  0.29262703225E+03  0.00000000000E+00 0.  1.
         25    1    1    2    0    0  0.45375521347E+02 -0.15501658542E+03 -0.24079804199E+02  0.20565484838E+03  0.12500000000E+03 0.  0.
         25    1    1    2    0    0  0.50066919186E+02  0.64220145004E+02  0.18025498465E+02  0.15026923177E+03  0.12500000000E+03 0.  0.
         25    1    1    2    0    0 -0.95442440534E+02  0.90796440415E+02 -0.37786864468E+02  0.18548881415E+03  0.12500000000E+03 0.  0.
</event>
<event>
 5    0  0.5612316E-005  0.3454439E+03  0.7546771E-02  0.1064501E+00
         21   -1    0    0  502  501  0.00000000000E+00  0.00000000000E+00  0.22303987400E+03  0.22303987400E+03  0.00000000000E+00 0.  1.
         21   -1    0    0  501  502 -0.00000000000E+00 -0.00000000000E+00 -0.53502311760E+03  0.53502311760E+03  0.00000000000E+00 0.  1.
         25    1    1    2    0    0 -0.86412651314E+02 -0.76113778799E+02 -0.13916030764E+02  0.17052597908E+03  0.12500000000E+03 0.  0.
         25    1    1    2    0    0  0.12547752455E+03 -0.69907298409E+01 -0.37471786581E+03  0.41452618546E+03  0.12500000000E+03 0.  0.
         25    1    1    2    0    0 -0.39064873237E+02  0.83104508640E+02  0.76650652982E+02  0.17301082706E+03  0.12500000000E+03 0.  0.
</event>
<event>
 5    0  0.5612316E-005  0.3375403E+03  0.7546771E-02  0.1067848E+00
         21   -1    0    0  502  501  0.00000000000E+00  0.00000000000E+00  0.28227749323E+03  0.28227749323E+03  0.00000000000E+00 0. -1.
         21   -1    0    0  501  502 -0.00000000000E+00 -0.00000000000E+00 -0.40362208262E+03  0.40362208262E+03  0.00000000000E+00 0. -1.
         25    1    1    2    0    0 -0.28175403923E+02 -0.36740536724E+02 -0.27308883456E+03  0.30388522831E+03  0.12500000000E+03 0.  0.
         25    1    1    2    0    0 -0.58137584860E+02 -0.74694022243E+02  0.10238280481E+03  0.18726028531E+03  0.12500000000E+03 0.  0.
         25    1    1    2    0    0  0.86312988783E+02  0.11143455897E+03  0.49361440349E+02  0.19475406224E+03  0.12500000000E+03 0.  0.
</event>
<event>
 5    0  0.5612316E-005  0.2841204E+03  0.7546771E-02  0.1093459E+00
         21   -1    0    0  502  501  0.00000000000E+00  0.00000000000E+00  0.81260591159E+03  0.81260591159E+03  0.00000000000E+00 0.  1.
         21   -1    0    0  501  502 -0.00000000000E+00 -0.00000000000E+00 -0.99340188852E+02  0.99340188852E+02  0.00000000000E+00 0.  1.
         25    1    1    2    0    0 -0.16137904224E+02  0.34261226353E+02  0.75527353631E+02  0.15087625635E+03  0.12500000000E+03 0.  0.
         25    1    1    2    0    0  0.49183955263E+02 -0.13048222511E+03  0.54238908246E+03  0.57380797249E+03  0.12500000000E+03 0.  0.
         25    1    1    2    0    0 -0.33046051039E+02  0.96220998755E+02  0.95349286649E+02  0.18726187160E+03  0.12500000000E+03 0.  0.
</event>
<event>
 5    0  0.5612316E-005  0.3306419E+03  0.7546771E-02  0.1070853E+00
         21   -1    0    0  502  501  0.00000000000E+00  0.00000000000E+00  0.15616667337E+03  0.15616667337E+03  0.00000000000E+00 0. -1.
         21   -1    0    0  501  502 -0.00000000000E+00 -0.00000000000E+00 -0.70004751996E+03  0.70004751996E+03  0.00000000000E+00 0. -1.
         25    1    1    2    0    0 -0.32200449769E+02 -0.24439354896E+02 -0.29039164445E+03  0.31872630610E+03  0.12500000000E+03 0.  0.
         25    1    1    2    0    0 -0.23331010865E+02  0.18839716906E+03 -0.22885989264E+03  0.32255182504E+03  0.12500000000E+03 0.  0.
         25    1    1    2    0    0  0.55531460634E+02 -0.16395781417E+03 -0.24629309509E+02  0.21493606220E+03  0.12500000000E+03 0.  0.
</event>
<event>
 5    0  0.5612316E-005  0.2639751E+03  0.7546771E-02  0.1104778E+00
         21   -1    0    0  502  501  0.00000000000E+00  0.00000000000E+00  0.33547619946E+03  0.33547619946E+03  0.00000000000E+00 0.  1.
         21   -1    0    0  501  502 -0.00000000000E+00 -0.00000000000E+00 -0.20771332574E+03  0.20771332574E+03  0.00000000000E+00 0.  1.
         25    1    1    2    0    0  0.24943972059E+02 -0.15026070397E+03  0.86323992100E+02  0.21512162261E+03  0.12500000000E+03 0.  0.
         25    1    1    2    0    0  0.48662002196E+02  0.65713750807E+02  0.56031510644E+02  0.15953312411E+03  0.12500000000E+03 0.  0.
         25    1    1    2    0    0 -0.73605974255E+02  0.84546953166E+02 -0.14592629021E+02  0.16853477848E+03  0.12500000000E+03 0.  0.
</event>
<event>
 5    0  0.5612316E-005  0.4261736E+03  0.7546771E-02  0.1035076E+00
         21   -1    0    0  502  501  0.00000000000E+00  0.00000000000E+00  0.81644066003E+02  0.81644066003E+02  0.00000000000E+00 0. -1.
         21   -1    0    0  501  502 -0.00000000000E+00 -0.00000000000E+00 -0.22245820868E+04  0.22245820868E+04  0.00000000000E+00 0. -1.
         25    1    1    2    0    0  0.90730390306E+02 -0.72778756497E+02 -0.23253596179E+03  0.28849042384E+03  0.12500000000E+03 0.  0.
         25    1    1    2    0    0  0.18256587822E+03  0.75798928922E+02 -0.30450831848E+03  0.38396105732E+03  0.12500000000E+03 0.  0.
         25    1    1    2    0    0 -0.27329626852E+03 -0.30201724257E+01 -0.16058937405E+04  0.16337746716E+04  0.12500000000E+03 0.  0.
</event>
<event>
 5    0  0.5612316E-005  0.2776768E+03  0.7546771E-02  0.1096965E+00
         21   -1    0    0  502  501  0.00000000000E+00  0.00000000000E+00  0.19283351441E+04  0.19283351441E+04  0.00000000000E+00 0. -1.
         21   -1    0    0  501  502 -0.00000000000E+00 -0.00000000000E+00 -0.39984956185E+02  0.39984956185E+02  0.00000000000E+00 0. -1.
         25    1    1    2    0    0  0.22338643248E+02 -0.55502082918E+01  0.69203484427E+03  0.70361000951E+03  0.12500000000E+03 0.  0.
         25    1    1    2    0    0 -0.14834609049E+03  0.44427867160E+02  0.85705257179E+03  0.87985482255E+03  0.12500000000E+03 0.  0.
         25    1    1    2    0    0  0.12600744724E+03 -0.38877658868E+02  0.33926277187E+03  0.38485526824E+03  0.12500000000E+03 0.  0.
</event>
<event>
 5    0  0.5612316E-005  0.2513167E+03  0.7546771E-02  0.1112476E+00
         21   -1    0    0  502  501  0.00000000000E+00  0.00000000000E+00  0.69213715142E+02  0.69213715142E+02  0.00000000000E+00 0. -1.
         21   -1    0    0  501  502 -0.00000000000E+00 -0.00000000000E+00 -0.91253707046E+03  0.91253707046E+03  0.00000000000E+00 0. -1.
         25    1    1    2    0    0  0.81507183332E+02  0.42925957524E+02 -0.41523554964E+03  0.44331886995E+03  0.12500000000E+03 0.  0.
         25    1    1    2    0    0 -0.11611950775E+03  0.34450961069E+00 -0.32546706823E+03  0.36747472194E+03  0.12500000000E+03 0.  0.
         25    1    1    2    0    0  0.34612324415E+02 -0.43270467135E+02 -0.10262073745E+03  0.17095719371E+03  0.12500000000E+03 0.  0.
</event>
<event>
 5    0  0.5612316E-005  0.3155883E+03  0.7546771E-02  0.1077698E+00
         21   -1    0    0  502  501  0.00000000000E+00  0.00000000000E+00  0.56911075492E+03  0.56911075492E+03  0.00000000000E+00 0.  1.
         21   -1    0    0  501  502 -0.00000000000E+00 -0.00000000000E+00 -0.17500283227E+03  0.17500283227E+03  0.00000000000E+00 0.  1.
         25    1    1    2    0    0  0.16933928060E+03  0.15200607185E+02  0.20511922344E+03  0.29428854248E+03  0.12500000000E+03 0.  0.
         25    1    1    2    0    0 -0.61850468217E+02  0.68891930232E+02  0.21241388715E+03  0.26327977120E+03  0.12500000000E+03 0.  0.
         25    1    1    2    0    0 -0.10748881238E+03 -0.84092537417E+02 -0.23425187941E+02  0.18654527350E+03  0.12500000000E+03 0.  0.
</event>
<event>
 5    0  0.5612316E-005  0.2943538E+03  0.7546771E-02  0.1088098E+00
         21   -1    0    0  502  501  0.00000000000E+00  0.00000000000E+00  0.12082949016E+03  0.12082949016E+03  0.00000000000E+00 0. -1.
         21   -1    0    0  501  502 -0.00000000000E+00 -0.00000000000E+00 -0.71707772540E+03  0.71707772540E+03  0.00000000000E+00 0. -1.
         25    1    1    2    0    0 -0.24378937012E+02  0.23249242460E+02 -0.96814490472E+02  0.16165675182E+03  0.12500000000E+03 0.  0.
         25    1    1    2    0    0 -0.11360014274E+03  0.37492498406E+02 -0.41105127706E+02  0.17783506795E+03  0.12500000000E+03 0.  0.
         25    1    1    2    0    0  0.13797907975E+03 -0.60741740866E+02 -0.45832861707E+03  0.49841539579E+03  0.12500000000E+03 0.  0.
</event>
<event>
 5    0  0.5612316E-005  0.3639121E+03  0.7546771E-02  0.1057045E+00
         21   -1    0    0  502  501  0.00000000000E+00  0.00000000000E+00  0.26102614476E+03  0.26102614476E+03  0.00000000000E+00 0.  1.
         21   -1    0    0  501  502 -0.00000000000E+00 -0.00000000000E+00 -0.50735156768E+03  0.50735156768E+03  0.00000000000E+00 0.  1.
         25    1    1    2    0    0 -0.17440323547E+02 -0.70506175772E+01 -0.41410148553E+03  0.43296526005E+03  0.12500000000E+03 0.  0.
         25    1    1    2    0    0 -0.61871142945E+02  0.46796119984E+01  0.10478183011E+03  0.17451122892E+03  0.12500000000E+03 0.  0.
         25    1    1    2    0    0  0.79311466491E+02  0.23710055788E+01  0.62994232512E+02  0.16090122347E+03  0.12500000000E+03 0.  0.
</event>
<event>
 5    0  0.5612316E-005  0.3707621E+03  0.7546771E-02  0.1054402E+00
         21   -1    0    0  502  501  0.00000000000E+00  0.00000000000E+00  0.31818293070E+03  0.31818293070E+03  0.00000000000E+00 0. -1.
         21   -1    0    0  501  502 -0.00000000000E+00 -0.00000000000E+00 -0.43202986473E+03  0.43202986473E+03  0.00000000000E+00 0. -1.
         25    1    1    2    0    0  0.12200938713E+03 -0.40300703932E+02 -0.22178339089E+03  0.28517242111E+03  0.12500000000E+03 0.  0.
         25    1    1    2    0    0 -0.98647273764E+02 -0.28738442012E+02 -0.11552851512E+03  0.19881906467E+03  0.12500000000E+03 0.  0.
         25    1    1    2    0    0 -0.23362113368E+02  0.69039145943E+02  0.22346497198E+03  0.26622130966E+03  0.12500000000E+03 0.  0.
</event>
<event>
 5    0  0.5612316E-005  0.3411950E+03  0.7546771E-02  0.1066288E+00
         21   -1    0    0  502  501  0.00000000000E+00  0.00000000000E+00  0.90449629182E+03  0.90449629182E+03  0.00000000000E+00 0.  1.
         21   -1    0    0  501  502 -0.00000000000E+00 -0.00000000000E+00 -0.12870592174E+03  0.12870592174E+03  0.00000000000E+00 0.  1.
         25    1    1    2    0    0 -0.21225319727E+03  0.19755093865E+02  0.13249264915E+03  0.28039433939E+03  0.12500000000E+03 0.  0.
         25    1    1    2    0    0  0.73699215701E+02 -0.74630416031E+02  0.44963742794E+03  0.47833052380E+03  0.12500000000E+03 0.  0.
         25    1    1    2    0    0  0.13855398156E+03  0.54875322166E+02  0.19366029299E+03  0.27447735038E+03  0.12500000000E+03 0.  0.
</event>
<event>
 5    0  0.5612316E-005  0.3804307E+03  0.7546771E-02  0.1050775E+00
         21   -1    0    0  502  501  0.00000000000E+00  0.00000000000E+00  0.79557591510E+03  0.79557591510E+03  0.00000000000E+00 0.  1.
         21   -1    0    0  501  502 -0.00000000000E+00 -0.00000000000E+00 -0.18191542481E+03  0.18191542481E+03  0.00000000000E+00 0.  1.
         25    1    1    2    0    0 -0.12861138563E+03 -0.42940730153E+02 -0.56856789716E+02  0.19298313231E+03  0.12500000000E+03 0.  0.
         25    1    1    2    0    0  0.61171910302E+02 -0.30421680552E+02  0.62027888200E+02  0.15537033234E+03  0.12500000000E+03 0.  0.
         25    1    1    2    0    0  0.67439475328E+02  0.73362410705E+02  0.60848939181E+03  0.62913787526E+03  0.12500000000E+03 0.  0.
</event>
<event>
 5    0  0.5612316E-005  0.3876666E+03  0.7546771E-02  0.1048136E+00
         21   -1    0    0  502  501  0.00000000000E+00  0.00000000000E+00  0.28593764807E+03  0.28593764807E+03  0.00000000000E+00 0. -1.
         21   -1    0    0  501  502 -0.00000000000E+00 -0.00000000000E+00 -0.52558811164E+03  0.52558811164E+03  0.00000000000E+00 0. -1.
         25    1    1    2    0    0  0.28880179465E+03 -0.36292370331E+02 -0.19393832600E+03  0.37143059517E+03  0.12500000000E+03 0.  0.
         25    1    1    2    0    0 -0.22419475959E+03 -0.48664754353E+02  0.22305204647E+02  0.26220997444E+03  0.12500000000E+03 0.  0.
         25    1    1    2    0    0 -0.64607035061E+02  0.84957124684E+02 -0.68017342206E+02  0.17788519009E+03  0.12500000000E+03 0.  0.
</event>
<event>
 5    0  0.6492597E-005  0.3022927E+03  0.7546771E-02  0.1084100E+00
         21   -1    0    0  502  501  0.00000000000E+00  0.00000000000E+00  0.59145228668E+03  0.59145228668E+03  0.00000000000E+00 0. -1.
         21   -1    0    0  501  502 -0.00000000000E+00 -0.00000000000E+00 -0.15450252582E+03  0.15450252582E+03  0.00000000000E+00 0. -1.
         25    1    1    2    0    0  0.11101413469E+03 -0.46462424849E+02 -0.28565772436E+02  0.17585192174E+03  0.12500000000E+03 0.  0.
         25    1    1    2    0    0 -0.13571408251E+03  0.48386485922E+02  0.20455901194E+03  0.27969439318E+03  0.12500000000E+03 0.  0.
         25    1    1    2    0    0  0.24699947822E+02 -0.19240610735E+01  0.26095652135E+03  0.29040849758E+03  0.12500000000E+03 0.  0.
</event>
<event>
 5    0  0.5612316E-005  0.7604584E+03  0.7546771E-02  0.9619084E-01
         21   -1    0    0  502  501  0.00000000000E+00  0.00000000000E+00  0.69108559655E+03  0.69108559655E+03  0.00000000000E+00 0.  1.
         21   -1    0    0  501  502 -0.00000000000E+00 -0.00000000000E+00 -0.83679496685E+03  0.83679496685E+03  0.00000000000E+00 0.  1.
         25    1    1    2    0    0 -0.62877245180E+03  0.34083007716E+03  0.38086178626E+02  0.72704573078E+03  0.12500000000E+03 0.  0.
         25    1    1    2    0    0  0.35263493425E+03 -0.88320724350E+02 -0.75929912415E+02  0.39184473813E+03  0.12500000000E+03 0.  0.
         25    1    1    2    0    0  0.27613751755E+03 -0.25250935281E+03 -0.10786563651E+03  0.40899009449E+03  0.12500000000E+03 0.  0.
</event>
<event>
 5    0  0.6470591E-005  0.3273501E+03  0.7546771E-02  0.1072315E+00
         21   -1    0    0  502  501  0.00000000000E+00  0.00000000000E+00  0.54246428783E+03  0.54246428783E+03  0.00000000000E+00 0. -1.
         21   -1    0    0  501  502 -0.00000000000E+00 -0.00000000000E+00 -0.19753942459E+03  0.19753942459E+03  0.00000000000E+00 0. -1.
         25    1    1    2    0    0  0.12147072352E+02  0.91165537695E+02  0.37333268640E+03  0.40430310581E+03  0.12500000000E+03 0.  0.
         25    1    1    2    0    0  0.31851057361E+02  0.37311883881E+02 -0.62318591918E+02  0.14803808102E+03  0.12500000000E+03 0.  0.
         25    1    1    2    0    0 -0.43998129713E+02 -0.12847742158E+03  0.33910768748E+02  0.18766252559E+03  0.12500000000E+03 0.  0.
</event>
<event>
 5    0  0.6058103E-005  0.3329478E+03  0.7546771E-02  0.1069840E+00
         21   -1    0    0  502  501  0.00000000000E+00  0.00000000000E+00  0.28390596639E+03  0.28390596639E+03  0.00000000000E+00 0. -1.
         21   -1    0    0  501  502 -0.00000000000E+00 -0.00000000000E+00 -0.39046109773E+03  0.39046109773E+03  0.00000000000E+00 0. -1.
         25    1    1    2    0    0 -0.34263820218E+02 -0.14241092624E+03 -0.16781024686E+03  0.25542153441E+03  0.12500000000E+03 0.  0.
         25    1    1    2    0    0  0.12842381786E+03  0.36261772946E+02 -0.62174829238E+02  0.19312768461E+03  0.12500000000E+03 0.  0.
         25    1    1    2    0    0 -0.94159997641E+02  0.10614915330E+03  0.12342994476E+03  0.22581784510E+03  0.12500000000E+03 0.  0.
</event>
<event>
 5    0  0.5612316E-005  0.3104148E+03  0.7546771E-02  0.1080147E+00
         21   -1    0    0  502  501  0.00000000000E+00  0.00000000000E+00  0.81272733616E+02  0.81272733616E+02  0.00000000000E+00 0.  1.
         21   -1    0    0  501  502 -0.00000000000E+00 -0.00000000000E+00 -0.11856049368E+04  0.11856049368E+04  0.00000000000E+00 0.  1.
         25    1    1    2    0    0  0.52713794328E+02 -0.83326295962E+02 -0.64491421712E+02  0.17177356952E+03  0.12500000000E+03 0.  0.
         25    1    1    2    0    0 -0.51775104175E+02  0.14347615233E+03 -0.49393857667E+03  0.53185184519E+03  0.12500000000E+03 0.  0.
         25    1    1    2    0    0 -0.93869015285E+00 -0.60149856371E+02 -0.54590220480E+03  0.56325225571E+03  0.12500000000E+03 0.  0.
</event>
<event>
 5    0  0.5612316E-005  0.3135575E+03  0.7546771E-02  0.1078653E+00
         21   -1    0    0  502  501  0.00000000000E+00  0.00000000000E+00  0.15338194925E+04  0.15338194925E+04  0.00000000000E+00 0.  1.
         21   -1    0    0  501  502 -0.00000000000E+00 -0.00000000000E+00 -0.64100294781E+02  0.64100294781E+02  0.00000000000E+00 0.  1.
         25    1    1    2    0    0 -0.68133824590E+02  0.25353800361E+01  0.25757213006E+03  0.29430774436E+03  0.12500000000E+03 0.  0.
         25    1    1    2    0    0  0.17715586621E+03  0.47210075173E+02  0.10245844179E+04  0.10483373606E+04  0.12500000000E+03 0.  0.
         25    1    1    2    0    0 -0.10902204162E+03 -0.49745455209E+02  0.18756264973E+03  0.25527468235E+03  0.12500000000E+03 0.  0.
</event>
<event>
 5    0  0.5612316E-005  0.3880257E+03  0.7546771E-02  0.1048007E+00
         21   -1    0    0  502  501  0.00000000000E+00  0.00000000000E+00  0.23058763283E+03  0.23058763283E+03  0.00000000000E+00 0. -1.
         21   -1    0    0  501  502 -0.00000000000E+00 -0.00000000000E+00 -0.65295743623E+03  0.65295743623E+03  0.00000000000E+00 0. -1.
         25    1    1    2    0    0  0.12257238149E+03  0.45105752570E+02 -0.38328347026E+03  0.42378029236E+03  0.12500000000E+03 0.  0.
         25    1    1    2    0    0 -0.79380448558E+02 -0.18575078471E+03 -0.99395706454E+02  0.25750556517E+03  0.12500000000E+03 0.  0.
         25    1    1    2    0    0 -0.43191932928E+02  0.14064503214E+03  0.60309373323E+02  0.20225921152E+03  0.12500000000E+03 0.  0.
</event>
<event>
 5    0  0.5612316E-005  0.3795151E+03  0.7546771E-02  0.1051113E+00
         21   -1    0    0  502  501  0.00000000000E+00  0.00000000000E+00  0.12589221335E+04  0.12589221335E+04  0.00000000000E+00 0. -1.
         21   -1    0    0  501  502 -0.00000000000E+00 -0.00000000000E+00 -0.11440872598E+03  0.11440872598E+03  0.00000000000E+00 0. -1.
         25    1    1    2    0    0 -0.88851385651E+02  0.11966110678E+02  0.95368358003E+03  0.96600990024E+03  0.12500000000E+03 0.  0.
         25    1    1    2    0    0  0.81651911548E+02 -0.10648715152E+03  0.16815339777E+03  0.24881140103E+03  0.12500000000E+03 0.  0.
         25    1    1    2    0    0  0.71994741034E+01  0.94521040846E+02  0.22676429761E+02  0.15850955825E+03  0.12500000000E+03 0.  0.
</event>
<event>
 5    0  0.5612316E-005  0.4461676E+03  0.7546771E-02  0.1028871E+00
         21   -1    0    0  502  501  0.00000000000E+00  0.00000000000E+00  0.59931444951E+03  0.59931444951E+03  0.00000000000E+00 0.  1.
         21   -1    0    0  501  502 -0.00000000000E+00 -0.00000000000E+00 -0.33215543074E+03  0.33215543074E+03  0.00000000000E+00 0.  1.
         25    1    1    2    0    0  0.17777311788E+01  0.18805357234E+03 -0.15366117544E+03  0.27313744386E+03  0.12500000000E+03 0.  0.
         25    1    1    2    0    0 -0.76635815423E+02 -0.10018244122E+03  0.45174763969E+03  0.48539725968E+03  0.12500000000E+03 0.  0.
         25    1    1    2    0    0  0.74858084244E+02 -0.87871131120E+02 -0.30927445476E+02  0.17293517671E+03  0.12500000000E+03 0.  0.
</event>
<event>
 5    0  0.5612316E-005  0.2250786E+03  0.7546771E-02  0.1130152E+00
         21   -1    0    0  502  501  0.00000000000E+00  0.00000000000E+00  0.33770426594E+03  0.33770426594E+03  0.00000000000E+00 0.  1.
         21   -1    0    0  501  502 -0.00000000000E+00 -0.00000000000E+00 -0.15001399563E+03  0.15001399563E+03  0.00000000000E+00 0.  1.
         25    1    1    2    0    0 -0.27452692616E+02 -0.28272796380E+01  0.11382154229E+03  0.17129503008E+03  0.12500000000E+03 0.  0.
         25    1    1    2    0    0  0.90941848612E+02  0.45056215015E+02  0.44990948408E+02  0.16718154138E+03  0.12500000000E+03 0.  0.
         25    1    1    2    0    0 -0.63489155996E+02 -0.42228935377E+02  0.28877779612E+02  0.14924169011E+03  0.12500000000E+03 0.  0.
</event>
<event>
 5    0  0.5629866E-005  0.3070068E+03  0.7546771E-02  0.1081789E+00
         21   -1    0    0  502  501  0.00000000000E+00  0.00000000000E+00  0.36036511400E+03  0.36036511400E+03  0.00000000000E+00 0. -1.
         21   -1    0    0  501  502 -0.00000000000E+00 -0.00000000000E+00 -0.26154914531E+03  0.26154914531E+03  0.00000000000E+00 0. -1.
         25    1    1    2    0    0  0.78330653047E+02  0.13450930803E+03 -0.11387291813E+02  0.19995778447E+03  0.12500000000E+03 0.  0.
         25    1    1    2    0    0 -0.79942105716E+02 -0.15295771446E+03 -0.49037290232E+02  0.21866974759E+03  0.12500000000E+03 0.  0.
         25    1    1    2    0    0  0.16114526690E+01  0.18448406427E+02  0.15924055073E+03  0.20328672725E+03  0.12500000000E+03 0.  0.
</event>
<event>
 5    0  0.5612316E-005  0.2708300E+03  0.7546771E-02  0.1100805E+00
         21   -1    0    0  502  501  0.00000000000E+00  0.00000000000E+00  0.15133973147E+04  0.15133973147E+04  0.00000000000E+00 0. -1.
         21   -1    0    0  501  502 -0.00000000000E+00 -0.00000000000E+00 -0.48466390753E+02  0.48466390753E+02  0.00000000000E+00 0. -1.
         25    1    1    2    0    0 -0.68554561187E+01 -0.15580447406E+03  0.49278594177E+03  0.53177534338E+03  0.12500000000E+03 0.  0.
         25    1    1    2    0    0  0.40500223091E+02  0.16198951531E+03  0.65777510858E+03  0.69005359546E+03  0.12500000000E+03 0.  0.
         25    1    1    2    0    0 -0.33644766972E+02 -0.61850412497E+01  0.31436987356E+03  0.34003476658E+03  0.12500000000E+03 0.  0.
</event>
<event>
 5    0  0.5612316E-005  0.2621259E+03  0.7546771E-02  0.1105873E+00
         21   -1    0    0  502  501  0.00000000000E+00  0.00000000000E+00  0.19097940294E+03  0.19097940294E+03  0.00000000000E+00 0.  1.
         21   -1    0    0  501  502 -0.00000000000E+00 -0.00000000000E+00 -0.35977699997E+03  0.35977699997E+03  0.00000000000E+00 0.  1.
         25    1    1    2    0    0 -0.40247982289E+02  0.83401778170E+02  0.55196855971E+01  0.15566381599E+03  0.12500000000E+03 0.  0.
         25    1    1    2    0    0 -0.79282554314E+02 -0.87046894733E+02 -0.13308840021E+03  0.21725654783E+03  0.12500000000E+03 0.  0.
         25    1    1    2    0    0  0.11953053660E+03  0.36451165637E+01 -0.41228882412E+02  0.17783603909E+03  0.12500000000E+03 0.  0.
</event>
<event>
 5    0  0.5612316E-005  0.2882350E+03  0.7546771E-02  0.1091274E+00
         21   -1    0    0  502  501  0.00000000000E+00  0.00000000000E+00  0.90600479489E+02  0.90600479489E+02  0.00000000000E+00 0. -1.
         21   -1    0    0  501  502 -0.00000000000E+00 -0.00000000000E+00 -0.91698639605E+03  0.91698639605E+03  0.00000000000E+00 0. -1.
         25    1    1    2    0    0 -0.19128233467E+03  0.72459454121E+02 -0.34538407497E+03  0.42042176834E+03  0.12500000000E+03 0.  0.
         25    1    1    2    0    0  0.12697317690E+03 -0.44938925689E+02 -0.19897127866E+03  0.27084361618E+03  0.12500000000E+03 0.  0.
         25    1    1    2    0    0  0.64309157770E+02 -0.27520528432E+02 -0.28203056292E+03  0.31632149102E+03  0.12500000000E+03 0.  0.
</event>
<event>
 5    0  0.5612316E-005  0.3500000E+03  0.7546771E-02  0.1062615E+00
         21   -1    0    0  502  501  0.00000000000E+00  0.00000000000E+00  0.11797365180E+04  0.11797365180E+04  0.00000000000E+00 0.  1.
         21   -1    0    0  501  502 -0.00000000000E+00 -0.00000000000E+00 -0.10383673037E+03  0.10383673037E+03  0.00000000000E+00 0.  1.
         25    1    1    2    0    0  0.13134296281E+03  0.51596088038E+02  0.21906116627E+03  0.28900852020E+03  0.12500000000E+03 0.  0.
         25    1    1    2    0    0  0.14553749484E+03 -0.36197798885E+02  0.40878901280E+03  0.45301754937E+03  0.12500000000E+03 0.  0.
         25    1    1    2    0    0 -0.27688045765E+03 -0.15398289153E+02  0.44804960859E+03  0.54154717882E+03  0.12500000000E+03 0.  0.
</event>
<event>
 5    0  0.5612316E-005  0.4717316E+03  0.7546771E-02  0.1021433E+00
         21   -1    0    0  502  501  0.00000000000E+00  0.00000000000E+00  0.57937007649E+03  0.57937007649E+03  0.00000000000E+00 0.  1.
         21   -1    0    0  501  502 -0.00000000000E+00 -0.00000000000E+00 -0.38409079234E+03  0.38409079234E+03  0.00000000000E+00 0.  1.
         25    1    1    2    0    0 -0.14429291243E+02 -0.19855467868E+03  0.11270713880E+03  0.26069151119E+03  0.12500000000E+03 0.  0.
         25    1    1    2    0    0 -0.21246236078E+03 -0.62046834690E+02 -0.12227954118E+03  0.28207685235E+03  0.12500000000E+03 0.  0.
         25    1    1    2    0    0  0.22689165202E+03  0.26060151337E+03  0.20485168653E+03  0.42069250528E+03  0.12500000000E+03 0.  0.
</event>
<event>
 5    0  0.5612316E-005  0.2602519E+03  0.7546771E-02  0.1106992E+00
         21   -1    0    0  502  501  0.00000000000E+00  0.00000000000E+00  0.69074480155E+03  0.69074480155E+03  0.00000000000E+00 0. -1.
         21   -1    0    0  501  502 -0.00000000000E+00 -0.00000000000E+00 -0.98055077772E+02  0.98055077772E+02  0.00000000000E+00 0. -1.
         25    1    1    2    0    0  0.66006577837E+02 -0.14401664751E+02  0.88177639767E+02  0.16722611166E+03  0.12500000000E+03 0.  0.
         25    1    1    2    0    0 -0.14745887022E+03 -0.24877470311E+02  0.36399981197E+03  0.41289692424E+03  0.12500000000E+03 0.  0.
         25    1    1    2    0    0  0.81452292384E+02  0.39279135062E+02  0.14051227204E+03  0.20867684342E+03  0.12500000000E+03 0.  0.
</event>
<event>
 5    0  0.5612316E-005  0.2453662E+03  0.7546771E-02  0.1116269E+00
         21   -1    0    0  502  501  0.00000000000E+00  0.00000000000E+00  0.20248505255E+02  0.20248505255E+02  0.00000000000E+00 0.  1.
         21   -1    0    0  501  502 -0.00000000000E+00 -0.00000000000E+00 -0.29732857457E+04  0.29732857457E+04  0.00000000000E+00 0.  1.
         25    1    1    2    0    0 -0.80026087582E+01 -0.28034930783E+01 -0.29387249076E+03  0.31946508752E+03  0.12500000000E+03 0.  0.
         25    1    1    2    0    0 -0.54625017201E+02  0.23207250765E+02 -0.11465914381E+04  0.11549109901E+04  0.12500000000E+03 0.  0.
         25    1    1    2    0    0  0.62627625960E+02 -0.20403757686E+02 -0.15125733115E+04  0.15191581734E+04  0.12500000000E+03 0.  0.
</event>
<event>
 5    0  0.5612316E-005  0.2217491E+03  0.7546771E-02  0.1132586E+00
         21   -1    0    0  502  501  0.00000000000E+00  0.00000000000E+00  0.25030824126E+03  0.25030824126E+03  0.00000000000E+00 0. -1.
         21   -1    0    0  501  502 -0.00000000000E+00 -0.00000000000E+00 -0.19644846118E+03  0.19644846118E+03  0.00000000000E+00 0. -1.
         25    1    1    2    0    0  0.98333766565E+02 -0.18885255065E+02  0.50600693971E+02  0.16796312910E+03  0.12500000000E+03 0.  0.
         25    1    1    2    0    0 -0.49569283914E+02  0.19173255828E+02 -0.33048585720E+02  0.13979247714E+03  0.12500000000E+03 0.  0.
         25    1    1    2    0    0 -0.48764482651E+02 -0.28800076298E+00  0.36307671822E+02  0.13900109620E+03  0.12500000000E+03 0.  0.
</event>
<event>
 5    0  0.5612316E-005  0.4789521E+03  0.7546771E-02  0.1019424E+00
         21   -1    0    0  502  501  0.00000000000E+00  0.00000000000E+00  0.79855227621E+03  0.79855227621E+03  0.00000000000E+00 0.  1.
         21   -1    0    0  501  502 -0.00000000000E+00 -0.00000000000E+00 -0.28726368425E+03  0.28726368425E+03  0.00000000000E+00 0.  1.
         25    1    1    2    0    0  0.16728463161E+03  0.25401337480E+03  0.24994720093E+03  0.41304424194E+03  0.12500000000E+03 0.  0.
         25    1    1    2    0    0 -0.85379622566E+02  0.12142482154E+03  0.17113133171E+03  0.25873654541E+03  0.12500000000E+03 0.  0.
         25    1    1    2    0    0 -0.81905009045E+02 -0.37543819633E+03  0.90210059311E+02  0.41403517311E+03  0.12500000000E+03 0.  0.
</event>
<event>
 5    0  0.5612316E-005  0.2737478E+03  0.7546771E-02  0.1099154E+00
         21   -1    0    0  502  501  0.00000000000E+00  0.00000000000E+00  0.40359772529E+03  0.40359772529E+03  0.00000000000E+00 0.  1.
         21   -1    0    0  501  502 -0.00000000000E+00 -0.00000000000E+00 -0.18567457650E+03  0.18567457650E+03  0.00000000000E+00 0.  1.
         25    1    1    2    0    0  0.90716520658E+01 -0.64493980383E+02 -0.20604227395E+02  0.14244754320E+03  0.12500000000E+03 0.  0.
         25    1    1    2    0    0 -0.79530301038E+02  0.80030879885E+02  0.25067923499E+03  0.30198524695E+03  0.12500000000E+03 0.  0.
         25    1    1    2    0    0  0.70458648972E+02 -0.15536899502E+02 -0.12151858807E+02  0.14483951165E+03  0.12500000000E+03 0.  0.
</event>
<event>
 5    0  0.5612316E-005  0.2939895E+03  0.7546771E-02  0.1088284E+00
         21   -1    0    0  502  501  0.00000000000E+00  0.00000000000E+00  0.14450075087E+03  0.14450075087E+03  0.00000000000E+00 0.  1.
         21   -1    0    0  501  502 -0.00000000000E+00 -0.00000000000E+00 -0.59812697487E+03  0.59812697487E+03  0.00000000000E+00 0.  1.
         25    1    1    2    0    0 -0.14767317395E+03  0.10297227516E+03 -0.24721403529E+03  0.33037922907E+03  0.12500000000E+03 0.  0.
         25    1    1    2    0    0  0.14482916513E+03 -0.10952579480E+03 -0.80506222098E+02  0.23468625566E+03  0.12500000000E+03 0.  0.
         25    1    1    2    0    0  0.28440088181E+01  0.65535196465E+01 -0.12590596660E+03  0.17756224101E+03  0.12500000000E+03 0.  0.
</event>
<event>
 5    0  0.5612316E-005  0.3671233E+03  0.7546771E-02  0.1055798E+00
         21   -1    0    0  502  501  0.00000000000E+00  0.00000000000E+00  0.64847347844E+02  0.64847347844E+02  0.00000000000E+00 0.  1.
         21   -1    0    0  501  502 -0.00000000000E+00 -0.00000000000E+00 -0.20784117288E+04  0.20784117288E+04  0.00000000000E+00 0.  1.
         25    1    1    2    0    0 -0.11239445365E+03 -0.13143790374E+03 -0.10799817115E+04  0.11008605420E+04  0.12500000000E+03 0.  0.
         25    1    1    2    0    0  0.60662121422E+02  0.39560037989E+02 -0.84333068301E+03  0.85561470913E+03  0.12500000000E+03 0.  0.
         25    1    1    2    0    0  0.51732332233E+02  0.91877865752E+02 -0.90251986435E+02  0.18678382550E+03  0.12500000000E+03 0.  0.
</event>
<event>
 5    0  0.5726089E-005  0.2677933E+03  0.7546771E-02  0.1102549E+00
         21   -1    0    0  502  501  0.00000000000E+00  0.00000000000E+00  0.51627322584E+03  0.51627322584E+03  0.00000000000E+00 0. -1.
         21   -1    0    0  501  502 -0.00000000000E+00 -0.00000000000E+00 -0.13890565554E+03  0.13890565554E+03  0.00000000000E+00 0. -1.
         25    1    1    2    0    0 -0.71391172442E+02  0.30622659771E+01  0.76249648714E+02  0.16292662737E+03  0.12500000000E+03 0.  0.
         25    1    1    2    0    0  0.16278532558E+03  0.71230905779E+02  0.17936652031E+03  0.28172726664E+03  0.12500000000E+03 0.  0.
         25    1    1    2    0    0 -0.91394153135E+02 -0.74293171756E+02  0.12175140128E+03  0.21052498738E+03  0.12500000000E+03 0.  0.
</event>
<event>
 5    0  0.5612316E-005  0.4635970E+03  0.7546771E-02  0.1023743E+00
         21   -1    0    0  502  501  0.00000000000E+00  0.00000000000E+00  0.30149419212E+03  0.30149419212E+03  0.00000000000E+00 0. -1.
         21   -1    0    0  501  502 -0.00000000000E+00 -0.00000000000E+00 -0.71285676325E+03  0.71285676325E+03  0.00000000000E+00 0. -1.
         25    1    1    2    0    0 -0.20671738850E+03 -0.18990487642E+03 -0.35678505064E+03  0.47086782982E+03  0.12500000000E+03 0.  0.
         25    1    1    2    0    0  0.20428121487E+03 -0.53564337203E+02  0.50073714542E+02  0.25046422870E+03  0.12500000000E+03 0.  0.
         25    1    1    2    0    0  0.24361736241E+01  0.24346921362E+03 -0.10465123503E+03  0.29301889686E+03  0.12500000000E+03 0.  0.
</event>
<event>
 5    0  0.5612316E-005  0.4000840E+03  0.7546771E-02  0.1043751E+00
         21   -1    0    0  502  501  0.00000000000E+00  0.00000000000E+00  0.34023803166E+03  0.34023803166E+03  0.00000000000E+00 0. -1.
         21   -1    0    0  501  502 -0.00000000000E+00 -0.00000000000E+00 -0.47045647232E+03  0.47045647232E+03  0.00000000000E+00 0. -1.
         25    1    1    2    0    0 -0.30881258708E+01 -0.22000003148E+03  0.48779780321E+02  0.25770917201E+03  0.12500000000E+03 0.  0.
         25    1    1    2    0    0  0.10128855714E+03  0.25939261337E+03  0.68032027522E+01  0.30531161662E+03  0.12500000000E+03 0.  0.
         25    1    1    2    0    0 -0.98200431264E+02 -0.39392581886E+02 -0.18580142374E+03  0.24767371534E+03  0.12500000000E+03 0.  0.
</event>
<event>
 5    0  0.5612316E-005  0.4394761E+03  0.7546771E-02  0.1030908E+00
         21   -1    0    0  502  501  0.00000000000E+00  0.00000000000E+00  0.24073451407E+03  0.24073451407E+03  0.00000000000E+00 0.  1.
         21   -1    0    0  501  502 -0.00000000000E+00 -0.00000000000E+00 -0.80229129761E+03  0.80229129761E+03  0.00000000000E+00 0.  1.
         25    1    1    2    0    0  0.11401345662E+03  0.13983097927E+03 -0.79240680022E+02  0.23335778629E+03  0.12500000000E+03 0.  0.
         25    1    1    2    0    0 -0.12352547751E+03 -0.11681127227E+02 -0.57955343093E+03  0.60572450143E+03  0.12500000000E+03 0.  0.
         25    1    1    2    0    0  0.95120208909E+01 -0.12814985204E+03  0.97237327416E+02  0.20394352395E+03  0.12500000000E+03 0.  0.
</event>
<event>
 5    0  0.5612316E-005  0.3219991E+03  0.7546771E-02  0.1074733E+00
         21   -1    0    0  502  501  0.00000000000E+00  0.00000000000E+00  0.18772295830E+03  0.18772295830E+03  0.00000000000E+00 0. -1.
         21   -1    0    0  501  502 -0.00000000000E+00 -0.00000000000E+00 -0.55232136549E+03  0.55232136549E+03  0.00000000000E+00 0. -1.
         25    1    1    2    0    0 -0.12130071212E+03 -0.13170660313E+03 -0.89653628863E+02  0.23605775827E+03  0.12500000000E+03 0.  0.
         25    1    1    2    0    0  0.16979219845E+03  0.43786197650E+02 -0.39189219641E+02  0.21887762950E+03  0.12500000000E+03 0.  0.
         25    1    1    2    0    0 -0.48491486321E+02  0.87920405485E+02 -0.23575555869E+03  0.28510893602E+03  0.12500000000E+03 0.  0.
</event>
<event>
 5    0  0.5612316E-005  0.2712275E+03  0.7546771E-02  0.1100579E+00
         21   -1    0    0  502  501  0.00000000000E+00  0.00000000000E+00  0.30884977817E+03  0.30884977817E+03  0.00000000000E+00 0.  1.
         21   -1    0    0  501  502 -0.00000000000E+00 -0.00000000000E+00 -0.23818812223E+03  0.23818812223E+03  0.00000000000E+00 0.  1.
         25    1    1    2    0    0 -0.23550878212E+01  0.79889744669E+02  0.35502175290E+02  0.15255596413E+03  0.12500000000E+03 0.  0.
         25    1    1    2    0    0  0.12473106826E+03  0.17591306755E+02  0.70825784621E+02  0.19107219900E+03  0.12500000000E+03 0.  0.
         25    1    1    2    0    0 -0.12237598044E+03 -0.97481051425E+02 -0.35666303972E+02  0.20340973727E+03  0.12500000000E+03 0.  0.
</event>
<event>
 5    0  0.6377528E-005  0.5799020E+03  0.7546771E-02  0.9948003E-01
         21   -1    0    0  502  501  0.00000000000E+00  0.00000000000E+00  0.50121022912E+03  0.50121022912E+03  0.00000000000E+00 0.  1.
         21   -1    0    0  501  502 -0.00000000000E+00 -0.00000000000E+00 -0.67094860405E+03  0.67094860405E+03  0.00000000000E+00 0.  1.
         25    1    1    2    0    0  0.27095574583E+03  0.11532181061E+02  0.29862097129E+03  0.42231444670E+03  0.12500000000E+03 0.  0.
         25    1    1    2    0    0 -0.34755782324E+03  0.23203529439E+02 -0.15322584088E+03  0.40054712905E+03  0.12500000000E+03 0.  0.
         25    1    1    2    0    0  0.76602077413E+02 -0.34735710500E+02 -0.31513350534E+03  0.34929725741E+03  0.12500000000E+03 0.  0.
</event>
<event>
 5    0  0.5612316E-005  0.3422095E+03  0.7546771E-02  0.1065859E+00
         21   -1    0    0  502  501  0.00000000000E+00  0.00000000000E+00  0.49189584721E+03  0.49189584721E+03  0.00000000000E+00 0. -1.
         21   -1    0    0  501  502 -0.00000000000E+00 -0.00000000000E+00 -0.23807339886E+03  0.23807339886E+03  0.00000000000E+00 0. -1.
         25    1    1    2    0    0 -0.16860440218E+03 -0.33270384675E+01 -0.56427022746E+02  0.21736495236E+03  0.12500000000E+03 0.  0.
         25    1    1    2    0    0  0.57476417340E+02  0.13603808649E+03  0.16599720960E+03  0.25493131059E+03  0.12500000000E+03 0.  0.
         25    1    1    2    0    0  0.11112798484E+03 -0.13271104802E+03  0.14425226149E+03  0.25767298312E+03  0.12500000000E+03 0.  0.
</event>
<event>
 5    0  0.5612316E-005  0.2855765E+03  0.7546771E-02  0.1092682E+00
         21   -1    0    0  502  501  0.00000000000E+00  0.00000000000E+00  0.89796536388E+03  0.89796536388E+03  0.00000000000E+00 0. -1.
         21   -1    0    0  501  502 -0.00000000000E+00 -0.00000000000E+00 -0.90820782164E+02  0.90820782164E+02  0.00000000000E+00 0. -1.
         25    1    1    2    0    0  0.46602406242E+02 -0.82549600261E+02  0.31062920899E+03  0.34799673310E+03  0.12500000000E+03 0.  0.
         25    1    1    2    0    0 -0.12771240349E+03  0.14254582305E+03  0.20080210681E+03  0.30426346441E+03  0.12500000000E+03 0.  0.
         25    1    1    2    0    0  0.81109997244E+02 -0.59996222786E+02  0.29571326591E+03  0.33652594854E+03  0.12500000000E+03 0.  0.
</event>
<event>
 5    0  0.5917509E-005  0.2670357E+03  0.7546771E-02  0.1102988E+00
         21   -1    0    0  502  501  0.00000000000E+00  0.00000000000E+00  0.40954364255E+03  0.40954364255E+03  0.00000000000E+00 0.  1.
         21   -1    0    0  501  502 -0.00000000000E+00 -0.00000000000E+00 -0.17411592427E+03  0.17411592427E+03  0.00000000000E+00 0.  1.
         25    1    1    2    0    0  0.48531859914E+02  0.14761092393E+03  0.17427193476E+03  0.26483963739E+03  0.12500000000E+03 0.  0.
         25    1    1    2    0    0 -0.72045617194E+02 -0.58669670492E+02  0.12878988692E+02  0.15628041957E+03  0.12500000000E+03 0.  0.
         25    1    1    2    0    0  0.23513757280E+02 -0.88941253443E+02  0.48276794835E+02  0.16253950986E+03  0.12500000000E+03 0.  0.
</event>
<event>
 5    0  0.5612316E-005  0.3133161E+03  0.7546771E-02  0.1078767E+00
         21   -1    0    0  502  501  0.00000000000E+00  0.00000000000E+00  0.29483921712E+03  0.29483921712E+03  0.00000000000E+00 0.  1.
         21   -1    0    0  501  502 -0.00000000000E+00 -0.00000000000E+00 -0.33295089742E+03  0.33295089742E+03  0.00000000000E+00 0.  1.
         25    1    1    2    0    0 -0.91151978278E+02  0.53585306524E+01 -0.88035646331E+02  0.17808052117E+03  0.12500000000E+03 0.  0.
         25    1    1    2    0    0  0.53937953923E+02 -0.17858315277E+03  0.60672965267E+02  0.23261009015E+03  0.12500000000E+03 0.  0.
         25    1    1    2    0    0  0.37214024355E+02  0.17322462212E+03 -0.10748999238E+02  0.21709950323E+03  0.12500000000E+03 0.  0.
</event>
<event>
 5    0  0.5612316E-005  0.4319191E+03  0.7546771E-02  0.1033255E+00
         21   -1    0    0  502  501  0.00000000000E+00  0.00000000000E+00  0.12443752602E+04  0.12443752602E+04  0.00000000000E+00 0.  1.
         21   -1    0    0  501  502 -0.00000000000E+00 -0.00000000000E+00 -0.14991791224E+03  0.14991791224E+03  0.00000000000E+00 0.  1.
         25    1    1    2    0    0 -0.25876736159E+03 -0.19425151508E+03  0.33642148571E+03  0.48321694361E+03  0.12500000000E+03 0.  0.
         25    1    1    2    0    0  0.23356546769E+02  0.20166153476E+03  0.34062760868E+03  0.41577045431E+03  0.12500000000E+03 0.  0.
         25    1    1    2    0    0  0.23541081483E+03 -0.74100196790E+01  0.41740825357E+03  0.49530577452E+03  0.12500000000E+03 0.  0.
</event>
<event>
 5    0  0.5612316E-005  0.3015312E+03  0.7546771E-02  0.1084478E+00
         21   -1    0    0  502  501  0.00000000000E+00  0.00000000000E+00  0.70463492127E+03  0.70463492127E+03  0.00000000000E+00 0.  1.
         21   -1    0    0  501  502 -0.00000000000E+00 -0.00000000000E+00 -0.12903289235E+03  0.12903289235E+03  0.00000000000E+00 0.  1.
         25    1    1    2    0    0  0.14311904758E+03 -0.13339822306E+03  0.18090412034E+03  0.29432881009E+03  0.12500000000E+03 0.  0.
         25    1    1    2    0    0 -0.78277715846E+02  0.15704404093E+03  0.29454854812E+03  0.36493023825E+03  0.12500000000E+03 0.  0.
         25    1    1    2    0    0 -0.64841331731E+02 -0.23645817866E+02  0.10014936047E+03  0.17440876528E+03  0.12500000000E+03 0.  0.
</event>
<event>
 5    0  0.5612316E-005  0.3765278E+03  0.7546771E-02  0.1052225E+00
         21   -1    0    0  502  501  0.00000000000E+00  0.00000000000E+00  0.20080794731E+03  0.20080794731E+03  0.00000000000E+00 0. -1.
         21   -1    0    0  501  502 -0.00000000000E+00 -0.00000000000E+00 -0.70601399687E+03  0.70601399687E+03  0.00000000000E+00 0. -1.
         25    1    1    2    0    0 -0.49690482337E+02  0.20005406838E+03 -0.14041460063E+03  0.27898393212E+03  0.12500000000E+03 0.  0.
         25    1    1    2    0    0 -0.87368147858E+01  0.20493695774E+02  0.51439177939E+02  0.13699384120E+03  0.12500000000E+03 0.  0.
         25    1    1    2    0    0  0.58427297123E+02 -0.22054776415E+03 -0.41623062688E+03  0.49084417087E+03  0.12500000000E+03 0.  0.
</event>
<event>
 5    0  0.5612316E-005  0.3244071E+03  0.7546771E-02  0.1073639E+00
         21   -1    0    0  502  501  0.00000000000E+00  0.00000000000E+00  0.23978735662E+03  0.23978735662E+03  0.00000000000E+00 0.  1.
         21   -1    0    0  501  502 -0.00000000000E+00 -0.00000000000E+00 -0.43888883294E+03  0.43888883294E+03  0.00000000000E+00 0.  1.
         25    1    1    2    0    0 -0.10430971256E+03  0.14853496503E+03 -0.72088128043E+01  0.22049970284E+03  0.12500000000E+03 0.  0.
         25    1    1    2    0    0  0.89099009499E+02 -0.80435308158E+02 -0.24956781005E+03  0.30383805572E+03  0.12500000000E+03 0.  0.
         25    1    1    2    0    0  0.15210703060E+02 -0.68099656873E+02  0.57675146540E+02  0.15433843100E+03  0.12500000000E+03 0.  0.
</event>
<event>
 5    0  0.5612316E-005  0.2608579E+03  0.7546771E-02  0.1106629E+00
         21   -1    0    0  502  501  0.00000000000E+00  0.00000000000E+00  0.13132791862E+03  0.13132791862E+03  0.00000000000E+00 0. -1.
         21   -1    0    0  501  502 -0.00000000000E+00 -0.00000000000E+00 -0.51814447797E+03  0.51814447797E+03  0.00000000000E+00 0. -1.
         25    1    1    2    0    0 -0.13288847352E+03  0.88301308381E+02 -0.10378013196E+03  0.22770986638E+03  0.12500000000E+03 0.  0.
         25    1    1    2    0    0  0.35059289666E+02 -0.58598173517E+02 -0.83645716182E+02  0.16518022148E+03  0.12500000000E+03 0.  0.
         25    1    1    2    0    0  0.97829183857E+02 -0.29703134864E+02 -0.19939071121E+03  0.25658230873E+03  0.12500000000E+03 0.  0.
</event>
<event>
 5    0  0.5612316E-005  0.2322682E+03  0.7546771E-02  0.1125053E+00
         21   -1    0    0  502  501  0.00000000000E+00  0.00000000000E+00  0.22128180999E+03  0.22128180999E+03  0.00000000000E+00 0. -1.
         21   -1    0    0  501  502 -0.00000000000E+00 -0.00000000000E+00 -0.24380005934E+03  0.24380005934E+03  0.00000000000E+00 0. -1.
         25    1    1    2    0    0  0.54851922960E+02  0.36968503362E+02  0.71310131705E+02  0.15838414876E+03  0.12500000000E+03 0.  0.
         25    1    1    2    0    0 -0.24285855674E+02 -0.45310422108E+02 -0.11319586545E+03  0.17629844325E+03  0.12500000000E+03 0.  0.
         25    1    1    2    0    0 -0.30566067286E+02  0.83419187456E+01  0.19367484393E+02  0.13039927733E+03  0.12500000000E+03 0.  0.
</event>
<event>
 5    0  0.5612316E-005  0.2571298E+03  0.7546771E-02  0.1108880E+00
         21   -1    0    0  502  501  0.00000000000E+00  0.00000000000E+00  0.97797676770E+03  0.97797676770E+03  0.00000000000E+00 0. -1.
         21   -1    0    0  501  502 -0.00000000000E+00 -0.00000000000E+00 -0.67604590518E+02  0.67604590518E+02  0.00000000000E+00 0. -1.
         25    1    1    2    0    0 -0.26065706625E+02 -0.36148088997E+02  0.32619060049E+03  0.35215254258E+03  0.12500000000E+03 0.  0.
         25    1    1    2    0    0  0.50183144353E+01 -0.98874489963E+02  0.14003766033E+03  0.21221897784E+03  0.12500000000E+03 0.  0.
         25    1    1    2    0    0  0.21047392190E+02  0.13502257896E+03  0.44414391637E+03  0.48120983780E+03  0.12500000000E+03 0.  0.
</event>
<event>
 5    0  0.5612316E-005  0.2609727E+03  0.7546771E-02  0.1106560E+00
         21   -1    0    0  502  501  0.00000000000E+00  0.00000000000E+00  0.10544019515E+04  0.10544019515E+04  0.00000000000E+00 0.  1.
         21   -1    0    0  501  502 -0.00000000000E+00 -0.00000000000E+00 -0.64592758190E+02  0.64592758190E+02  0.00000000000E+00 0.  1.
         25    1    1    2    0    0  0.45109191986E+02  0.51455030147E+02  0.40184555648E+03  0.42636523145E+03  0.12500000000E+03 0.  0.
         25    1    1    2    0    0 -0.49714616564E+02  0.67717900492E+02  0.44033785683E+03  0.46538122578E+03  0.12500000000E+03 0.  0.
         25    1    1    2    0    0  0.46054245774E+01 -0.11917293064E+03  0.14762578004E+03  0.22724825250E+03  0.12500000000E+03 0.  0.
</event>
<event>
 5    0  0.5612316E-005  0.2816275E+03  0.7546771E-02  0.1094803E+00
         21   -1    0    0  502  501  0.00000000000E+00  0.00000000000E+00  0.40834546524E+03  0.40834546524E+03  0.00000000000E+00 0. -1.
         21   -1    0    0  501  502 -0.00000000000E+00 -0.00000000000E+00 -0.19423269744E+03  0.19423269744E+03  0.00000000000E+00 0. -1.
         25    1    1    2    0    0 -0.40587511093E+02 -0.50122423474E+02  0.11853007103E+03  0.18394015639E+03  0.12500000000E+03 0.  0.
         25    1    1    2    0    0  0.14339048839E+03 -0.66460321349E+02  0.10462004911E+02  0.20177279306E+03  0.12500000000E+03 0.  0.
         25    1    1    2    0    0 -0.10280297730E+03  0.11658274482E+03  0.85120691853E+02  0.21686521324E+03  0.12500000000E+03 0.  0.
</event>
<event>
 5    0  0.5612316E-005  0.5622628E+03  0.7546771E-02  0.9986948E-01
         21   -1    0    0  502  501  0.00000000000E+00  0.00000000000E+00  0.22300105749E+03  0.22300105749E+03  0.00000000000E+00 0. -1.
         21   -1    0    0  501  502 -0.00000000000E+00 -0.00000000000E+00 -0.14176588126E+04  0.14176588126E+04  0.00000000000E+00 0. -1.
         25    1    1    2    0    0 -0.12837949059E+03  0.16817868435E+03 -0.19926981528E+03  0.31638397993E+03  0.12500000000E+03 0.  0.
         25    1    1    2    0    0  0.27645642138E+03 -0.22354394173E+03 -0.10499068395E+04  0.11154951449E+04  0.12500000000E+03 0.  0.
         25    1    1    2    0    0 -0.14807693080E+03  0.55365257380E+02  0.54518899649E+02  0.20878074523E+03  0.12500000000E+03 0.  0.
</event>
<event>
 5    0  0.5612316E-005  0.2928914E+03  0.7546771E-02  0.1088849E+00
         21   -1    0    0  502  501  0.00000000000E+00  0.00000000000E+00  0.21606967833E+03  0.21606967833E+03  0.00000000000E+00 0.  1.
         21   -1    0    0  501  502 -0.00000000000E+00 -0.00000000000E+00 -0.39702644484E+03  0.39702644484E+03  0.00000000000E+00 0.  1.
         25    1    1    2    0    0  0.29978786418E+02 -0.37631791763E+02 -0.95459855063E+02  0.16447633056E+03  0.12500000000E+03 0.  0.
         25    1    1    2    0    0  0.44422213306E+01 -0.16034300087E+03 -0.30133573052E+02  0.20557880115E+03  0.12500000000E+03 0.  0.
         25    1    1    2    0    0 -0.34421007748E+02  0.19797479263E+03 -0.55363338403E+02  0.24304099146E+03  0.12500000000E+03 0.  0.
</event>
<event>
 5    0  0.5612316E-005  0.2378835E+03  0.7546771E-02  0.1121211E+00
         21   -1    0    0  502  501  0.00000000000E+00  0.00000000000E+00  0.42088094445E+02  0.42088094445E+02  0.00000000000E+00 0.  1.
         21   -1    0    0  501  502 -0.00000000000E+00 -0.00000000000E+00 -0.13445263295E+04  0.13445263295E+04  0.00000000000E+00 0.  1.
         25    1    1    2    0    0 -0.23364202718E+02 -0.48468667761E+02 -0.29603653668E+03  0.32581855192E+03  0.12500000000E+03 0.  0.
         25    1    1    2    0    0 -0.80040326450E+02  0.82060634027E+02 -0.49956920532E+03  0.52757444253E+03  0.12500000000E+03 0.  0.
         25    1    1    2    0    0  0.10340452917E+03 -0.33591966266E+02 -0.50683249302E+03  0.53322142945E+03  0.12500000000E+03 0.  0.
</event>
<event>
 5    0  0.5612316E-005  0.2700727E+03  0.7546771E-02  0.1101238E+00
         21   -1    0    0  502  501  0.00000000000E+00  0.00000000000E+00  0.59625225271E+03  0.59625225271E+03  0.00000000000E+00 0. -1.
         21   -1    0    0  501  502 -0.00000000000E+00 -0.00000000000E+00 -0.12232952487E+03  0.12232952487E+03  0.00000000000E+00 0. -1.
         25    1    1    2    0    0 -0.89437970908E+02 -0.86018717054E+02  0.24744242738E+03  0.30372870327E+03  0.12500000000E+03 0.  0.
         25    1    1    2    0    0  0.54198565436E+02 -0.12335569317E+01  0.21936104607E+03  0.25823104905E+03  0.12500000000E+03 0.  0.
         25    1    1    2    0    0  0.35239405472E+02  0.87252273985E+02  0.71192543890E+01  0.15662202526E+03  0.12500000000E+03 0.  0.
</event>
<event>
 5    0  0.5612316E-005  0.2534474E+03  0.7546771E-02  0.1111145E+00
         21   -1    0    0  502  501  0.00000000000E+00  0.00000000000E+00  0.24019757187E+03  0.24019757187E+03  0.00000000000E+00 0. -1.
         21   -1    0    0  501  502 -0.00000000000E+00 -0.00000000000E+00 -0.26742815395E+03  0.26742815395E+03  0.00000000000E+00 0. -1.
         25    1    1    2    0    0 -0.85838169500E+02  0.19356893485E+02 -0.39367987747E+02  0.15785347360E+03  0.12500000000E+03 0.  0.
         25    1    1    2    0    0 -0.53773596043E+02 -0.72635044024E+02  0.14588818023E+02  0.15493638328E+03  0.12500000000E+03 0.  0.
         25    1    1    2    0    0  0.13961176554E+03  0.53278150539E+02 -0.24514123518E+01  0.19483586894E+03  0.12500000000E+03 0.  0.
</event>
<event>
 5    0  0.5612316E-005  0.2911843E+03  0.7546771E-02  0.1089732E+00
         21   -1    0    0  502  501  0.00000000000E+00  0.00000000000E+00  0.16562797355E+03  0.16562797355E+03  0.00000000000E+00 0. -1.
         21   -1    0    0  501  502 -0.00000000000E+00 -0.00000000000E+00 -0.51192009092E+03  0.51192009092E+03  0.00000000000E+00 0. -1.
         25    1    1    2    0    0 -0.52384147700E+02 -0.12568438929E+03 -0.38376189278E+02  0.18878134586E+03  0.12500000000E+03 0.  0.
         25    1    1    2    0    0  0.98611849515E+02  0.53462439910E+02 -0.27758937548E+02  0.17022951554E+03  0.12500000000E+03 0.  0.
         25    1    1    2    0    0 -0.46227701815E+02  0.72221949385E+02 -0.28015699054E+03  0.31853720306E+03  0.12500000000E+03 0.  0.
</event>
<event>
 5    0  0.5612316E-005  0.2834243E+03  0.7546771E-02  0.1093833E+00
         21   -1    0    0  502  501  0.00000000000E+00  0.00000000000E+00  0.10322495746E+03  0.10322495746E+03  0.00000000000E+00 0. -1.
         21   -1    0    0  501  502 -0.00000000000E+00 -0.00000000000E+00 -0.77819700432E+03  0.77819700432E+03  0.00000000000E+00 0. -1.
         25    1    1    2    0    0  0.29881258588E+02  0.73394278477E+02 -0.30698024237E+03  0.34079536225E+03  0.12500000000E+03 0.  0.
         25    1    1    2    0    0 -0.16653160223E+02  0.57934082965E+02 -0.32562870085E+03  0.35396714047E+03  0.12500000000E+03 0.  0.
         25    1    1    2    0    0 -0.13228098365E+02 -0.13132836144E+03 -0.42363103638E+02  0.18665945906E+03  0.12500000000E+03 0.  0.
</event>
<event>
 5    0  0.5612316E-005  0.2706973E+03  0.7546771E-02  0.1100881E+00
         21   -1    0    0  502  501  0.00000000000E+00  0.00000000000E+00  0.16363709495E+03  0.16363709495E+03  0.00000000000E+00 0. -1.
         21   -1    0    0  501  502 -0.00000000000E+00 -0.00000000000E+00 -0.44780209144E+03  0.44780209144E+03  0.00000000000E+00 0. -1.
         25    1    1    2    0    0  0.73675262623E+02  0.54886797145E+01 -0.27546858945E+03  0.31139382412E+03  0.12500000000E+03 0.  0.
         25    1    1    2    0    0 -0.48411001510E+02 -0.21633281010E+02  0.66425457811E+02  0.15115874225E+03  0.12500000000E+03 0.  0.
         25    1    1    2    0    0 -0.25264261113E+02  0.16144601295E+02 -0.75121864863E+02  0.14888662002E+03  0.12500000000E+03 0.  0.
</event>
<event>
 5    0  0.5612316E-005  0.3055278E+03  0.7546771E-02  0.1082510E+00
         21   -1    0    0  502  501  0.00000000000E+00  0.00000000000E+00  0.27950064215E+03  0.27950064215E+03  0.00000000000E+00 0. -1.
         21   -1    0    0  501  502 -0.00000000000E+00 -0.00000000000E+00 -0.33397858797E+03  0.33397858797E+03  0.00000000000E+00 0. -1.
         25    1    1    2    0    0  0.62071884722E+02 -0.56958814437E+02 -0.21805147617E+03  0.26508238658E+03  0.12500000000E+03 0.  0.
         25    1    1    2    0    0 -0.10512254868E+03  0.62073656819E+02  0.10363793965E+03  0.20314948104E+03  0.12500000000E+03 0.  0.
         25    1    1    2    0    0  0.43050663962E+02 -0.51148423812E+01  0.59935590697E+02  0.14524736250E+03  0.12500000000E+03 0.  0.
</event>
<event>
 5    0  0.5612316E-005  0.4019442E+03  0.7546771E-02  0.1043109E+00
         21   -1    0    0  502  501  0.00000000000E+00  0.00000000000E+00  0.80738071111E+03  0.80738071111E+03  0.00000000000E+00 0.  1.
         21   -1    0    0  501  502 -0.00000000000E+00 -0.00000000000E+00 -0.20010283384E+03  0.20010283384E+03  0.00000000000E+00 0.  1.
         25    1    1    2    0    0 -0.33093225080E+03 -0.10288033205E+03  0.26921180009E+03  0.45628994143E+03  0.12500000000E+03 0.  0.
         25    1    1    2    0    0  0.21025945559E+03  0.38079484947E+02  0.16469160219E+03  0.29733383539E+03  0.12500000000E+03 0.  0.
         25    1    1    2    0    0  0.12067279521E+03  0.64800847100E+02  0.17337447499E+03  0.25385976812E+03  0.12500000000E+03 0.  0.
</event>
<event>
 5    0  0.5612316E-005  0.2545213E+03  0.7546771E-02  0.1110480E+00
         21   -1    0    0  502  501  0.00000000000E+00  0.00000000000E+00  0.69136234150E+02  0.69136234150E+02  0.00000000000E+00 0. -1.
         21   -1    0    0  501  502 -0.00000000000E+00 -0.00000000000E+00 -0.93700601399E+03  0.93700601399E+03  0.00000000000E+00 0. -1.
         25    1    1    2    0    0  0.33567504415E+02 -0.84567588093E+02 -0.17838177525E+03  0.23605828104E+03  0.12500000000E+03 0.  0.
         25    1    1    2    0    0 -0.70385256953E+01 -0.16856687083E+02 -0.51884232918E+03  0.53400004803E+03  0.12500000000E+03 0.  0.
         25    1    1    2    0    0 -0.26528978719E+02  0.10142427518E+03 -0.17064567541E+03  0.23608391907E+03  0.12500000000E+03 0.  0.
</event>
<event>
 5    0  0.5612316E-005  0.2688264E+03  0.7546771E-02  0.1101953E+00
         21   -1    0    0  502  501  0.00000000000E+00  0.00000000000E+00  0.28522460779E+03  0.28522460779E+03  0.00000000000E+00 0. -1.
         21   -1    0    0  501  502 -0.00000000000E+00 -0.00000000000E+00 -0.25337091655E+03  0.25337091655E+03  0.00000000000E+00 0. -1.
         25    1    1    2    0    0  0.10957192678E+03  0.51220397676E+02 -0.64526370644E+02  0.18552139711E+03  0.12500000000E+03 0.  0.
         25    1    1    2    0    0 -0.10946080331E+03 -0.10376622096E+03  0.94429101330E+02  0.21746482762E+03  0.12500000000E+03 0.  0.
         25    1    1    2    0    0 -0.11112346907E+00  0.52545823282E+02  0.19509605533E+01  0.13560929961E+03  0.12500000000E+03 0.  0.
</event>
<event>
 5    0  0.5612316E-005  0.2736030E+03  0.7546771E-02  0.1099235E+00
         21   -1    0    0  502  501  0.00000000000E+00  0.00000000000E+00  0.49472443335E+03  0.49472443335E+03  0.00000000000E+00 0.  1.
         21   -1    0    0  501  502 -0.00000000000E+00 -0.00000000000E+00 -0.15131374393E+03  0.15131374393E+03  0.00000000000E+00 0.  1.
         25    1    1    2    0    0 -0.61535766590E+02 -0.10346739019E+03  0.17597679207E+02  0.17443288026E+03  0.12500000000E+03 0.  0.
         25    1    1    2    0    0 -0.69194305451E+01 -0.34705461829E+02  0.19343592511E+03  0.23301245615E+03  0.12500000000E+03 0.  0.
         25    1    1    2    0    0  0.68455197135E+02  0.13817285202E+03  0.13237708511E+03  0.23859284087E+03  0.12500000000E+03 0.  0.
</event>
<event>
 5    0  0.6215214E-005  0.2864462E+03  0.7546771E-02  0.1092219E+00
         21   -1    0    0  502  501  0.00000000000E+00  0.00000000000E+00  0.15961932373E+03  0.15961932373E+03  0.00000000000E+00 0.  1.
         21   -1    0    0  501  502 -0.00000000000E+00 -0.00000000000E+00 -0.51404458908E+03  0.51404458908E+03  0.00000000000E+00 0.  1.
         25    1    1    2    0    0 -0.31704856566E+02 -0.19814652391E+02  0.10080544309E+01  0.13047541743E+03  0.12500000000E+03 0.  0.
         25    1    1    2    0    0  0.15400181561E+03  0.88728623598E+02 -0.23443034745E+03  0.31964341955E+03  0.12500000000E+03 0.  0.
         25    1    1    2    0    0 -0.12229695904E+03 -0.68913971207E+02 -0.12100297233E+03  0.22354507584E+03  0.12500000000E+03 0.  0.
</event>
<event>
 5    0  0.5612316E-005  0.4166528E+03  0.7546771E-02  0.1038161E+00
         21   -1    0    0  502  501  0.00000000000E+00  0.00000000000E+00  0.53134551567E+03  0.53134551567E+03  0.00000000000E+00 0.  1.
         21   -1    0    0  501  502 -0.00000000000E+00 -0.00000000000E+00 -0.32671682111E+03  0.32671682111E+03  0.00000000000E+00 0.  1.
         25    1    1    2    0    0 -0.76773482471E+02 -0.58532700798E+02 -0.46151948188E+02  0.16454557726E+03  0.12500000000E+03 0.  0.
         25    1    1    2    0    0  0.15900919608E+03 -0.18558718196E+03 -0.49140805181E+02  0.27886617809E+03  0.12500000000E+03 0.  0.
         25    1    1    2    0    0 -0.82235713613E+02  0.24411988276E+03  0.29992144793E+03  0.41465058143E+03  0.12500000000E+03 0.  0.
</event>
<event>
 5    0  0.5612316E-005  0.5161179E+03  0.7546771E-02  0.1009655E+00
         21   -1    0    0  502  501  0.00000000000E+00  0.00000000000E+00  0.46147548889E+03  0.46147548889E+03  0.00000000000E+00 0. -1.
         21   -1    0    0  501  502 -0.00000000000E+00 -0.00000000000E+00 -0.57723043122E+03  0.57723043122E+03  0.00000000000E+00 0. -1.
         25    1    1    2    0    0 -0.32454903402E+02  0.10660458946E+03 -0.57508835722E+02  0.17705966631E+03  0.12500000000E+03 0.  0.
         25    1    1    2    0    0  0.38705038548E+02  0.31007132581E+03 -0.21481429953E+03  0.39926493758E+03  0.12500000000E+03 0.  0.
         25    1    1    2    0    0 -0.62501351462E+01 -0.41667591527E+03  0.15656819292E+03  0.46238131622E+03  0.12500000000E+03 0.  0.
</event>
<event>
 5    0  0.5612316E-005  0.3340332E+03  0.7546771E-02  0.1069366E+00
         21   -1    0    0  502  501  0.00000000000E+00  0.00000000000E+00  0.53307386898E+03  0.53307386898E+03  0.00000000000E+00 0. -1.
         21   -1    0    0  501  502 -0.00000000000E+00 -0.00000000000E+00 -0.20931095834E+03  0.20931095834E+03  0.00000000000E+00 0. -1.
         25    1    1    2    0    0  0.82348748181E+02 -0.55365303089E+02  0.33824335580E+01  0.15963418797E+03  0.12500000000E+03 0.  0.
         25    1    1    2    0    0 -0.15006401758E+03  0.17886291108E+03  0.28873613685E+03  0.39179676754E+03  0.12500000000E+03 0.  0.
         25    1    1    2    0    0  0.67715269396E+02 -0.12349760800E+03  0.31644340228E+02  0.19095387181E+03  0.12500000000E+03 0.  0.
</event>
<event>
 5    0  0.5612316E-005  0.2172767E+03  0.7546771E-02  0.1135930E+00
         21   -1    0    0  502  501  0.00000000000E+00  0.00000000000E+00  0.32256088130E+03  0.32256088130E+03  0.00000000000E+00 0.  1.
         21   -1    0    0  501  502 -0.00000000000E+00 -0.00000000000E+00 -0.14635737680E+03  0.14635737680E+03  0.00000000000E+00 0.  1.
         25    1    1    2    0    0 -0.56554670196E+02 -0.30423367086E+02  0.24058261847E+02  0.14257563589E+03  0.12500000000E+03 0.  0.
         25    1    1    2    0    0  0.36818810366E+02 -0.25815695689E+02  0.18924379035E+02  0.13418348282E+03  0.12500000000E+03 0.  0.
         25    1    1    2    0    0  0.19735859830E+02  0.56239062775E+02  0.13322086362E+03  0.19215913938E+03  0.12500000000E+03 0.  0.
</event>
<event>
 5    0  0.5612316E-005  0.3155125E+03  0.7546771E-02  0.1077733E+00
         21   -1    0    0  502  501  0.00000000000E+00  0.00000000000E+00  0.17683209928E+03  0.17683209928E+03  0.00000000000E+00 0. -1.
         21   -1    0    0  501  502 -0.00000000000E+00 -0.00000000000E+00 -0.56295283630E+03  0.56295283630E+03  0.00000000000E+00 0. -1.
         25    1    1    2    0    0 -0.22498556949E+03 -0.84845510126E+02 -0.22995511245E+03  0.35541753026E+03  0.12500000000E+03 0.  0.
         25    1    1    2    0    0  0.97339122456E+02  0.15782203692E+02 -0.61141801460E+02  0.17055000029E+03  0.12500000000E+03 0.  0.
         25    1    1    2    0    0  0.12764644704E+03  0.69063306434E+02 -0.95023823100E+02  0.21381740503E+03  0.12500000000E+03 0.  0.
</event>
<event>
 5    0  0.5612316E-005  0.3185671E+03  0.7546771E-02  0.1076311E+00
         21   -1    0    0  502  501  0.00000000000E+00  0.00000000000E+00  0.37117138582E+03  0.37117138582E+03  0.00000000000E+00 0. -1.
         21   -1    0    0  501  502 -0.00000000000E+00 -0.00000000000E+00 -0.27341821408E+03  0.27341821408E+03  0.00000000000E+00 0. -1.
         25    1    1    2    0    0  0.16474383768E+03  0.10031655945E+02 -0.51244676717E+02  0.21328896611E+03  0.12500000000E+03 0.  0.
         25    1    1    2    0    0  0.52843965700E+02  0.38417623205E+02  0.12590829869E+02  0.14160482859E+03  0.12500000000E+03 0.  0.
         25    1    1    2    0    0 -0.21758780338E+03 -0.48449279150E+02  0.13640701859E+03  0.28969580520E+03  0.12500000000E+03 0.  0.
</event>
<event>
 5    0  0.5612316E-005  0.2666621E+03  0.7546771E-02  0.1103205E+00
         21   -1    0    0  502  501  0.00000000000E+00  0.00000000000E+00  0.62741411514E+03  0.62741411514E+03  0.00000000000E+00 0.  1.
         21   -1    0    0  501  502 -0.00000000000E+00 -0.00000000000E+00 -0.11333610777E+03  0.11333610777E+03  0.00000000000E+00 0.  1.
         25    1    1    2    0    0 -0.68874727150E+02 -0.35118642924E+02  0.41251816364E+03  0.43791926476E+03  0.12500000000E+03 0.  0.
         25    1    1    2    0    0  0.79775949559E+02  0.52679563530E+02  0.42257890726E+02  0.16294191563E+03  0.12500000000E+03 0.  0.
         25    1    1    2    0    0 -0.10901222409E+02 -0.17560920606E+02  0.59301953012E+02  0.13988904251E+03  0.12500000000E+03 0.  0.
</event>
<event>
 5    0  0.5612316E-005  0.3748665E+03  0.7546771E-02  0.1052848E+00
         21   -1    0    0  502  501  0.00000000000E+00  0.00000000000E+00  0.33412953137E+03  0.33412953137E+03  0.00000000000E+00 0. -1.
         21   -1    0    0  501  502 -0.00000000000E+00 -0.00000000000E+00 -0.42057005658E+03  0.42057005658E+03  0.00000000000E+00 0. -1.
         25    1    1    2    0    0 -0.56910921812E+02  0.28735884745E+03 -0.31634104587E+02  0.32006198900E+03  0.12500000000E+03 0.  0.
         25    1    1    2    0    0 -0.51083125707E+02 -0.63767609259E+02 -0.46918338281E+02  0.15653154375E+03  0.12500000000E+03 0.  0.
         25    1    1    2    0    0  0.10799404752E+03 -0.22359123819E+03 -0.78880823432E+01  0.27810605520E+03  0.12500000000E+03 0.  0.
</event>
<event>
 5    0  0.5612316E-005  0.2215643E+03  0.7546771E-02  0.1132722E+00
         21   -1    0    0  502  501  0.00000000000E+00  0.00000000000E+00  0.69969342888E+02  0.69969342888E+02  0.00000000000E+00 0. -1.
         21   -1    0    0  501  502 -0.00000000000E+00 -0.00000000000E+00 -0.70160345280E+03  0.70160345280E+03  0.00000000000E+00 0. -1.
         25    1    1    2    0    0  0.12243628845E+02  0.55205497179E+02 -0.22000092651E+03  0.25927391120E+03  0.12500000000E+03 0.  0.
         25    1    1    2    0    0 -0.61177149923E+02 -0.83413451189E+02 -0.17394281642E+03  0.23786876822E+03  0.12500000000E+03 0.  0.
         25    1    1    2    0    0  0.48933521078E+02  0.28207954010E+02 -0.23769036698E+03  0.27443011626E+03  0.12500000000E+03 0.  0.
</event>
<event>
 5    0  0.5612316E-005  0.2855471E+03  0.7546771E-02  0.1092697E+00
         21   -1    0    0  502  501  0.00000000000E+00  0.00000000000E+00  0.36279858931E+03  0.36279858931E+03  0.00000000000E+00 0.  1.
         21   -1    0    0  501  502 -0.00000000000E+00 -0.00000000000E+00 -0.22474487376E+03  0.22474487376E+03  0.00000000000E+00 0.  1.
         25    1    1    2    0    0  0.11646567162E+02 -0.88104799193E+02  0.13193618446E+03  0.20231227085E+03  0.12500000000E+03 0.  0.
         25    1    1    2    0    0  0.11514739794E+03 -0.24793061367E+02  0.24998421554E+02  0.17356134427E+03  0.12500000000E+03 0.  0.
         25    1    1    2    0    0 -0.12679396510E+03  0.11289786056E+03 -0.18880890459E+02  0.21166984795E+03  0.12500000000E+03 0.  0.
</event>
<event>
 5    0  0.5612316E-005  0.3539227E+03  0.7546771E-02  0.1061016E+00
         21   -1    0    0  502  501  0.00000000000E+00  0.00000000000E+00  0.22812703501E+03  0.22812703501E+03  0.00000000000E+00 0.  1.
         21   -1    0    0  501  502 -0.00000000000E+00 -0.00000000000E+00 -0.54908569440E+03  0.54908569440E+03  0.00000000000E+00 0.  1.
         25    1    1    2    0    0  0.11453062880E+03  0.90765548444E+01  0.13046738973E+03  0.21411769792E+03  0.12500000000E+03 0.  0.
         25    1    1    2    0    0 -0.10841121022E+03 -0.45313388191E+02 -0.37416470557E+03  0.41161938796E+03  0.12500000000E+03 0.  0.
         25    1    1    2    0    0 -0.61194185762E+01  0.36236833346E+02 -0.77261343543E+02  0.15147564352E+03  0.12500000000E+03 0.  0.
</event>
<event>
 5    0  0.5612316E-005  0.3103508E+03  0.7546771E-02  0.1080178E+00
         21   -1    0    0  502  501  0.00000000000E+00  0.00000000000E+00  0.26214392218E+03  0.26214392218E+03  0.00000000000E+00 0. -1.
         21   -1    0    0  501  502 -0.00000000000E+00 -0.00000000000E+00 -0.36742256599E+03  0.36742256599E+03  0.00000000000E+00 0. -1.
         25    1    1    2    0    0  0.11328510465E+03  0.11895863832E+03 -0.58642337872E+02  0.21458936684E+03  0.12500000000E+03 0.  0.
         25    1    1    2    0    0 -0.11178363325E+03 -0.19533144396E+03 -0.69633631163E+02  0.26669045024E+03  0.12500000000E+03 0.  0.
         25    1    1    2    0    0 -0.15014713975E+01  0.76372805633E+02  0.22997325220E+02  0.14828667109E+03  0.12500000000E+03 0.  0.
</event>
<event>
 5    0  0.5612316E-005  0.2517206E+03  0.7546771E-02  0.1112222E+00
         21   -1    0    0  502  501  0.00000000000E+00  0.00000000000E+00  0.57385348494E+02  0.57385348494E+02  0.00000000000E+00 0.  1.
         21   -1    0    0  501  502 -0.00000000000E+00 -0.00000000000E+00 -0.11041712283E+04  0.11041712283E+04  0.00000000000E+00 0.  1.
         25    1    1    2    0    0  0.50256705124E+02 -0.49713684352E+02 -0.11121150839E+03  0.18163200825E+03  0.12500000000E+03 0.  0.
         25    1    1    2    0    0 -0.79378412815E+02  0.46859272986E+02 -0.62179613915E+03  0.64089949489E+03  0.12500000000E+03 0.  0.
         25    1    1    2    0    0  0.29121707691E+02  0.28544113666E+01 -0.31377823222E+03  0.33902507361E+03  0.12500000000E+03 0.  0.
</event>
<event>
 5    0  0.5612316E-005  0.3110315E+03  0.7546771E-02  0.1079853E+00
         21   -1    0    0  502  501  0.00000000000E+00  0.00000000000E+00  0.65135279973E+02  0.65135279973E+02  0.00000000000E+00 0.  1.
         21   -1    0    0  501  502 -0.00000000000E+00 -0.00000000000E+00 -0.14852257003E+04  0.14852257003E+04  0.00000000000E+00 0.  1.
         25    1    1    2    0    0 -0.28808506185E+01  0.19678759296E+02 -0.35351478710E+03  0.37549068905E+03  0.12500000000E+03 0.  0.
         25    1    1    2    0    0 -0.11467853356E+03  0.16694955566E+03 -0.47646960838E+03  0.53260830627E+03  0.12500000000E+03 0.  0.
         25    1    1    2    0    0  0.11755938418E+03 -0.18662831496E+03 -0.59010602484E+03  0.64226198495E+03  0.12500000000E+03 0.  0.
</event>
<event>
 5    0  0.5612316E-005  0.4551804E+03  0.7546771E-02  0.1026188E+00
         21   -1    0    0  502  501  0.00000000000E+00  0.00000000000E+00  0.19940172654E+03  0.19940172654E+03  0.00000000000E+00 0. -1.
         21   -1    0    0  501  502 -0.00000000000E+00 -0.00000000000E+00 -0.10390543959E+04  0.10390543959E+04  0.00000000000E+00 0. -1.
         25    1    1    2    0    0 -0.23666046825E+03  0.18896841767E+03 -0.14691153294E+03  0.35906160839E+03  0.12500000000E+03 0.  0.
         25    1    1    2    0    0  0.21736564582E+03 -0.28701345178E+03 -0.46938467768E+03  0.60462510792E+03  0.12500000000E+03 0.  0.
         25    1    1    2    0    0  0.19294822429E+02  0.98045034110E+02 -0.22335645878E+03  0.27476940617E+03  0.12500000000E+03 0.  0.
</event>
<event>
 5    0  0.5612316E-005  0.2626784E+03  0.7546771E-02  0.1105545E+00
         21   -1    0    0  502  501  0.00000000000E+00  0.00000000000E+00  0.22103519671E+03  0.22103519671E+03  0.00000000000E+00 0. -1.
         21   -1    0    0  501  502 -0.00000000000E+00 -0.00000000000E+00 -0.31216724255E+03  0.31216724255E+03  0.00000000000E+00 0. -1.
         25    1    1    2    0    0 -0.12019000452E+02  0.75773561217E+02 -0.28487507966E+02  0.14940758703E+03  0.12500000000E+03 0.  0.
         25    1    1    2    0    0  0.57068946044E+02  0.87690792662E+02 -0.58225244509E+02  0.17309453723E+03  0.12500000000E+03 0.  0.
         25    1    1    2    0    0 -0.45049945592E+02 -0.16346435388E+03 -0.44192933631E+01  0.21070031500E+03  0.12500000000E+03 0.  0.
</event>
<event>
 5    0  0.5612316E-005  0.3231883E+03  0.7546771E-02  0.1074191E+00
         21   -1    0    0  502  501  0.00000000000E+00  0.00000000000E+00  0.10562030719E+04  0.10562030719E+04  0.00000000000E+00 0.  1.
         21   -1    0    0  501  502 -0.00000000000E+00 -0.00000000000E+00 -0.98892595996E+02  0.98892595996E+02  0.00000000000E+00 0.  1.
         25    1    1    2    0    0 -0.20188096096E+03  0.71183757397E+02  0.63604220257E+03  0.68264026630E+03  0.12500000000E+03 0.  0.
         25    1    1    2    0    0  0.13828454339E+03  0.12721110617E+01  0.19992768216E+03  0.27335016243E+03  0.12500000000E+03 0.  0.
         25    1    1    2    0    0  0.63596417576E+02 -0.72455868459E+02  0.12134059119E+03  0.19910523919E+03  0.12500000000E+03 0.  0.
</event>
<event>
 5    0  0.5612316E-005  0.3793471E+03  0.7546771E-02  0.1051175E+00
         21   -1    0    0  502  501  0.00000000000E+00  0.00000000000E+00  0.21937321524E+03  0.21937321524E+03  0.00000000000E+00 0. -1.
         21   -1    0    0  501  502 -0.00000000000E+00 -0.00000000000E+00 -0.65597900806E+03  0.65597900806E+03  0.00000000000E+00 0. -1.
         25    1    1    2    0    0 -0.77180782763E+02 -0.13809450226E+03 -0.69190576008E+02  0.21316496099E+03  0.12500000000E+03 0.  0.
         25    1    1    2    0    0  0.31784815304E+01 -0.15541681360E+03 -0.48968579748E+02  0.20539574118E+03  0.12500000000E+03 0.  0.
         25    1    1    2    0    0  0.74002301233E+02  0.29351131586E+03 -0.31844663706E+03  0.45679152114E+03  0.12500000000E+03 0.  0.
</event>
<event>
 5    0  0.5612316E-005  0.2722604E+03  0.7546771E-02  0.1099993E+00
         21   -1    0    0  502  501  0.00000000000E+00  0.00000000000E+00  0.94589894498E+03  0.94589894498E+03  0.00000000000E+00 0.  1.
         21   -1    0    0  501  502 -0.00000000000E+00 -0.00000000000E+00 -0.78365391133E+02  0.78365391133E+02  0.00000000000E+00 0.  1.
         25    1    1    2    0    0 -0.16101986225E+02 -0.76202649933E+02  0.29866331181E+03  0.33300284029E+03  0.12500000000E+03 0.  0.
         25    1    1    2    0    0 -0.17548059000E+02 -0.55160258583E+02  0.45293912453E+03  0.47342310783E+03  0.12500000000E+03 0.  0.
         25    1    1    2    0    0  0.33650045225E+02  0.13136290852E+03  0.11593111751E+03  0.21783838800E+03  0.12500000000E+03 0.  0.
</event>
<event>
 5    0  0.5612316E-005  0.3189315E+03  0.7546771E-02  0.1076142E+00
         21   -1    0    0  502  501  0.00000000000E+00  0.00000000000E+00  0.20871273691E+03  0.20871273691E+03  0.00000000000E+00 0.  1.
         21   -1    0    0  501  502 -0.00000000000E+00 -0.00000000000E+00 -0.48735556939E+03  0.48735556939E+03  0.00000000000E+00 0.  1.
         25    1    1    2    0    0 -0.12187839145E+03  0.42826893512E+02 -0.25240935948E+03  0.30987734649E+03  0.12500000000E+03 0.  0.
         25    1    1    2    0    0 -0.33511119640E+02  0.76651736793E+02 -0.31408203546E+02  0.15365532579E+03  0.12500000000E+03 0.  0.
         25    1    1    2    0    0  0.15538951109E+03 -0.11947863031E+03  0.51747305424E+01  0.23253563403E+03  0.12500000000E+03 0.  0.
</event>
<event>
 5    0  0.5612316E-005  0.2903673E+03  0.7546771E-02  0.1090158E+00
         21   -1    0    0  502  501  0.00000000000E+00  0.00000000000E+00  0.12485985956E+04  0.12485985956E+04  0.00000000000E+00 0.  1.
         21   -1    0    0  501  502 -0.00000000000E+00 -0.00000000000E+00 -0.67526242365E+02  0.67526242365E+02  0.00000000000E+00 0.  1.
         25    1    1    2    0    0 -0.37217024901E+02 -0.89103131388E+02  0.89339596239E+03  0.90725179558E+03  0.12500000000E+03 0.  0.
         25    1    1    2    0    0 -0.15255496411E+02 -0.32487194733E+01  0.11260275552E+03  0.16896054243E+03  0.12500000000E+03 0.  0.
         25    1    1    2    0    0  0.52472521312E+02  0.92351850861E+02  0.17507363536E+03  0.23991249998E+03  0.12500000000E+03 0.  0.
</event>
<event>
 5    0  0.6193562E-005  0.2600671E+03  0.7546771E-02  0.1107103E+00
         21   -1    0    0  502  501  0.00000000000E+00  0.00000000000E+00  0.28657328404E+03  0.28657328404E+03  0.00000000000E+00 0.  1.
         21   -1    0    0  501  502 -0.00000000000E+00 -0.00000000000E+00 -0.23601247666E+03  0.23601247666E+03  0.00000000000E+00 0.  1.
         25    1    1    2    0    0 -0.73881717437E+02  0.68463341550E+02  0.20570038651E+02  0.16184518466E+03  0.12500000000E+03 0.  0.
         25    1    1    2    0    0 -0.77415825585E+02 -0.17931537390E+02 -0.26242602610E+02  0.15042747181E+03  0.12500000000E+03 0.  0.
         25    1    1    2    0    0  0.15129754302E+03 -0.50531804160E+02  0.56233371335E+02  0.21031310422E+03  0.12500000000E+03 0.  0.
</event>
<event>
 5    0  0.5612316E-005  0.2862143E+03  0.7546771E-02  0.1092342E+00
         21   -1    0    0  502  501  0.00000000000E+00  0.00000000000E+00  0.46396897186E+03  0.46396897186E+03  0.00000000000E+00 0. -1.
         21   -1    0    0  501  502 -0.00000000000E+00 -0.00000000000E+00 -0.17656051234E+03  0.17656051234E+03  0.00000000000E+00 0. -1.
         25    1    1    2    0    0 -0.35798420275E+02 -0.47410674680E+02 -0.24299685012E+02  0.14051609751E+03  0.12500000000E+03 0.  0.
         25    1    1    2    0    0  0.11034380148E+03  0.13750975690E+03  0.13967619016E+03  0.25733077132E+03  0.12500000000E+03 0.  0.
         25    1    1    2    0    0 -0.74545381210E+02 -0.90099082223E+02  0.17203195437E+03  0.24268261537E+03  0.12500000000E+03 0.  0.
</event>
<event>
 5    0  0.5612316E-005  0.3368747E+03  0.7546771E-02  0.1068135E+00
         21   -1    0    0  502  501  0.00000000000E+00  0.00000000000E+00  0.22898246858E+04  0.22898246858E+04  0.00000000000E+00 0.  1.
         21   -1    0    0  501  502 -0.00000000000E+00 -0.00000000000E+00 -0.49560366453E+02  0.49560366453E+02  0.00000000000E+00 0.  1.
         25    1    1    2    0    0 -0.68933437513E+02 -0.65279631878E+02  0.22314378771E+03  0.27282118528E+03  0.12500000000E+03 0.  0.
         25    1    1    2    0    0  0.47340014214E+02  0.46803413878E+02  0.20075860311E+03  0.24568405162E+03  0.12500000000E+03 0.  0.
         25    1    1    2    0    0  0.21593423298E+02  0.18476218001E+02  0.18163619285E+04  0.18208798154E+04  0.12500000000E+03 0.  0.
</event>
<event>
 5    0  0.5612316E-005  0.3626292E+03  0.7546771E-02  0.1057548E+00
         21   -1    0    0  502  501  0.00000000000E+00  0.00000000000E+00  0.48815012174E+03  0.48815012174E+03  0.00000000000E+00 0. -1.
         21   -1    0    0  501  502 -0.00000000000E+00 -0.00000000000E+00 -0.26938416875E+03  0.26938416875E+03  0.00000000000E+00 0. -1.
         25    1    1    2    0    0  0.11426717231E+03 -0.27058545715E+03  0.12498563446E+03  0.34281173421E+03  0.12500000000E+03 0.  0.
         25    1    1    2    0    0 -0.10862302464E+03  0.14003039218E+03  0.14746417786E+02  0.21737048800E+03  0.12500000000E+03 0.  0.
         25    1    1    2    0    0 -0.56441476768E+01  0.13055506497E+03  0.79033900749E+02  0.19735206830E+03  0.12500000000E+03 0.  0.
</event>
<event>
 5    0  0.5612316E-005  0.2632644E+03  0.7546771E-02  0.1105198E+00
         21   -1    0    0  502  501  0.00000000000E+00  0.00000000000E+00  0.59071361179E+02  0.59071361179E+02  0.00000000000E+00 0. -1.
         21   -1    0    0  501  502 -0.00000000000E+00 -0.00000000000E+00 -0.11732953527E+04  0.11732953527E+04  0.00000000000E+00 0. -1.
         25    1    1    2    0    0 -0.62319159534E+02 -0.42273205419E+01 -0.18551765562E+03  0.23225707402E+03  0.12500000000E+03 0.  0.
         25    1    1    2    0    0 -0.41773986930E+02 -0.21239422863E+02 -0.72975291413E+03  0.74186285441E+03  0.12500000000E+03 0.  0.
         25    1    1    2    0    0  0.10409314646E+03  0.25466743405E+02 -0.19895342174E+03  0.25824678542E+03  0.12500000000E+03 0.  0.
</event>
<event>
 5    0  0.5612316E-005  0.2520560E+03  0.7546771E-02  0.1112012E+00
         21   -1    0    0  502  501  0.00000000000E+00  0.00000000000E+00  0.25142736351E+03  0.25142736351E+03  0.00000000000E+00 0.  1.
         21   -1    0    0  501  502 -0.00000000000E+00 -0.00000000000E+00 -0.25268625772E+03  0.25268625772E+03  0.00000000000E+00 0.  1.
         25    1    1    2    0    0  0.14211640706E+03  0.63581714469E+02  0.22377130175E+02  0.20091153159E+03  0.12500000000E+03 0.  0.
         25    1    1    2    0    0 -0.95100279286E+02 -0.49522558090E+02  0.92517373336E+01  0.16494587453E+03  0.12500000000E+03 0.  0.
         25    1    1    2    0    0 -0.47016127774E+02 -0.14059156379E+02 -0.32887761718E+02  0.13825621512E+03  0.12500000000E+03 0.  0.
</event>
<event>
 5    0  0.5612316E-005  0.2783934E+03  0.7546771E-02  0.1096570E+00
         21   -1    0    0  502  501  0.00000000000E+00  0.00000000000E+00  0.17420264829E+03  0.17420264829E+03  0.00000000000E+00 0.  1.
         21   -1    0    0  501  502 -0.00000000000E+00 -0.00000000000E+00 -0.44490072692E+03  0.44490072692E+03  0.00000000000E+00 0.  1.
         25    1    1    2    0    0 -0.28449206477E+02  0.23808441310E+02 -0.15260272072E+02  0.13127861643E+03  0.12500000000E+03 0.  0.
         25    1    1    2    0    0 -0.11861681761E+03  0.58763005932E+02 -0.38794878753E+02  0.18615338542E+03  0.12500000000E+03 0.  0.
         25    1    1    2    0    0  0.14706602408E+03 -0.82571447242E+02 -0.21664292781E+03  0.30167137337E+03  0.12500000000E+03 0.  0.
</event>
<event>
 5    0  0.5612316E-005  0.4023076E+03  0.7546771E-02  0.1042984E+00
         21   -1    0    0  502  501  0.00000000000E+00  0.00000000000E+00  0.31659161780E+03  0.31659161780E+03  0.00000000000E+00 0.  1.
         21   -1    0    0  501  502 -0.00000000000E+00 -0.00000000000E+00 -0.51123090207E+03  0.51123090207E+03  0.00000000000E+00 0.  1.
         25    1    1    2    0    0 -0.32102884438E+03  0.17366689815E+02 -0.10416188727E+03  0.36032737837E+03  0.12500000000E+03 0.  0.
         25    1    1    2    0    0  0.22395428375E+03 -0.10286711223E+03 -0.78211561234E+02  0.28719194331E+03  0.12500000000E+03 0.  0.
         25    1    1    2    0    0  0.97074560630E+02  0.85500422411E+02 -0.12265835771E+02  0.18030319820E+03  0.12500000000E+03 0.  0.
</event>
<event>
 5    0  0.5612316E-005  0.1987877E+03  0.7546771E-02  0.1150766E+00
         21   -1    0    0  502  501  0.00000000000E+00  0.00000000000E+00  0.14518938754E+04  0.14518938754E+04  0.00000000000E+00 0.  1.
         21   -1    0    0  501  502 -0.00000000000E+00 -0.00000000000E+00 -0.27217230339E+02  0.27217230339E+02  0.00000000000E+00 0.  1.
         25    1    1    2    0    0 -0.27348064249E+02 -0.47366493680E+01  0.36062752738E+03  0.38268468217E+03  0.12500000000E+03 0.  0.
         25    1    1    2    0    0 -0.16952612813E+02 -0.20216464118E+01  0.40747725963E+03  0.42656089279E+03  0.12500000000E+03 0.  0.
         25    1    1    2    0    0  0.44300677061E+02  0.67582957798E+01  0.65657185805E+03  0.66986553079E+03  0.12500000000E+03 0.  0.
</event>
<event>
 5    0  0.5612316E-005  0.3824509E+03  0.7546771E-02  0.1050032E+00
         21   -1    0    0  502  501  0.00000000000E+00  0.00000000000E+00  0.15797984217E+04  0.15797984217E+04  0.00000000000E+00 0. -1.
         21   -1    0    0  501  502 -0.00000000000E+00 -0.00000000000E+00 -0.92586941992E+02  0.92586941992E+02  0.00000000000E+00 0. -1.
         25    1    1    2    0    0 -0.84102614851E+02  0.14692070968E+03  0.21002814362E+03  0.29731425440E+03  0.12500000000E+03 0.  0.
         25    1    1    2    0    0  0.12894945418E+02  0.26305936883E+02  0.10404882215E+04  0.10483792353E+04  0.12500000000E+03 0.  0.
         25    1    1    2    0    0  0.71207669433E+02 -0.17322664657E+03  0.23669511463E+03  0.32669187403E+03  0.12500000000E+03 0.  0.
</event>
<event>
 5    0  0.6287422E-005  0.2944041E+03  0.7546771E-02  0.1088072E+00
         21   -1    0    0  502  501  0.00000000000E+00  0.00000000000E+00  0.62732047269E+03  0.62732047269E+03  0.00000000000E+00 0. -1.
         21   -1    0    0  501  502 -0.00000000000E+00 -0.00000000000E+00 -0.13816504550E+03  0.13816504550E+03  0.00000000000E+00 0. -1.
         25    1    1    2    0    0  0.86038662158E+02 -0.36306552740E+02  0.92279720471E+02  0.18127703652E+03  0.12500000000E+03 0.  0.
         25    1    1    2    0    0  0.96444637795E+02  0.23852776516E+02  0.30520702936E+03  0.34445152617E+03  0.12500000000E+03 0.  0.
         25    1    1    2    0    0 -0.18248329995E+03  0.12453776225E+02  0.91668677363E+02  0.23975695551E+03  0.12500000000E+03 0.  0.
</event>
<event>
 5    0  0.5612316E-005  0.2533755E+03  0.7546771E-02  0.1111190E+00
         21   -1    0    0  502  501  0.00000000000E+00  0.00000000000E+00  0.97086061741E+02  0.97086061741E+02  0.00000000000E+00 0. -1.
         21   -1    0    0  501  502 -0.00000000000E+00 -0.00000000000E+00 -0.66126033538E+03  0.66126033538E+03  0.00000000000E+00 0. -1.
         25    1    1    2    0    0 -0.25527500247E+02  0.48769524961E+02 -0.16085395862E+03  0.21101923096E+03  0.12500000000E+03 0.  0.
         25    1    1    2    0    0  0.79447957560E+02  0.78314350765E+02 -0.11186997592E+03  0.20145720888E+03  0.12500000000E+03 0.  0.
         25    1    1    2    0    0 -0.53920457313E+02 -0.12708387573E+03 -0.29145033910E+03  0.34586995728E+03  0.12500000000E+03 0.  0.
</event>
<event>
 5    0  0.5612316E-005  0.3174661E+03  0.7546771E-02  0.1076821E+00
         21   -1    0    0  502  501  0.00000000000E+00  0.00000000000E+00  0.58521689945E+03  0.58521689945E+03  0.00000000000E+00 0. -1.
         21   -1    0    0  501  502 -0.00000000000E+00 -0.00000000000E+00 -0.17221778041E+03  0.17221778041E+03  0.00000000000E+00 0. -1.
         25    1    1    2    0    0 -0.10678070638E+03 -0.11545506260E+03  0.11787392442E+03  0.23291898332E+03  0.12500000000E+03 0.  0.
         25    1    1    2    0    0 -0.76016372302E+02  0.71436768599E+01  0.22454095882E+03  0.26809170663E+03  0.12500000000E+03 0.  0.
         25    1    1    2    0    0  0.18279707869E+03  0.10831138574E+03  0.70584235799E+02  0.25642398991E+03  0.12500000000E+03 0.  0.
</event>
<event>
 5    0  0.5612316E-005  0.3078467E+03  0.7546771E-02  0.1081383E+00
         21   -1    0    0  502  501  0.00000000000E+00  0.00000000000E+00  0.20269391597E+03  0.20269391597E+03  0.00000000000E+00 0. -1.
         21   -1    0    0  501  502 -0.00000000000E+00 -0.00000000000E+00 -0.46755021072E+03  0.46755021072E+03  0.00000000000E+00 0. -1.
         25    1    1    2    0    0  0.14794171909E+03  0.14544726306E+03 -0.58294930275E+02  0.24912839556E+03  0.12500000000E+03 0.  0.
         25    1    1    2    0    0 -0.88001495071E+01  0.31594877204E+01 -0.95959623659E+02  0.15786283403E+03  0.12500000000E+03 0.  0.
         25    1    1    2    0    0 -0.13914156958E+03 -0.14860675078E+03 -0.11060174081E+03  0.26325289711E+03  0.12500000000E+03 0.  0.
</event>
<event>
 5    0  0.5968491E-005  0.3032137E+03  0.7546771E-02  0.1083645E+00
         21   -1    0    0  502  501  0.00000000000E+00  0.00000000000E+00  0.37843281485E+03  0.37843281485E+03  0.00000000000E+00 0.  1.
         21   -1    0    0  501  502 -0.00000000000E+00 -0.00000000000E+00 -0.24294548420E+03  0.24294548420E+03  0.00000000000E+00 0.  1.
         25    1    1    2    0    0 -0.11625012466E+02 -0.12498488710E+03  0.12048629895E+03  0.21423891139E+03  0.12500000000E+03 0.  0.
         25    1    1    2    0    0  0.15074610209E+03  0.39009765831E+02  0.23906906483E+02  0.20110367799E+03  0.12500000000E+03 0.  0.
         25    1    1    2    0    0 -0.13912108962E+03  0.85975121272E+02 -0.89058747801E+01  0.20603570967E+03  0.12500000000E+03 0.  0.
</event>
<event>
 5    0  0.5612316E-005  0.2977179E+03  0.7546771E-02  0.1086387E+00
         21   -1    0    0  502  501  0.00000000000E+00  0.00000000000E+00  0.12561253607E+03  0.12561253607E+03  0.00000000000E+00 0. -1.
         21   -1    0    0  501  502 -0.00000000000E+00 -0.00000000000E+00 -0.70562994417E+03  0.70562994417E+03  0.00000000000E+00 0. -1.
         25    1    1    2    0    0  0.18833661770E+03  0.43017753966E+02 -0.25665137604E+03  0.34469716788E+03  0.12500000000E+03 0.  0.
         25    1    1    2    0    0 -0.14031260541E+03  0.55180570948E+02 -0.19783395395E+03  0.27838066740E+03  0.12500000000E+03 0.  0.
         25    1    1    2    0    0 -0.48024012298E+02 -0.98198324915E+02 -0.12553207810E+03  0.20816464495E+03  0.12500000000E+03 0.  0.
</event>
<event>
 5    0  0.5612316E-005  0.3931628E+03  0.7546771E-02  0.1046173E+00
         21   -1    0    0  502  501  0.00000000000E+00  0.00000000000E+00  0.45000486627E+03  0.45000486627E+03  0.00000000000E+00 0. -1.
         21   -1    0    0  501  502 -0.00000000000E+00 -0.00000000000E+00 -0.34350070128E+03  0.34350070128E+03  0.00000000000E+00 0. -1.
         25    1    1    2    0    0  0.12753854555E+03  0.45741508087E+02 -0.17974558982E+03  0.25747202416E+03  0.12500000000E+03 0.  0.
         25    1    1    2    0    0 -0.20230471751E+03  0.83945122736E+02  0.11784573430E+03  0.27836414900E+03  0.12500000000E+03 0.  0.
         25    1    1    2    0    0  0.74766171959E+02 -0.12968663082E+03  0.16840402050E+03  0.25766939439E+03  0.12500000000E+03 0.  0.
</event>
<event>
 5    0  0.5612316E-005  0.3156698E+03  0.7546771E-02  0.1077660E+00
         21   -1    0    0  502  501  0.00000000000E+00  0.00000000000E+00  0.64102701439E+03  0.64102701439E+03  0.00000000000E+00 0. -1.
         21   -1    0    0  501  502 -0.00000000000E+00 -0.00000000000E+00 -0.15544968150E+03  0.15544968150E+03  0.00000000000E+00 0. -1.
         25    1    1    2    0    0  0.22145158215E+02  0.12140489153E+03 -0.31361545971E+02  0.17843234652E+03  0.12500000000E+03 0.  0.
         25    1    1    2    0    0 -0.82683453308E+02 -0.66406486388E+02  0.15133474556E+03  0.22309993299E+03  0.12500000000E+03 0.  0.
         25    1    1    2    0    0  0.60538295093E+02 -0.54998405141E+02  0.36560413330E+03  0.39494441638E+03  0.12500000000E+03 0.  0.
</event>
<event>
 5    0  0.5612316E-005  0.2718978E+03  0.7546771E-02  0.1100198E+00
         21   -1    0    0  502  501  0.00000000000E+00  0.00000000000E+00  0.37656884415E+02  0.37656884415E+02  0.00000000000E+00 0.  1.
         21   -1    0    0  501  502 -0.00000000000E+00 -0.00000000000E+00 -0.19632106125E+04  0.19632106125E+04  0.00000000000E+00 0.  1.
         25    1    1    2    0    0  0.17044365860E+03  0.36525750960E+02 -0.56755537835E+03  0.60673658101E+03  0.12500000000E+03 0.  0.
         25    1    1    2    0    0 -0.83106857820E+02 -0.38263146352E+01 -0.49945336778E+03  0.52153624715E+03  0.12500000000E+03 0.  0.
         25    1    1    2    0    0 -0.87336800785E+02 -0.32699436325E+02 -0.85854498198E+03  0.87259466878E+03  0.12500000000E+03 0.  0.
</event>
<event>
 5    0  0.5612316E-005  0.2939781E+03  0.7546771E-02  0.1088290E+00
         21   -1    0    0  502  501  0.00000000000E+00  0.00000000000E+00  0.28893238554E+03  0.28893238554E+03  0.00000000000E+00 0.  1.
         21   -1    0    0  501  502 -0.00000000000E+00 -0.00000000000E+00 -0.29911197751E+03  0.29911197751E+03  0.00000000000E+00 0.  1.
         25    1    1    2    0    0 -0.26229121684E+02 -0.21041683477E+01 -0.15979581246E+03  0.20457784833E+03  0.12500000000E+03 0.  0.
         25    1    1    2    0    0  0.30966120982E+02 -0.28672655042E+02  0.20456284635E+03  0.24341729582E+03  0.12500000000E+03 0.  0.
         25    1    1    2    0    0 -0.47369992985E+01  0.30776823390E+02 -0.54946625866E+02  0.14004921890E+03  0.12500000000E+03 0.  0.
</event>
<event>
 5    0  0.6252979E-005  0.4014715E+03  0.7546771E-02  0.1043271E+00
         21   -1    0    0  502  501  0.00000000000E+00  0.00000000000E+00  0.45183215881E+03  0.45183215881E+03  0.00000000000E+00 0. -1.
         21   -1    0    0  501  502 -0.00000000000E+00 -0.00000000000E+00 -0.35672398798E+03  0.35672398798E+03  0.00000000000E+00 0. -1.
         25    1    1    2    0    0 -0.24536411964E+02  0.10169077130E+02  0.22704956242E+03  0.26054164626E+03  0.12500000000E+03 0.  0.
         25    1    1    2    0    0 -0.10018254852E+03 -0.18394969043E+03 -0.17005478969E+03  0.29735107724E+03  0.12500000000E+03 0.  0.
         25    1    1    2    0    0  0.12471896049E+03  0.17378061330E+03  0.38113398108E+02  0.25066342330E+03  0.12500000000E+03 0.  0.
</event>
<event>
 5    0  0.5612316E-005  0.2155330E+03  0.7546771E-02  0.1137258E+00
         21   -1    0    0  502  501  0.00000000000E+00  0.00000000000E+00  0.27445771593E+02  0.27445771593E+02  0.00000000000E+00 0. -1.
         21   -1    0    0  501  502 -0.00000000000E+00 -0.00000000000E+00 -0.16925908433E+04  0.16925908433E+04  0.00000000000E+00 0. -1.
         25    1    1    2    0    0  0.33265385035E+02 -0.22784817914E+02 -0.48830913253E+03  0.50566445661E+03  0.12500000000E+03 0.  0.
         25    1    1    2    0    0 -0.75285990819E+02  0.66045334860E+02 -0.59092961539E+03  0.61225221683E+03  0.12500000000E+03 0.  0.
         25    1    1    2    0    0  0.42020605783E+02 -0.43260516946E+02 -0.58590632376E+03  0.60211994143E+03  0.12500000000E+03 0.  0.
</event>
<event>
 5    0  0.5612316E-005  0.2506132E+03  0.7546771E-02  0.1112918E+00
         21   -1    0    0  502  501  0.00000000000E+00  0.00000000000E+00  0.78515174065E+03  0.78515174065E+03  0.00000000000E+00 0. -1.
         21   -1    0    0  501  502 -0.00000000000E+00 -0.00000000000E+00 -0.79993400640E+02  0.79993400640E+02  0.00000000000E+00 0. -1.
         25    1    1    2    0    0 -0.33640449749E+02  0.23456652045E+02  0.24454899438E+03  0.27768886372E+03  0.12500000000E+03 0.  0.
         25    1    1    2    0    0 -0.53947671236E+02  0.42077671339E+01  0.39714957865E+03  0.41985812409E+03  0.12500000000E+03 0.  0.
         25    1    1    2    0    0  0.87588120985E+02 -0.27664419179E+02  0.63459766982E+02  0.16759815348E+03  0.12500000000E+03 0.  0.
</event>
<event>
 5    0  0.5612316E-005  0.2817989E+03  0.7546771E-02  0.1094710E+00
         21   -1    0    0  502  501  0.00000000000E+00  0.00000000000E+00  0.42029941000E+03  0.42029941000E+03  0.00000000000E+00 0.  1.
         21   -1    0    0  501  502 -0.00000000000E+00 -0.00000000000E+00 -0.18893817075E+03  0.18893817075E+03  0.00000000000E+00 0.  1.
         25    1    1    2    0    0 -0.11198909184E+02  0.14109099063E+03  0.10129966301E+03  0.21428650198E+03  0.12500000000E+03 0.  0.
         25    1    1    2    0    0 -0.74848169590E+02 -0.64140293205E+02  0.15594467948E+03  0.22284516769E+03  0.12500000000E+03 0.  0.
         25    1    1    2    0    0  0.86047078774E+02 -0.76950697428E+02 -0.25883103232E+02  0.17210591109E+03  0.12500000000E+03 0.  0.
</event>
<event>
 5    0  0.5612316E-005  0.2818044E+03  0.7546771E-02  0.1094707E+00
         21   -1    0    0  502  501  0.00000000000E+00  0.00000000000E+00  0.46515624441E+02  0.46515624441E+02  0.00000000000E+00 0.  1.
         21   -1    0    0  501  502 -0.00000000000E+00 -0.00000000000E+00 -0.17072487169E+04  0.17072487169E+04  0.00000000000E+00 0.  1.
         25    1    1    2    0    0  0.14929237790E+02 -0.50960810603E+01 -0.87176408516E+03  0.88082147587E+03  0.12500000000E+03 0.  0.
         25    1    1    2    0    0  0.47321371737E+02 -0.25995817858E+02 -0.99127707656E+02  0.16842326797E+03  0.12500000000E+03 0.  0.
         25    1    1    2    0    0 -0.62250609527E+02  0.31091898918E+02 -0.68984129969E+03  0.70451959755E+03  0.12500000000E+03 0.  0.
</event>
<event>
 5    0  0.5612316E-005  0.2628661E+03  0.7546771E-02  0.1105433E+00
         21   -1    0    0  502  501  0.00000000000E+00  0.00000000000E+00  0.11436941686E+03  0.11436941686E+03  0.00000000000E+00 0.  1.
         21   -1    0    0  501  502 -0.00000000000E+00 -0.00000000000E+00 -0.60417020655E+03  0.60417020655E+03  0.00000000000E+00 0.  1.
         25    1    1    2    0    0  0.62942633930E+02  0.29019402153E+02 -0.65904096277E+01  0.14308156543E+03  0.12500000000E+03 0.  0.
         25    1    1    2    0    0  0.43491358977E+02  0.17015820442E+02 -0.14732294273E+03  0.19877144137E+03  0.12500000000E+03 0.  0.
         25    1    1    2    0    0 -0.10643399291E+03 -0.46035222595E+02 -0.33588743733E+03  0.37668661660E+03  0.12500000000E+03 0.  0.
</event>
<event>
 5    0  0.5612316E-005  0.3368802E+03  0.7546771E-02  0.1068133E+00
         21   -1    0    0  502  501  0.00000000000E+00  0.00000000000E+00  0.20998845568E+04  0.20998845568E+04  0.00000000000E+00 0.  1.
         21   -1    0    0  501  502 -0.00000000000E+00 -0.00000000000E+00 -0.54045003125E+02  0.54045003125E+02  0.00000000000E+00 0.  1.
         25    1    1    2    0    0  0.18216077751E+03 -0.56580420545E+02  0.49553390215E+03  0.54549311731E+03  0.12500000000E+03 0.  0.
         25    1    1    2    0    0 -0.14886248452E+03  0.30229086159E+02  0.13749005595E+04  0.13889025832E+04  0.12500000000E+03 0.  0.
         25    1    1    2    0    0 -0.33298292990E+02  0.26351334386E+02  0.17540509195E+03  0.21953385939E+03  0.12500000000E+03 0.  0.
</event>
<event>
 5    0  0.5612316E-005  0.2385927E+03  0.7546771E-02  0.1120734E+00
         21   -1    0    0  502  501  0.00000000000E+00  0.00000000000E+00  0.40869929861E+02  0.40869929861E+02  0.00000000000E+00 0. -1.
         21   -1    0    0  501  502 -0.00000000000E+00 -0.00000000000E+00 -0.13928700272E+04  0.13928700272E+04  0.00000000000E+00 0. -1.
         25    1    1    2    0    0 -0.52960847296E+02  0.91610550063E+02 -0.37468742070E+03  0.40891687109E+03  0.12500000000E+03 0.  0.
         25    1    1    2    0    0  0.85882836827E+02 -0.28489113622E+02 -0.37372113875E+03  0.40432657692E+03  0.12500000000E+03 0.  0.
         25    1    1    2    0    0 -0.32921989531E+02 -0.63121436442E+02 -0.60359153785E+03  0.62049650901E+03  0.12500000000E+03 0.  0.
</event>
<event>
 5    0  0.5612316E-005  0.1191401E+04  0.7546771E-02  0.9120417E-01
         21   -1    0    0  502  501  0.00000000000E+00  0.00000000000E+00  0.20797701822E+04  0.20797701822E+04  0.00000000000E+00 0.  1.
         21   -1    0    0  501  502 -0.00000000000E+00 -0.00000000000E+00 -0.68249660191E+03  0.68249660191E+03  0.00000000000E+00 0.  1.
         25    1    1    2    0    0  0.20899452713E+03  0.11190860793E+03  0.60798010688E+03  0.66442987535E+03  0.12500000000E+03 0.  0.
         25    1    1    2    0    0  0.94324141206E+02  0.43346028160E+03  0.12367574577E+04  0.13198404709E+04  0.12500000000E+03 0.  0.
         25    1    1    2    0    0 -0.30331866834E+03 -0.54536888953E+03 -0.44746398425E+03  0.77799643793E+03  0.12500000000E+03 0.  0.
</event>
<event>
 5    0  0.5612316E-005  0.3685328E+03  0.7546771E-02  0.1055255E+00
         21   -1    0    0  502  501  0.00000000000E+00  0.00000000000E+00  0.20263708812E+03  0.20263708812E+03  0.00000000000E+00 0. -1.
         21   -1    0    0  501  502 -0.00000000000E+00 -0.00000000000E+00 -0.67024447371E+03  0.67024447371E+03  0.00000000000E+00 0. -1.
         25    1    1    2    0    0  0.32889725248E+02  0.23721087569E+03 -0.35085234056E+02  0.27240908065E+03  0.12500000000E+03 0.  0.
         25    1    1    2    0    0  0.98282418341E+02 -0.95697938340E+02 -0.17232681611E+03  0.25325690654E+03  0.12500000000E+03 0.  0.
         25    1    1    2    0    0 -0.13117214359E+03 -0.14151293735E+03 -0.26019533543E+03  0.34721557464E+03  0.12500000000E+03 0.  0.
</event>
<event>
 5    0  0.5612316E-005  0.2538535E+03  0.7546771E-02  0.1110893E+00
         21   -1    0    0  502  501  0.00000000000E+00  0.00000000000E+00  0.83799245728E+02  0.83799245728E+02  0.00000000000E+00 0. -1.
         21   -1    0    0  501  502 -0.00000000000E+00 -0.00000000000E+00 -0.76899968338E+03  0.76899968338E+03  0.00000000000E+00 0. -1.
         25    1    1    2    0    0  0.81425398329E+02 -0.53074831170E+02 -0.15082545171E+03  0.21867864569E+03  0.12500000000E+03 0.  0.
         25    1    1    2    0    0 -0.35557270308E+01 -0.42869849103E+02 -0.37215110472E+03  0.39493279415E+03  0.12500000000E+03 0.  0.
         25    1    1    2    0    0 -0.77869671298E+02  0.95944680273E+02 -0.16222388122E+03  0.23918748926E+03  0.12500000000E+03 0.  0.
</event>
<event>
 5    0  0.5729339E-005  0.2758949E+03  0.7546771E-02  0.1097952E+00
         21   -1    0    0  502  501  0.00000000000E+00  0.00000000000E+00  0.66228264439E+03  0.66228264439E+03  0.00000000000E+00 0. -1.
         21   -1    0    0  501  502 -0.00000000000E+00 -0.00000000000E+00 -0.11493282351E+03  0.11493282351E+03  0.00000000000E+00 0. -1.
         25    1    1    2    0    0 -0.14337954066E+03  0.15892671742E+02  0.19043957777E+03  0.26963401580E+03  0.12500000000E+03 0.  0.
         25    1    1    2    0    0  0.12682339245E+03  0.46312964880E+02  0.87613051807E+02  0.20378937763E+03  0.12500000000E+03 0.  0.
         25    1    1    2    0    0  0.16556148210E+02 -0.62205636622E+02  0.26929719130E+03  0.30379207447E+03  0.12500000000E+03 0.  0.
</event>
<event>
 5    0  0.5612316E-005  0.3515827E+03  0.7546771E-02  0.1061967E+00
         21   -1    0    0  502  501  0.00000000000E+00  0.00000000000E+00  0.28261942681E+04  0.28261942681E+04  0.00000000000E+00 0.  1.
         21   -1    0    0  501  502 -0.00000000000E+00 -0.00000000000E+00 -0.43737401235E+02  0.43737401235E+02  0.00000000000E+00 0.  1.
         25    1    1    2    0    0 -0.17986522678E+03 -0.34666098943E+02  0.10145583336E+04  0.10385118442E+04  0.12500000000E+03 0.  0.
         25    1    1    2    0    0  0.61119923805E+02 -0.22429621573E+02  0.15067407885E+04  0.15133180554E+04  0.12500000000E+03 0.  0.
         25    1    1    2    0    0  0.11874530298E+03  0.57095720516E+02  0.26115774474E+03  0.31810176975E+03  0.12500000000E+03 0.  0.
</event>
<event>
 5    0  0.5612316E-005  0.2917806E+03  0.7546771E-02  0.1089423E+00
         21   -1    0    0  502  501  0.00000000000E+00  0.00000000000E+00  0.99561714076E+02  0.99561714076E+02  0.00000000000E+00 0. -1.
         21   -1    0    0  501  502 -0.00000000000E+00 -0.00000000000E+00 -0.85510687462E+03  0.85510687462E+03  0.00000000000E+00 0. -1.
         25    1    1    2    0    0 -0.75711967004E+01 -0.33406503092E+02 -0.26166458761E+03  0.29200457852E+03  0.12500000000E+03 0.  0.
         25    1    1    2    0    0  0.24374013044E+02 -0.10210311005E+03 -0.44084583502E+03  0.47009487112E+03  0.12500000000E+03 0.  0.
         25    1    1    2    0    0 -0.16802816343E+02  0.13550961314E+03 -0.53034737908E+02  0.19256913905E+03  0.12500000000E+03 0.  0.
</event>
<event>
 5    0  0.5612316E-005  0.2045761E+03  0.7546771E-02  0.1145935E+00
         21   -1    0    0  502  501  0.00000000000E+00  0.00000000000E+00  0.36725080867E+02  0.36725080867E+02  0.00000000000E+00 0.  1.
         21   -1    0    0  501  502 -0.00000000000E+00 -0.00000000000E+00 -0.11395859432E+04  0.11395859432E+04  0.00000000000E+00 0.  1.
         25    1    1    2    0    0  0.26060857175E+02  0.16764267080E+02 -0.42939346381E+03  0.44829003523E+03  0.12500000000E+03 0.  0.
         25    1    1    2    0    0  0.14270451956E+02 -0.36534051497E+02 -0.22568686348E+03  0.26095582589E+03  0.12500000000E+03 0.  0.
         25    1    1    2    0    0 -0.40331309132E+02  0.19769784417E+02 -0.44778053503E+03  0.46706516293E+03  0.12500000000E+03 0.  0.
</event>
<event>
 5    0  0.5612316E-005  0.2878653E+03  0.7546771E-02  0.1091469E+00
         21   -1    0    0  502  501  0.00000000000E+00  0.00000000000E+00  0.50333488592E+03  0.50333488592E+03  0.00000000000E+00 0. -1.
         21   -1    0    0  501  502 -0.00000000000E+00 -0.00000000000E+00 -0.16463476427E+03  0.16463476427E+03  0.00000000000E+00 0. -1.
         25    1    1    2    0    0 -0.48520719356E+02  0.55998380135E+01  0.32445355465E+03  0.35111355360E+03  0.12500000000E+03 0.  0.
         25    1    1    2    0    0  0.79121504081E+02 -0.19046928178E+02 -0.67589413213E+02  0.16375691332E+03  0.12500000000E+03 0.  0.
         25    1    1    2    0    0 -0.30600784725E+02  0.13447090164E+02  0.81835980210E+02  0.15309918327E+03  0.12500000000E+03 0.  0.
</event>
<event>
 5    0  0.5612316E-005  0.4230081E+03  0.7546771E-02  0.1036092E+00
         21   -1    0    0  502  501  0.00000000000E+00  0.00000000000E+00  0.57749352461E+03  0.57749352461E+03  0.00000000000E+00 0. -1.
         21   -1    0    0  501  502 -0.00000000000E+00 -0.00000000000E+00 -0.30984912293E+03  0.30984912293E+03  0.00000000000E+00 0. -1.
         25    1    1    2    0    0 -0.24515873248E+03 -0.53404269331E+00  0.13076428581E+03  0.30467587328E+03  0.12500000000E+03 0.  0.
         25    1    1    2    0    0  0.20885769383E+03 -0.39464521875E+02  0.28807003297E+03  0.37919431516E+03  0.12500000000E+03 0.  0.
         25    1    1    2    0    0  0.36301038651E+02  0.39998564568E+02 -0.15118991710E+03  0.20347245909E+03  0.12500000000E+03 0.  0.
</event>
<event>
 5    0  0.5612316E-005  0.3084404E+03  0.7546771E-02  0.1081096E+00
         21   -1    0    0  502  501  0.00000000000E+00  0.00000000000E+00  0.10808780653E+04  0.10808780653E+04  0.00000000000E+00 0. -1.
         21   -1    0    0  501  502 -0.00000000000E+00 -0.00000000000E+00 -0.88016876327E+02  0.88016876327E+02  0.00000000000E+00 0. -1.
         25    1    1    2    0    0  0.17031132084E+03  0.58192998703E+02  0.35934392412E+03  0.42088647746E+03  0.12500000000E+03 0.  0.
         25    1    1    2    0    0 -0.13217421142E+03 -0.11734881095E+03  0.52577859710E+03  0.56860258421E+03  0.12500000000E+03 0.  0.
         25    1    1    2    0    0 -0.38137109415E+02  0.59155812251E+02  0.10773866776E+03  0.17940587997E+03  0.12500000000E+03 0.  0.
</event>
<event>
 5    0  0.5612316E-005  0.5413480E+03  0.7546771E-02  0.1003517E+00
         21   -1    0    0  502  501  0.00000000000E+00  0.00000000000E+00  0.94720032319E+02  0.94720032319E+02  0.00000000000E+00 0. -1.
         21   -1    0    0  501  502 -0.00000000000E+00 -0.00000000000E+00 -0.30939352507E+04  0.30939352507E+04  0.00000000000E+00 0. -1.
         25    1    1    2    0    0 -0.28738262581E+03 -0.18950562444E+03 -0.15299706744E+04  0.15731930650E+04  0.12500000000E+03 0.  0.
         25    1    1    2    0    0  0.20644784329E+03  0.29093368678E+03 -0.13437102706E+04  0.13958672621E+04  0.12500000000E+03 0.  0.
         25    1    1    2    0    0  0.80934782521E+02 -0.10142806235E+03 -0.12553427335E+03  0.21959495586E+03  0.12500000000E+03 0.  0.
</event>
<event>
 5    0  0.6037719E-005  0.4395765E+03  0.7546771E-02  0.1030877E+00
         21   -1    0    0  502  501  0.00000000000E+00  0.00000000000E+00  0.57313398474E+03  0.57313398474E+03  0.00000000000E+00 0.  1.
         21   -1    0    0  501  502 -0.00000000000E+00 -0.00000000000E+00 -0.33714200638E+03  0.33714200638E+03  0.00000000000E+00 0.  1.
         25    1    1    2    0    0 -0.21486476671E+03  0.17041536022E+03 -0.85251378553E+02  0.31321088825E+03  0.12500000000E+03 0.  0.
         25    1    1    2    0    0 -0.30624155011E+01 -0.21257596259E+03  0.13205115463E+03  0.27975064914E+03  0.12500000000E+03 0.  0.
         25    1    1    2    0    0  0.21792718222E+03  0.42160602369E+02  0.18919220228E+03  0.31731445372E+03  0.12500000000E+03 0.  0.
</event>
<event>
 5    0  0.5612316E-005  0.3178756E+03  0.7546771E-02  0.1076631E+00
         21   -1    0    0  502  501  0.00000000000E+00  0.00000000000E+00  0.12623650357E+04  0.12623650357E+04  0.00000000000E+00 0. -1.
         21   -1    0    0  501  502 -0.00000000000E+00 -0.00000000000E+00 -0.80044102009E+02  0.80044102009E+02  0.00000000000E+00 0. -1.
         25    1    1    2    0    0 -0.14928003940E+03 -0.14470823456E+03  0.44922863058E+03  0.51054516533E+03  0.12500000000E+03 0.  0.
         25    1    1    2    0    0 -0.33492985099E+02  0.10207487566E+03  0.35969692125E+03  0.39566138989E+03  0.12500000000E+03 0.  0.
         25    1    1    2    0    0  0.18277302449E+03  0.42633358894E+02  0.37339538185E+03  0.43620258248E+03  0.12500000000E+03 0.  0.
</event>
<event>
 5    0  0.5612316E-005  0.2379027E+03  0.7546771E-02  0.1121198E+00
         21   -1    0    0  502  501  0.00000000000E+00  0.00000000000E+00  0.18112878348E+03  0.18112878348E+03  0.00000000000E+00 0. -1.
         21   -1    0    0  501  502 -0.00000000000E+00 -0.00000000000E+00 -0.31247212374E+03  0.31247212374E+03  0.00000000000E+00 0. -1.
         25    1    1    2    0    0 -0.67634824784E+02 -0.35906993452E+02 -0.14201877986E+03  0.20410319825E+03  0.12500000000E+03 0.  0.
         25    1    1    2    0    0  0.12637266650E+02  0.84436208684E+00 -0.51010871257E+02  0.13560059897E+03  0.12500000000E+03 0.  0.
         25    1    1    2    0    0  0.54997558134E+02  0.35062631365E+02  0.61686310851E+02  0.15389711000E+03  0.12500000000E+03 0.  0.
</event>
<event>
 5    0  0.5612316E-005  0.3347981E+03  0.7546771E-02  0.1069033E+00
         21   -1    0    0  502  501  0.00000000000E+00  0.00000000000E+00  0.38447832662E+03  0.38447832662E+03  0.00000000000E+00 0. -1.
         21   -1    0    0  501  502 -0.00000000000E+00 -0.00000000000E+00 -0.29153725130E+03  0.29153725130E+03  0.00000000000E+00 0. -1.
         25    1    1    2    0    0  0.23934306885E+03  0.66157007628E+01  0.57290485097E+01  0.27016049693E+03  0.12500000000E+03 0.  0.
         25    1    1    2    0    0 -0.73812331437E+02 -0.70660130842E+02  0.97353216225E+02  0.18853053618E+03  0.12500000000E+03 0.  0.
         25    1    1    2    0    0 -0.16553073742E+03  0.64044430079E+02 -0.10141189417E+02  0.21732454481E+03  0.12500000000E+03 0.  0.
</event>
<event>
 5    0  0.5612316E-005  0.2253513E+03  0.7546771E-02  0.1129955E+00
         21   -1    0    0  502  501  0.00000000000E+00  0.00000000000E+00  0.46547821604E+03  0.46547821604E+03  0.00000000000E+00 0.  1.
         21   -1    0    0  501  502 -0.00000000000E+00 -0.00000000000E+00 -0.10909903260E+03  0.10909903260E+03  0.00000000000E+00 0.  1.
         25    1    1    2    0    0 -0.37869316567E+02  0.63961552969E+02  0.14829884978E+03  0.20770824308E+03  0.12500000000E+03 0.  0.
         25    1    1    2    0    0  0.67407553732E+02 -0.49984318098E+02  0.17997802792E+03  0.23464718385E+03  0.12500000000E+03 0.  0.
         25    1    1    2    0    0 -0.29538237165E+02 -0.13977234871E+02  0.28102305737E+02  0.13222182171E+03  0.12500000000E+03 0.  0.
</event>
<event>
 5    0  0.5612316E-005  0.2334250E+03  0.7546771E-02  0.1124252E+00
         21   -1    0    0  502  501  0.00000000000E+00  0.00000000000E+00  0.37783216590E+03  0.37783216590E+03  0.00000000000E+00 0.  1.
         21   -1    0    0  501  502 -0.00000000000E+00 -0.00000000000E+00 -0.14421019332E+03  0.14421019332E+03  0.00000000000E+00 0.  1.
         25    1    1    2    0    0 -0.65170571013E+01  0.54347419418E+02  0.49943672754E+02  0.14531168046E+03  0.12500000000E+03 0.  0.
         25    1    1    2    0    0  0.34595565312E+02 -0.11553356591E+03  0.15301566795E+03  0.23148143042E+03  0.12500000000E+03 0.  0.
         25    1    1    2    0    0 -0.28078508210E+02  0.61186146494E+02  0.30662631871E+02  0.14524924833E+03  0.12500000000E+03 0.  0.
</event>
<event>
 5    0  0.5612316E-005  0.2430043E+03  0.7546771E-02  0.1117807E+00
         21   -1    0    0  502  501  0.00000000000E+00  0.00000000000E+00  0.13937434911E+03  0.13937434911E+03  0.00000000000E+00 0. -1.
         21   -1    0    0  501  502 -0.00000000000E+00 -0.00000000000E+00 -0.42368688215E+03  0.42368688215E+03  0.00000000000E+00 0. -1.
         25    1    1    2    0    0  0.27620750142E+02  0.63398130495E-01 -0.16094396368E+03  0.20564743933E+03  0.12500000000E+03 0.  0.
         25    1    1    2    0    0  0.87196384755E+02 -0.45278706047E+02 -0.46255861700E+02  0.16558374159E+03  0.12500000000E+03 0.  0.
         25    1    1    2    0    0 -0.11481713490E+03  0.45215307917E+02 -0.77112707657E+02  0.19183005035E+03  0.12500000000E+03 0.  0.
</event>
<event>
 5    0  0.5612316E-005  0.3828943E+03  0.7546771E-02  0.1049869E+00
         21   -1    0    0  502  501  0.00000000000E+00  0.00000000000E+00  0.28535774809E+03  0.28535774809E+03  0.00000000000E+00 0. -1.
         21   -1    0    0  501  502 -0.00000000000E+00 -0.00000000000E+00 -0.51376925919E+03  0.51376925919E+03  0.00000000000E+00 0. -1.
         25    1    1    2    0    0 -0.99955367199E+02 -0.20041561171E+03 -0.16469772121E+01  0.25648626744E+03  0.12500000000E+03 0.  0.
         25    1    1    2    0    0  0.22933530109E+03  0.16688227592E+03 -0.13932265698E+03  0.33982374415E+03  0.12500000000E+03 0.  0.
         25    1    1    2    0    0 -0.12937993389E+03  0.33533335790E+02 -0.87441876906E+02  0.20281699569E+03  0.12500000000E+03 0.  0.
</event>
<event>
 5    0  0.5612316E-005  0.3151924E+03  0.7546771E-02  0.1077883E+00
         21   -1    0    0  502  501  0.00000000000E+00  0.00000000000E+00  0.33562196842E+03  0.33562196842E+03  0.00000000000E+00 0.  1.
         21   -1    0    0  501  502 -0.00000000000E+00 -0.00000000000E+00 -0.29600641006E+03  0.29600641006E+03  0.00000000000E+00 0.  1.
         25    1    1    2    0    0 -0.68409739835E+02 -0.22525590085E+02  0.14759203280E+03  0.20638726428E+03  0.12500000000E+03 0.  0.
         25    1    1    2    0    0  0.18392085417E+03 -0.46993139994E+02 -0.65688022289E+02  0.23659068468E+03  0.12500000000E+03 0.  0.
         25    1    1    2    0    0 -0.11551111434E+03  0.69518730079E+02 -0.42288452151E+02  0.18865042951E+03  0.12500000000E+03 0.  0.
</event>
<event>
 5    0  0.5612316E-005  0.2834046E+03  0.7546771E-02  0.1093844E+00
         21   -1    0    0  502  501  0.00000000000E+00  0.00000000000E+00  0.17817243542E+03  0.17817243542E+03  0.00000000000E+00 0. -1.
         21   -1    0    0  501  502 -0.00000000000E+00 -0.00000000000E+00 -0.45078908845E+03  0.45078908845E+03  0.00000000000E+00 0. -1.
         25    1    1    2    0    0 -0.71965559158E+02  0.84446546052E+02 -0.28502294214E+03  0.33041388952E+03  0.12500000000E+03 0.  0.
         25    1    1    2    0    0  0.97427758343E+02 -0.48137991451E+02  0.50528745060E+01  0.16571048807E+03  0.12500000000E+03 0.  0.
         25    1    1    2    0    0 -0.25462199186E+02 -0.36308554602E+02  0.73534146015E+01  0.13283714628E+03  0.12500000000E+03 0.  0.
</event>
<event>
 5    0  0.5612316E-005  0.3395329E+03  0.7546771E-02  0.1066995E+00
         21   -1    0    0  502  501  0.00000000000E+00  0.00000000000E+00  0.80171409336E+02  0.80171409336E+02  0.00000000000E+00 0.  1.
         21   -1    0    0  501  502 -0.00000000000E+00 -0.00000000000E+00 -0.14379515926E+04  0.14379515926E+04  0.00000000000E+00 0.  1.
         25    1    1    2    0    0  0.24387150421E+02  0.30484467769E+02 -0.67291021634E+02  0.14723150978E+03  0.12500000000E+03 0.  0.
         25    1    1    2    0    0 -0.15501219360E+01 -0.19999289077E+03 -0.50539837812E+03  0.55772043161E+03  0.12500000000E+03 0.  0.
         25    1    1    2    0    0 -0.22837028485E+02  0.16950842300E+03 -0.78509078350E+03  0.81317106052E+03  0.12500000000E+03 0.  0.
</event>
<event>
 5    0  0.5612316E-005  0.2599131E+03  0.7546771E-02  0.1107195E+00
         21   -1    0    0  502  501  0.00000000000E+00  0.00000000000E+00  0.91766487052E+02  0.91766487052E+02  0.00000000000E+00 0. -1.
         21   -1    0    0  501  502 -0.00000000000E+00 -0.00000000000E+00 -0.73616013631E+03  0.73616013631E+03  0.00000000000E+00 0. -1.
         25    1    1    2    0    0 -0.14825971217E+02 -0.74010798036E+02 -0.37093841487E+03  0.39864484855E+03  0.12500000000E+03 0.  0.
         25    1    1    2    0    0 -0.60314958381E+02  0.11109334721E+03 -0.12088663466E+03  0.21498419579E+03  0.12500000000E+03 0.  0.
         25    1    1    2    0    0  0.75140929598E+02 -0.37082549171E+02 -0.15256859972E+03  0.21429757902E+03  0.12500000000E+03 0.  0.
</event>
<event>
 5    0  0.5612316E-005  0.3102645E+03  0.7546771E-02  0.1080219E+00
         21   -1    0    0  502  501  0.00000000000E+00  0.00000000000E+00  0.24685645310E+04  0.24685645310E+04  0.00000000000E+00 0. -1.
         21   -1    0    0  501  502 -0.00000000000E+00 -0.00000000000E+00 -0.38995959577E+02  0.38995959577E+02  0.00000000000E+00 0. -1.
         25    1    1    2    0    0  0.16146624394E+02  0.21954386610E+03  0.11144064164E+04  0.11427978315E+04  0.12500000000E+03 0.  0.
         25    1    1    2    0    0 -0.16267517280E+02 -0.20230735070E+03  0.85006491810E+03  0.88285234397E+03  0.12500000000E+03 0.  0.
         25    1    1    2    0    0  0.12089288588E+00 -0.17236515407E+02  0.46509723692E+03  0.48191031517E+03  0.12500000000E+03 0.  0.
</event>
<event>
 5    0  0.5612316E-005  0.3732862E+03  0.7546771E-02  0.1053443E+00
         21   -1    0    0  502  501  0.00000000000E+00  0.00000000000E+00  0.27801192126E+03  0.27801192126E+03  0.00000000000E+00 0.  1.
         21   -1    0    0  501  502 -0.00000000000E+00 -0.00000000000E+00 -0.50121088860E+03  0.50121088860E+03  0.00000000000E+00 0.  1.
         25    1    1    2    0    0 -0.29616298263E+02 -0.36917669270E+02 -0.29558583928E+03  0.32440102930E+03  0.12500000000E+03 0.  0.
         25    1    1    2    0    0 -0.10995522143E+03  0.14831166683E+03  0.79551008980E+02  0.23672740498E+03  0.12500000000E+03 0.  0.
         25    1    1    2    0    0  0.13957151969E+03 -0.11139399756E+03 -0.71641370414E+01  0.21809437558E+03  0.12500000000E+03 0.  0.
</event>
<event>
 5    0  0.5612316E-005  0.3171009E+03  0.7546771E-02  0.1076991E+00
         21   -1    0    0  502  501  0.00000000000E+00  0.00000000000E+00  0.38120844361E+02  0.38120844361E+02  0.00000000000E+00 0.  1.
         21   -1    0    0  501  502 -0.00000000000E+00 -0.00000000000E+00 -0.26377430141E+04  0.26377430141E+04  0.00000000000E+00 0.  1.
         25    1    1    2    0    0  0.15384925406E+03 -0.11266192082E+03 -0.12074486704E+04  0.12287878551E+04  0.12500000000E+03 0.  0.
         25    1    1    2    0    0 -0.10547823548E+03  0.16609214733E+03 -0.63862658701E+03  0.67983908185E+03  0.12500000000E+03 0.  0.
         25    1    1    2    0    0 -0.48371018578E+02 -0.53430226516E+02 -0.75354691239E+03  0.76723692150E+03  0.12500000000E+03 0.  0.
</event>
<event>
 5    0  0.5612316E-005  0.3074840E+03  0.7546771E-02  0.1081558E+00
         21   -1    0    0  502  501  0.00000000000E+00  0.00000000000E+00  0.43639225028E+03  0.43639225028E+03  0.00000000000E+00 0. -1.
         21   -1    0    0  501  502 -0.00000000000E+00 -0.00000000000E+00 -0.21665471670E+03  0.21665471670E+03  0.00000000000E+00 0. -1.
         25    1    1    2    0    0  0.16224172516E+02 -0.11118124229E+03 -0.57143098571E+02  0.17752415646E+03  0.12500000000E+03 0.  0.
         25    1    1    2    0    0  0.19027908955E+02 -0.72211434553E+02  0.44499006538E+02  0.15225542415E+03  0.12500000000E+03 0.  0.
         25    1    1    2    0    0 -0.35252081470E+02  0.18339267685E+03  0.23238162562E+03  0.32326738638E+03  0.12500000000E+03 0.  0.
</event>
<event>
 5    0  0.5612316E-005  0.3772926E+03  0.7546771E-02  0.1051939E+00
         21   -1    0    0  502  501  0.00000000000E+00  0.00000000000E+00  0.45582938346E+03  0.45582938346E+03  0.00000000000E+00 0.  1.
         21   -1    0    0  501  502 -0.00000000000E+00 -0.00000000000E+00 -0.31228721612E+03  0.31228721612E+03  0.00000000000E+00 0.  1.
         25    1    1    2    0    0  0.20211278416E+03  0.48509750203E+02  0.72912340528E+02  0.25326662391E+03  0.12500000000E+03 0.  0.
         25    1    1    2    0    0 -0.22776141312E+03 -0.17774637079E+03  0.10123891227E+03  0.33067106162E+03  0.12500000000E+03 0.  0.
         25    1    1    2    0    0  0.25648628954E+02  0.12923662059E+03 -0.30609085458E+02  0.18417891405E+03  0.12500000000E+03 0.  0.
</event>
<event>
 5    0  0.5612316E-005  0.3616222E+03  0.7546771E-02  0.1057943E+00
         21   -1    0    0  502  501  0.00000000000E+00  0.00000000000E+00  0.10585738339E+03  0.10585738339E+03  0.00000000000E+00 0. -1.
         21   -1    0    0  501  502 -0.00000000000E+00 -0.00000000000E+00 -0.12353472635E+04  0.12353472635E+04  0.00000000000E+00 0. -1.
         25    1    1    2    0    0 -0.15473254023E+03 -0.10504841994E+03 -0.83393509961E+03  0.86374190583E+03  0.12500000000E+03 0.  0.
         25    1    1    2    0    0  0.53055803491E+02  0.11113472468E+03 -0.25780647500E+03  0.31185737745E+03  0.12500000000E+03 0.  0.
         25    1    1    2    0    0  0.10167673674E+03 -0.60863047360E+01 -0.37748305551E+02  0.16560536366E+03  0.12500000000E+03 0.  0.
</event>
<event>
 5    0  0.6107300E-005  0.3548575E+03  0.7546771E-02  0.1060639E+00
         21   -1    0    0  502  501  0.00000000000E+00  0.00000000000E+00  0.11062582738E+03  0.11062582738E+03  0.00000000000E+00 0.  1.
         21   -1    0    0  501  502 -0.00000000000E+00 -0.00000000000E+00 -0.11382860072E+04  0.11382860072E+04  0.00000000000E+00 0.  1.
         25    1    1    2    0    0  0.21078342779E+02  0.51832154882E+02 -0.68129278995E+03  0.69492138725E+03  0.12500000000E+03 0.  0.
         25    1    1    2    0    0  0.16122765805E+03 -0.42510622580E+02 -0.19912829476E+03  0.28823356593E+03  0.12500000000E+03 0.  0.
         25    1    1    2    0    0 -0.18230600082E+03 -0.93215323029E+01 -0.14723909514E+03  0.26575688145E+03  0.12500000000E+03 0.  0.
</event>
<event>
 5    0  0.5612316E-005  0.2514806E+03  0.7546771E-02  0.1112373E+00
         21   -1    0    0  502  501  0.00000000000E+00  0.00000000000E+00  0.57907109191E+02  0.57907109191E+02  0.00000000000E+00 0.  1.
         21   -1    0    0  501  502 -0.00000000000E+00 -0.00000000000E+00 -0.10921371068E+04  0.10921371068E+04  0.00000000000E+00 0.  1.
         25    1    1    2    0    0  0.47053771528E+02 -0.51409964788E+02 -0.15177430560E+03  0.20860844119E+03  0.12500000000E+03 0.  0.
         25    1    1    2    0    0 -0.10333879012E+03 -0.38097030225E+01 -0.61308063477E+03  0.63418158607E+03  0.12500000000E+03 0.  0.
         25    1    1    2    0    0  0.56285018590E+02  0.55219667811E+02 -0.26937505723E+03  0.30725418872E+03  0.12500000000E+03 0.  0.
</event>
<event>
 5    0  0.5612316E-005  0.4920435E+03  0.7546771E-02  0.1015877E+00
         21   -1    0    0  502  501  0.00000000000E+00  0.00000000000E+00  0.25667431401E+04  0.25667431401E+04  0.00000000000E+00 0. -1.
         21   -1    0    0  501  502 -0.00000000000E+00 -0.00000000000E+00 -0.94324525455E+02  0.94324525455E+02  0.00000000000E+00 0. -1.
         25    1    1    2    0    0  0.26107754290E+02  0.16637305105E+03  0.34767078974E+03  0.40603150738E+03  0.12500000000E+03 0.  0.
         25    1    1    2    0    0 -0.31847194838E+03 -0.87553206106E+02  0.60628259157E+03  0.70163632078E+03  0.12500000000E+03 0.  0.
         25    1    1    2    0    0  0.29236419409E+03 -0.78819844947E+02  0.15184652334E+04  0.15533998374E+04  0.12500000000E+03 0.  0.
</event>
<event>
 5    0  0.5612316E-005  0.2831899E+03  0.7546771E-02  0.1093959E+00
         21   -1    0    0  502  501  0.00000000000E+00  0.00000000000E+00  0.84198427601E+02  0.84198427601E+02  0.00000000000E+00 0. -1.
         21   -1    0    0  501  502 -0.00000000000E+00 -0.00000000000E+00 -0.95247075849E+03  0.95247075849E+03  0.00000000000E+00 0. -1.
         25    1    1    2    0    0 -0.41233788691E+02  0.43126971073E+01 -0.28755615642E+02  0.13479877639E+03  0.12500000000E+03 0.  0.
         25    1    1    2    0    0 -0.13206326468E+02  0.26366783347E+02 -0.66989109928E+03  0.68209141559E+03  0.12500000000E+03 0.  0.
         25    1    1    2    0    0  0.54440115159E+02 -0.30679480455E+02 -0.16962561596E+03  0.21977899411E+03  0.12500000000E+03 0.  0.
</event>
<event>
 5    0  0.5612316E-005  0.4171522E+03  0.7546771E-02  0.1037997E+00
         21   -1    0    0  502  501  0.00000000000E+00  0.00000000000E+00  0.28638624283E+03  0.28638624283E+03  0.00000000000E+00 0.  1.
         21   -1    0    0  501  502 -0.00000000000E+00 -0.00000000000E+00 -0.60762679889E+03  0.60762679889E+03  0.00000000000E+00 0.  1.
         25    1    1    2    0    0  0.27571978730E+03  0.11266062561E+03 -0.15134559323E+03  0.35671319889E+03  0.12500000000E+03 0.  0.
         25    1    1    2    0    0 -0.27426997261E+03  0.48973210509E+02 -0.10478936565E+03  0.32284393192E+03  0.12500000000E+03 0.  0.
         25    1    1    2    0    0 -0.14498146911E+01 -0.16163383612E+03 -0.65105597183E+02  0.21445591091E+03  0.12500000000E+03 0.  0.
</event>
<event>
 5    0  0.5612316E-005  0.3361842E+03  0.7546771E-02  0.1068433E+00
         21   -1    0    0  502  501  0.00000000000E+00  0.00000000000E+00  0.93884040153E+03  0.93884040153E+03  0.00000000000E+00 0.  1.
         21   -1    0    0  501  502 -0.00000000000E+00 -0.00000000000E+00 -0.12038238617E+03  0.12038238617E+03  0.00000000000E+00 0.  1.
         25    1    1    2    0    0  0.14321055075E+02 -0.15705332287E+03  0.51438337049E+03  0.55234598820E+03  0.12500000000E+03 0.  0.
         25    1    1    2    0    0 -0.13356085375E+03  0.10028538317E+03  0.93373339944E+02  0.22855905221E+03  0.12500000000E+03 0.  0.
         25    1    1    2    0    0  0.11923979868E+03  0.56767939700E+02  0.21070130492E+03  0.27831774730E+03  0.12500000000E+03 0.  0.
</event>
<event>
 5    0  0.5612316E-005  0.2712993E+03  0.7546771E-02  0.1100538E+00
         21   -1    0    0  502  501  0.00000000000E+00  0.00000000000E+00  0.47504650993E+02  0.47504650993E+02  0.00000000000E+00 0. -1.
         21   -1    0    0  501  502 -0.00000000000E+00 -0.00000000000E+00 -0.15493913204E+04  0.15493913204E+04  0.00000000000E+00 0. -1.
         25    1    1    2    0    0 -0.11183415528E+03 -0.61164207265E+02 -0.45912113944E+03  0.49261055533E+03  0.12500000000E+03 0.  0.
         25    1    1    2    0    0  0.12657401839E+03  0.11918818375E+03 -0.49640338295E+03  0.54061827927E+03  0.12500000000E+03 0.  0.
         25    1    1    2    0    0 -0.14739863118E+02 -0.58023976486E+02 -0.54636214706E+03  0.56366713684E+03  0.12500000000E+03 0.  0.
</event>
<event>
 5    0  0.5612316E-005  0.2753985E+03  0.7546771E-02  0.1098229E+00
         21   -1    0    0  502  501  0.00000000000E+00  0.00000000000E+00  0.11781311497E+03  0.11781311497E+03  0.00000000000E+00 0.  1.
         21   -1    0    0  501  502 -0.00000000000E+00 -0.00000000000E+00 -0.64376820213E+03  0.64376820213E+03  0.00000000000E+00 0.  1.
         25    1    1    2    0    0 -0.50574499145E+02 -0.19204549917E+02 -0.11481952811E+03  0.17814353408E+03  0.12500000000E+03 0.  0.
         25    1    1    2    0    0  0.67969391000E+02  0.70781953456E+02 -0.93972890209E+01  0.15919557811E+03  0.12500000000E+03 0.  0.
         25    1    1    2    0    0 -0.17394891855E+02 -0.51577403539E+02 -0.40173827003E+03  0.42424220491E+03  0.12500000000E+03 0.  0.
</event>
<event>
 5    0  0.5612316E-005  0.5007337E+03  0.7546771E-02  0.1013588E+00
         21   -1    0    0  502  501  0.00000000000E+00  0.00000000000E+00  0.18969311024E+03  0.18969311024E+03  0.00000000000E+00 0.  1.
         21   -1    0    0  501  502 -0.00000000000E+00 -0.00000000000E+00 -0.13217888951E+04  0.13217888951E+04  0.00000000000E+00 0.  1.
         25    1    1    2    0    0  0.46106602782E+02 -0.10971781481E+03  0.84107498588E+02  0.19199710682E+03  0.12500000000E+03 0.  0.
         25    1    1    2    0    0  0.78450341217E+02 -0.11979672386E+03 -0.72318130457E+03  0.74774454887E+03  0.12500000000E+03 0.  0.
         25    1    1    2    0    0 -0.12455694400E+03  0.22951453867E+03 -0.49302197890E+03  0.57174034967E+03  0.12500000000E+03 0.  0.
</event>
<event>
 5    0  0.5612316E-005  0.2692353E+03  0.7546771E-02  0.1101718E+00
         21   -1    0    0  502  501  0.00000000000E+00  0.00000000000E+00  0.74815319247E+03  0.74815319247E+03  0.00000000000E+00 0.  1.
         21   -1    0    0  501  502 -0.00000000000E+00 -0.00000000000E+00 -0.96888804708E+02  0.96888804708E+02  0.00000000000E+00 0.  1.
         25    1    1    2    0    0 -0.70614765734E+02  0.50615484092E+02  0.30153315930E+02  0.15518567856E+03  0.12500000000E+03 0.  0.
         25    1    1    2    0    0 -0.15533003984E+02 -0.45908768225E+02  0.39783911983E+03  0.41982121728E+03  0.12500000000E+03 0.  0.
         25    1    1    2    0    0  0.86147769718E+02 -0.47067158670E+01  0.22327195200E+03  0.27003510133E+03  0.12500000000E+03 0.  0.
</event>
<event>
 5    0  0.5612316E-005  0.3814201E+03  0.7546771E-02  0.1050410E+00
         21   -1    0    0  502  501  0.00000000000E+00  0.00000000000E+00  0.16494708520E+03  0.16494708520E+03  0.00000000000E+00 0. -1.
         21   -1    0    0  501  502 -0.00000000000E+00 -0.00000000000E+00 -0.88198772156E+03  0.88198772156E+03  0.00000000000E+00 0. -1.
         25    1    1    2    0    0  0.32047041584E+02  0.13897800116E+03 -0.61188045306E+02  0.19927587553E+03  0.12500000000E+03 0.  0.
         25    1    1    2    0    0  0.22905669095E+02  0.39696004105E+02 -0.60183617129E+03  0.61638642060E+03  0.12500000000E+03 0.  0.
         25    1    1    2    0    0 -0.54952710679E+02 -0.17867400527E+03 -0.54016419767E+02  0.23127251063E+03  0.12500000000E+03 0.  0.
</event>
<event>
 5    0  0.5612316E-005  0.5068186E+03  0.7546771E-02  0.1012014E+00
         21   -1    0    0  502  501  0.00000000000E+00  0.00000000000E+00  0.45036856705E+03  0.45036856705E+03  0.00000000000E+00 0. -1.
         21   -1    0    0  501  502 -0.00000000000E+00 -0.00000000000E+00 -0.57034421497E+03  0.57034421497E+03  0.00000000000E+00 0. -1.
         25    1    1    2    0    0 -0.46803082880E+02 -0.15010727318E+03 -0.13031408422E+03  0.23943575876E+03  0.12500000000E+03 0.  0.
         25    1    1    2    0    0  0.26356209555E+03  0.35378223284E+03  0.20824049633E+01  0.45853700276E+03  0.12500000000E+03 0.  0.
         25    1    1    2    0    0 -0.21675901267E+03 -0.20367495966E+03  0.82560313394E+01  0.32274002049E+03  0.12500000000E+03 0.  0.
</event>
<event>
 5    0  0.5612316E-005  0.2146731E+03  0.7546771E-02  0.1137918E+00
         21   -1    0    0  502  501  0.00000000000E+00  0.00000000000E+00  0.22993814838E+03  0.22993814838E+03  0.00000000000E+00 0. -1.
         21   -1    0    0  501  502 -0.00000000000E+00 -0.00000000000E+00 -0.20042138803E+03  0.20042138803E+03  0.00000000000E+00 0. -1.
         25    1    1    2    0    0  0.89682493420E+02  0.52170581049E+01  0.32197864697E+02  0.15726369515E+03  0.12500000000E+03 0.  0.
         25    1    1    2    0    0 -0.38133598225E+02  0.22724586054E+02  0.16615869016E+02  0.13368494765E+03  0.12500000000E+03 0.  0.
         25    1    1    2    0    0 -0.51548895194E+02 -0.27941644159E+02 -0.19296973364E+02  0.13941089360E+03  0.12500000000E+03 0.  0.
</event>
<event>
 5    0  0.6556140E-005  0.2931560E+03  0.7546771E-02  0.1088713E+00
         21   -1    0    0  502  501  0.00000000000E+00  0.00000000000E+00  0.28671823405E+03  0.28671823405E+03  0.00000000000E+00 0.  1.
         21   -1    0    0  501  502 -0.00000000000E+00 -0.00000000000E+00 -0.29973838489E+03  0.29973838489E+03  0.00000000000E+00 0.  1.
         25    1    1    2    0    0  0.16645780773E+03  0.65971651478E+02 -0.75528154221E+02  0.23106268118E+03  0.12500000000E+03 0.  0.
         25    1    1    2    0    0 -0.30604705963E+02 -0.86607217951E+02 -0.11245343746E+02  0.15552786240E+03  0.12500000000E+03 0.  0.
         25    1    1    2    0    0 -0.13585310177E+03  0.20635566473E+02  0.73753347133E+02  0.19986607535E+03  0.12500000000E+03 0.  0.
</event>
<event>
 5    0  0.5612316E-005  0.3068372E+03  0.7546771E-02  0.1081872E+00
         21   -1    0    0  502  501  0.00000000000E+00  0.00000000000E+00  0.77265500491E+03  0.77265500491E+03  0.00000000000E+00 0.  1.
         21   -1    0    0  501  502 -0.00000000000E+00 -0.00000000000E+00 -0.12185136268E+03  0.12185136268E+03  0.00000000000E+00 0.  1.
         25    1    1    2    0    0 -0.97297533317E+02 -0.48568426621E+02  0.65775553827E+02  0.17826139665E+03  0.12500000000E+03 0.  0.
         25    1    1    2    0    0 -0.10168717755E+03  0.56132346769E+02  0.18072932846E+03  0.24855424478E+03  0.12500000000E+03 0.  0.
         25    1    1    2    0    0  0.19898471087E+03 -0.75639201478E+01  0.40429875994E+03  0.46769072616E+03  0.12500000000E+03 0.  0.
</event>
<event>
 5    0  0.5612316E-005  0.2745181E+03  0.7546771E-02  0.1098721E+00
         21   -1    0    0  502  501  0.00000000000E+00  0.00000000000E+00  0.16041283079E+03  0.16041283079E+03  0.00000000000E+00 0.  1.
         21   -1    0    0  501  502 -0.00000000000E+00 -0.00000000000E+00 -0.46978905245E+03  0.46978905245E+03  0.00000000000E+00 0.  1.
         25    1    1    2    0    0  0.91442647353E+02  0.25698585072E+02 -0.18349774851E+03  0.24149244033E+03  0.12500000000E+03 0.  0.
         25    1    1    2    0    0 -0.43040912871E+02 -0.10612894490E+03 -0.15498735447E+03  0.22969970216E+03  0.12500000000E+03 0.  0.
         25    1    1    2    0    0 -0.48401734482E+02  0.80430359824E+02  0.29108881312E+02  0.15900974075E+03  0.12500000000E+03 0.  0.
</event>
<event>
 5    0  0.5612316E-005  0.2984567E+03  0.7546771E-02  0.1086015E+00
         21   -1    0    0  502  501  0.00000000000E+00  0.00000000000E+00  0.45957001860E+02  0.45957001860E+02  0.00000000000E+00 0.  1.
         21   -1    0    0  501  502 -0.00000000000E+00 -0.00000000000E+00 -0.19382551411E+04  0.19382551411E+04  0.00000000000E+00 0.  1.
         25    1    1    2    0    0 -0.58798965555E+02  0.91949028868E+02 -0.69605783251E+03  0.71556512523E+03  0.12500000000E+03 0.  0.
         25    1    1    2    0    0  0.10807434464E+03  0.92902796907E+02 -0.63415300289E+03  0.66188067257E+03  0.12500000000E+03 0.  0.
         25    1    1    2    0    0 -0.49275379089E+02 -0.18485182578E+03 -0.56208730387E+03  0.60676634519E+03  0.12500000000E+03 0.  0.
</event>
<event>
 5    0  0.5612316E-005  0.6210445E+03  0.7546771E-02  0.9862682E-01
         21   -1    0    0  502  501  0.00000000000E+00  0.00000000000E+00  0.64177780879E+03  0.64177780879E+03  0.00000000000E+00 0.  1.
         21   -1    0    0  501  502 -0.00000000000E+00 -0.00000000000E+00 -0.60098093330E+03  0.60098093330E+03  0.00000000000E+00 0.  1.
         25    1    1    2    0    0  0.97578979671E+02  0.54837624270E+02 -0.20711343015E+02  0.16906443162E+03  0.12500000000E+03 0.  0.
         25    1    1    2    0    0  0.27630408570E+03 -0.20379988084E+03  0.39366704270E+03  0.53710062345E+03  0.12500000000E+03 0.  0.
         25    1    1    2    0    0 -0.37388306537E+03  0.14896225657E+03 -0.33215882419E+03  0.53659368702E+03  0.12500000000E+03 0.  0.
</event>
<event>
 5    0  0.5612316E-005  0.2524075E+03  0.7546771E-02  0.1111793E+00
         21   -1    0    0  502  501  0.00000000000E+00  0.00000000000E+00  0.14489763683E+03  0.14489763683E+03  0.00000000000E+00 0.  1.
         21   -1    0    0  501  502 -0.00000000000E+00 -0.00000000000E+00 -0.43968670868E+03  0.43968670868E+03  0.00000000000E+00 0.  1.
         25    1    1    2    0    0 -0.34025869127E+02 -0.35292019705E+02 -0.12968063823E+03  0.18666910391E+03  0.12500000000E+03 0.  0.
         25    1    1    2    0    0 -0.13402948114E+02 -0.32566624502E+02 -0.20508623947E+03  0.24274593646E+03  0.12500000000E+03 0.  0.
         25    1    1    2    0    0  0.47428817240E+02  0.67858644207E+02  0.39977805844E+02  0.15516930514E+03  0.12500000000E+03 0.  0.
</event>
<event>
 5    0  0.5612316E-005  0.3572849E+03  0.7546771E-02  0.1059664E+00
         21   -1    0    0  502  501  0.00000000000E+00  0.00000000000E+00  0.35723227134E+03  0.35723227134E+03  0.00000000000E+00 0. -1.
         21   -1    0    0  501  502 -0.00000000000E+00 -0.00000000000E+00 -0.35733751685E+03  0.35733751685E+03  0.00000000000E+00 0. -1.
         25    1    1    2    0    0 -0.11710137423E+03 -0.11610176521E+03 -0.20296723534E+03  0.28985004805E+03  0.12500000000E+03 0.  0.
         25    1    1    2    0    0 -0.51980939668E+02  0.42006157362E+02  0.35992918982E+02  0.14624303594E+03  0.12500000000E+03 0.  0.
         25    1    1    2    0    0  0.16908231389E+03  0.74095607849E+02  0.16686907085E+03  0.27847670420E+03  0.12500000000E+03 0.  0.
</event>
<event>
 5    0  0.5612316E-005  0.3371346E+03  0.7546771E-02  0.1068023E+00
         21   -1    0    0  502  501  0.00000000000E+00  0.00000000000E+00  0.21571348966E+03  0.21571348966E+03  0.00000000000E+00 0.  1.
         21   -1    0    0  501  502 -0.00000000000E+00 -0.00000000000E+00 -0.52690128552E+03  0.52690128552E+03  0.00000000000E+00 0.  1.
         25    1    1    2    0    0  0.33181406957E+02  0.26499577159E+03 -0.11439016260E+03  0.31628132102E+03  0.12500000000E+03 0.  0.
         25    1    1    2    0    0  0.30589519654E+02 -0.12022259284E+03 -0.81227281885E+02  0.19393829396E+03  0.12500000000E+03 0.  0.
         25    1    1    2    0    0 -0.63770926610E+02 -0.14477317875E+03 -0.11557035137E+03  0.23239516020E+03  0.12500000000E+03 0.  0.
</event>
<event>
 5    0  0.5612316E-005  0.3565660E+03  0.7546771E-02  0.1059952E+00
         21   -1    0    0  502  501  0.00000000000E+00  0.00000000000E+00  0.10531700819E+03  0.10531700819E+03  0.00000000000E+00 0.  1.
         21   -1    0    0  501  502 -0.00000000000E+00 -0.00000000000E+00 -0.12072058170E+04  0.12072058170E+04  0.00000000000E+00 0.  1.
         25    1    1    2    0    0 -0.73109519300E+02  0.20895105380E+03 -0.70628409022E+03  0.75064489660E+03  0.12500000000E+03 0.  0.
         25    1    1    2    0    0  0.10122287333E+03 -0.19815624417E+03 -0.18534114830E+03  0.31541767301E+03  0.12500000000E+03 0.  0.
         25    1    1    2    0    0 -0.28113354030E+02 -0.10794809631E+02 -0.21026357031E+03  0.24646025560E+03  0.12500000000E+03 0.  0.
</event>
<event>
 5    0  0.5612316E-005  0.3018456E+03  0.7546771E-02  0.1084322E+00
         21   -1    0    0  502  501  0.00000000000E+00  0.00000000000E+00  0.19319568292E+04  0.19319568292E+04  0.00000000000E+00 0. -1.
         21   -1    0    0  501  502 -0.00000000000E+00 -0.00000000000E+00 -0.47159838866E+02  0.47159838866E+02  0.00000000000E+00 0.  1.
         25    1    1    2    0    0 -0.11478815766E+03  0.10697575239E+03  0.72763880997E+03  0.75478697028E+03  0.12500000000E+03 0.  0.
         25    1    1    2    0    0  0.39926127995E+02 -0.12259932515E+03  0.97074055913E+03  0.98721169126E+03  0.12500000000E+03 0.  0.
         25    1    1    2    0    0  0.74862029665E+02  0.15623572759E+02  0.18641762126E+03  0.23711800654E+03  0.12500000000E+03 0.  0.
</event>
<event>
 5    0  0.5612316E-005  0.3448227E+03  0.7546771E-02  0.1064760E+00
         21   -1    0    0  502  501  0.00000000000E+00  0.00000000000E+00  0.11239825174E+03  0.11239825174E+03  0.00000000000E+00 0.  1.
         21   -1    0    0  501  502 -0.00000000000E+00 -0.00000000000E+00 -0.10578695188E+04  0.10578695188E+04  0.00000000000E+00 0.  1.
         25    1    1    2    0    0 -0.66940446430E+02 -0.80633317273E+02 -0.58777871470E+03  0.60999309232E+03  0.12500000000E+03 0.  0.
         25    1    1    2    0    0  0.81394240442E+02 -0.98489342571E+02 -0.55572392268E+02  0.18718563983E+03  0.12500000000E+03 0.  0.
         25    1    1    2    0    0 -0.14453794012E+02  0.17912265984E+03 -0.30212016010E+03  0.37308903840E+03  0.12500000000E+03 0.  0.
</event>
<event>
 5    0  0.5612316E-005  0.4862266E+03  0.7546771E-02  0.1017438E+00
         21   -1    0    0  502  501  0.00000000000E+00  0.00000000000E+00  0.33966929229E+03  0.33966929229E+03  0.00000000000E+00 0.  1.
         21   -1    0    0  501  502 -0.00000000000E+00 -0.00000000000E+00 -0.69601905667E+03  0.69601905667E+03  0.00000000000E+00 0.  1.
         25    1    1    2    0    0  0.26294878082E+03  0.25338246903E+03  0.17974542506E+02  0.38638429203E+03  0.12500000000E+03 0.  0.
         25    1    1    2    0    0 -0.15611142088E+03 -0.12756916924E+03 -0.18890746392E+02  0.23796329332E+03  0.12500000000E+03 0.  0.
         25    1    1    2    0    0 -0.10683735995E+03 -0.12581329978E+03 -0.35543356049E+03  0.41134076361E+03  0.12500000000E+03 0.  0.
</event>
<event>
 5    0  0.5612316E-005  0.4804127E+03  0.7546771E-02  0.1019022E+00
         21   -1    0    0  502  501  0.00000000000E+00  0.00000000000E+00  0.91492924415E+03  0.91492924415E+03  0.00000000000E+00 0. -1.
         21   -1    0    0  501  502 -0.00000000000E+00 -0.00000000000E+00 -0.25225599032E+03  0.25225599032E+03  0.00000000000E+00 0. -1.
         25    1    1    2    0    0 -0.56460956389E+02  0.11010145845E+03  0.24030109350E+03  0.29779151480E+03  0.12500000000E+03 0.  0.
         25    1    1    2    0    0 -0.23748586323E+03 -0.31493417547E+02  0.46487940799E+03  0.53770738748E+03  0.12500000000E+03 0.  0.
         25    1    1    2    0    0  0.29394681962E+03 -0.78608040899E+02 -0.42507247666E+02  0.33168633219E+03  0.12500000000E+03 0.  0.
</event>
<event>
 5    0  0.5612316E-005  0.3764173E+03  0.7546771E-02  0.1052266E+00
         21   -1    0    0  502  501  0.00000000000E+00  0.00000000000E+00  0.40122556920E+03  0.40122556920E+03  0.00000000000E+00 0. -1.
         21   -1    0    0  501  502 -0.00000000000E+00 -0.00000000000E+00 -0.35314297580E+03  0.35314297580E+03  0.00000000000E+00 0. -1.
         25    1    1    2    0    0  0.12429503705E+03 -0.82740156560E+02 -0.10293792931E+03  0.22026440255E+03  0.12500000000E+03 0.  0.
         25    1    1    2    0    0  0.12046836535E+03  0.61418212233E+02  0.17927334125E+03  0.25699952281E+03  0.12500000000E+03 0.  0.
         25    1    1    2    0    0 -0.24476340240E+03  0.21321944327E+02 -0.28252818533E+02  0.27710461963E+03  0.12500000000E+03 0.  0.
</event>
<event>
 5    0  0.5612316E-005  0.2655937E+03  0.7546771E-02  0.1103828E+00
         21   -1    0    0  502  501  0.00000000000E+00  0.00000000000E+00  0.85451595601E+03  0.85451595601E+03  0.00000000000E+00 0. -1.
         21   -1    0    0  501  502 -0.00000000000E+00 -0.00000000000E+00 -0.82549650660E+02  0.82549650660E+02  0.00000000000E+00 0. -1.
         25    1    1    2    0    0 -0.97710104712E+02 -0.24891848019E+02  0.27648880771E+03  0.31974666449E+03  0.12500000000E+03 0.  0.
         25    1    1    2    0    0 -0.59429523341E+02  0.57049949423E+02  0.29985440723E+03  0.33514807251E+03  0.12500000000E+03 0.  0.
         25    1    1    2    0    0  0.15713962805E+03 -0.32158101403E+02  0.19562309041E+03  0.28217086967E+03  0.12500000000E+03 0.  0.
</event>
<event>
 5    0  0.6301155E-005  0.2846928E+03  0.7546771E-02  0.1093153E+00
         21   -1    0    0  502  501  0.00000000000E+00  0.00000000000E+00  0.48494299235E+03  0.48494299235E+03  0.00000000000E+00 0. -1.
         21   -1    0    0  501  502 -0.00000000000E+00 -0.00000000000E+00 -0.16713299373E+03  0.16713299373E+03  0.00000000000E+00 0. -1.
         25    1    1    2    0    0 -0.64863738771E+02 -0.72979530640E+01  0.12984529719E+02  0.14161272096E+03  0.12500000000E+03 0.  0.
         25    1    1    2    0    0  0.14392353351E+03 -0.98454781288E+02  0.22800484221E+03  0.31307912024E+03  0.12500000000E+03 0.  0.
         25    1    1    2    0    0 -0.79059794734E+02  0.10575273435E+03  0.76820626687E+02  0.19738414488E+03  0.12500000000E+03 0.  0.
</event>
<event>
 5    0  0.5612316E-005  0.2539213E+03  0.7546771E-02  0.1110851E+00
         21   -1    0    0  502  501  0.00000000000E+00  0.00000000000E+00  0.11340607811E+04  0.11340607811E+04  0.00000000000E+00 0. -1.
         21   -1    0    0  501  502 -0.00000000000E+00 -0.00000000000E+00 -0.56854109244E+02  0.56854109244E+02  0.00000000000E+00 0. -1.
         25    1    1    2    0    0  0.34558845835E+02  0.54429642602E+02  0.29683658573E+03  0.32847200557E+03  0.12500000000E+03 0.  0.
         25    1    1    2    0    0  0.11342931902E+03 -0.23833876770E+02  0.33822440099E+03  0.37875455050E+03  0.12500000000E+03 0.  0.
         25    1    1    2    0    0 -0.14798816485E+03 -0.30595765831E+02  0.44214568509E+03  0.48368833423E+03  0.12500000000E+03 0.  0.
</event>
<event>
 5    0  0.5612316E-005  0.3680760E+03  0.7546771E-02  0.1055431E+00
         21   -1    0    0  502  501  0.00000000000E+00  0.00000000000E+00  0.99212426306E+03  0.99212426306E+03  0.00000000000E+00 0. -1.
         21   -1    0    0  501  502 -0.00000000000E+00 -0.00000000000E+00 -0.13655544054E+03  0.13655544054E+03  0.00000000000E+00 0. -1.
         25    1    1    2    0    0  0.11390669859E+02  0.56253627860E+02  0.17476877203E+03  0.22240355591E+03  0.12500000000E+03 0.  0.
         25    1    1    2    0    0  0.60607338895E+02 -0.27689550676E+03  0.49432816553E+03  0.58337784191E+03  0.12500000000E+03 0.  0.
         25    1    1    2    0    0 -0.71998008754E+02  0.22064187890E+03  0.18647188496E+03  0.32289830577E+03  0.12500000000E+03 0.  0.
</event>
<event>
 5    0  0.5612316E-005  0.4405086E+03  0.7546771E-02  0.1030591E+00
         21   -1    0    0  502  501  0.00000000000E+00  0.00000000000E+00  0.76590057444E+03  0.76590057444E+03  0.00000000000E+00 0. -1.
         21   -1    0    0  501  502 -0.00000000000E+00 -0.00000000000E+00 -0.25335902138E+03  0.25335902138E+03  0.00000000000E+00 0. -1.
         25    1    1    2    0    0  0.13154144233E+03  0.14921955415E+03  0.38462868461E+03  0.45070372909E+03  0.12500000000E+03 0.  0.
         25    1    1    2    0    0  0.14563113847E+03  0.28075420283E+02  0.92251209655E+02  0.21478348027E+03  0.12500000000E+03 0.  0.
         25    1    1    2    0    0 -0.27717258080E+03 -0.17729497443E+03  0.35661658789E+02  0.35377238645E+03  0.12500000000E+03 0.  0.
</event>
<event>
 5    0  0.5612316E-005  0.2424110E+03  0.7546771E-02  0.1118197E+00
         21   -1    0    0  502  501  0.00000000000E+00  0.00000000000E+00  0.61477780437E+02  0.61477780437E+02  0.00000000000E+00 0. -1.
         21   -1    0    0  501  502 -0.00000000000E+00 -0.00000000000E+00 -0.95584263080E+03  0.95584263080E+03  0.00000000000E+00 0. -1.
         25    1    1    2    0    0  0.74670166853E+02  0.21639567303E+02 -0.33313285176E+03  0.36420653703E+03  0.12500000000E+03 0.  0.
         25    1    1    2    0    0 -0.39737539395E+02  0.74008686181E+02 -0.15527880715E+03  0.21631658655E+03  0.12500000000E+03 0.  0.
         25    1    1    2    0    0 -0.34932627458E+02 -0.95648253484E+02 -0.40595319145E+03  0.43679728765E+03  0.12500000000E+03 0.  0.
</event>
<event>
 5    0  0.5612316E-005  0.3404818E+03  0.7546771E-02  0.1066591E+00
         21   -1    0    0  502  501  0.00000000000E+00  0.00000000000E+00  0.17965287034E+04  0.17965287034E+04  0.00000000000E+00 0. -1.
         21   -1    0    0  501  502 -0.00000000000E+00 -0.00000000000E+00 -0.64528804487E+02  0.64528804487E+02  0.00000000000E+00 0. -1.
         25    1    1    2    0    0 -0.87833029116E+01  0.22601931407E+03  0.75364643299E+03  0.79672443335E+03  0.12500000000E+03 0.  0.
         25    1    1    2    0    0  0.64564554617E+02 -0.14836075664E+03  0.80341193253E+03  0.82902064459E+03  0.12500000000E+03 0.  0.
         25    1    1    2    0    0 -0.55781251705E+02 -0.77658557435E+02  0.17494153343E+03  0.23531242998E+03  0.12500000000E+03 0.  0.
</event>
<event>
 5    0  0.5612316E-005  0.3472415E+03  0.7546771E-02  0.1063753E+00
         21   -1    0    0  502  501  0.00000000000E+00  0.00000000000E+00  0.48907466276E+03  0.48907466276E+03  0.00000000000E+00 0. -1.
         21   -1    0    0  501  502 -0.00000000000E+00 -0.00000000000E+00 -0.24654044126E+03  0.24654044126E+03  0.00000000000E+00 0. -1.
         25    1    1    2    0    0 -0.53175813310E+02  0.11628882859E+03 -0.54511384853E+02  0.18694183548E+03  0.12500000000E+03 0.  0.
         25    1    1    2    0    0  0.74087394077E+02 -0.14868765663E+03 -0.16880118586E+02  0.20858307601E+03  0.12500000000E+03 0.  0.
         25    1    1    2    0    0 -0.20911580767E+02  0.32398828048E+02  0.31392572495E+03  0.34009019253E+03  0.12500000000E+03 0.  0.
</event>
<event>
 5    0  0.5612316E-005  0.3130003E+03  0.7546771E-02  0.1078917E+00
         21   -1    0    0  502  501  0.00000000000E+00  0.00000000000E+00  0.14814280065E+04  0.14814280065E+04  0.00000000000E+00 0.  1.
         21   -1    0    0  501  502 -0.00000000000E+00 -0.00000000000E+00 -0.66131572900E+02  0.66131572900E+02  0.00000000000E+00 0.  1.
         25    1    1    2    0    0 -0.48917115505E+02  0.22259337995E+03  0.70462221829E+03  0.75103805995E+03  0.12500000000E+03 0.  0.
         25    1    1    2    0    0 -0.36646631278E+02 -0.93748935712E+02  0.29993555018E+03  0.34017373913E+03  0.12500000000E+03 0.  0.
         25    1    1    2    0    0  0.85563746783E+02 -0.12884444423E+03  0.41073866515E+03  0.45634778034E+03  0.12500000000E+03 0.  0.
</event>
<event>
 5    0  0.5612316E-005  0.2509135E+03  0.7546771E-02  0.1112729E+00
         21   -1    0    0  502  501  0.00000000000E+00  0.00000000000E+00  0.26611277925E+03  0.26611277925E+03  0.00000000000E+00 0.  1.
         21   -1    0    0  501  502 -0.00000000000E+00 -0.00000000000E+00 -0.23658226845E+03  0.23658226845E+03  0.00000000000E+00 0.  1.
         25    1    1    2    0    0 -0.53446889404E+02  0.69339567636E+02 -0.14349333436E+01  0.15261587290E+03  0.12500000000E+03 0.  0.
         25    1    1    2    0    0  0.12488737030E+03  0.17884129924E+01  0.60546557194E+02  0.18679116486E+03  0.12500000000E+03 0.  0.
         25    1    1    2    0    0 -0.71440480900E+02 -0.71127980629E+02 -0.29581113048E+02  0.16328800994E+03  0.12500000000E+03 0.  0.
</event>
<event>
 5    0  0.5612316E-005  0.2881583E+03  0.7546771E-02  0.1091315E+00
         21   -1    0    0  502  501  0.00000000000E+00  0.00000000000E+00  0.38661805479E+02  0.38661805479E+02  0.00000000000E+00 0.  1.
         21   -1    0    0  501  502 -0.00000000000E+00 -0.00000000000E+00 -0.21477323827E+04  0.21477323827E+04  0.00000000000E+00 0.  1.
         25    1    1    2    0    0 -0.60880760567E+02 -0.83240826767E+02 -0.49073350971E+03  0.51679771652E+03  0.12500000000E+03 0.  0.
         25    1    1    2    0    0  0.11887097188E+03  0.17322662626E+03 -0.10358232372E+04  0.10642802971E+04  0.12500000000E+03 0.  0.
         25    1    1    2    0    0 -0.57990211313E+02 -0.89985799498E+02 -0.58251383033E+03  0.60531617461E+03  0.12500000000E+03 0.  0.
</event>
<event>
 5    0  0.5612316E-005  0.2743345E+03  0.7546771E-02  0.1098824E+00
         21   -1    0    0  502  501  0.00000000000E+00  0.00000000000E+00  0.26583254423E+03  0.26583254423E+03  0.00000000000E+00 0. -1.
         21   -1    0    0  501  502 -0.00000000000E+00 -0.00000000000E+00 -0.28310837512E+03  0.28310837512E+03  0.00000000000E+00 0. -1.
         25    1    1    2    0    0  0.23039815179E+02 -0.50883042665E+01  0.64241372139E+02  0.14250851841E+03  0.12500000000E+03 0.  0.
         25    1    1    2    0    0  0.29164702081E+02  0.97672143125E+02  0.76606991772E+02  0.17856107801E+03  0.12500000000E+03 0.  0.
         25    1    1    2    0    0 -0.52204517259E+02 -0.92583838858E+02 -0.15812419479E+03  0.22787132294E+03  0.12500000000E+03 0.  0.
</event>
<event>
 5    0  0.5612316E-005  0.2935818E+03  0.7546771E-02  0.1088494E+00
         21   -1    0    0  502  501  0.00000000000E+00  0.00000000000E+00  0.31984507818E+03  0.31984507818E+03  0.00000000000E+00 0.  1.
         21   -1    0    0  501  502 -0.00000000000E+00 -0.00000000000E+00 -0.26947501258E+03  0.26947501258E+03  0.00000000000E+00 0.  1.
         25    1    1    2    0    0  0.15960782117E+03  0.42207767501E+02 -0.82082562214E+02  0.22275255158E+03  0.12500000000E+03 0.  0.
         25    1    1    2    0    0 -0.16888119406E+03 -0.49445785523E+02  0.75151871945E+02  0.22855753601E+03  0.12500000000E+03 0.  0.
         25    1    1    2    0    0  0.92733728903E+01  0.72380180216E+01  0.57300755871E+02  0.13801000316E+03  0.12500000000E+03 0.  0.
</event>
<event>
 5    0  0.5612316E-005  0.4286531E+03  0.7546771E-02  0.1034286E+00
         21   -1    0    0  502  501  0.00000000000E+00  0.00000000000E+00  0.63712636253E+03  0.63712636253E+03  0.00000000000E+00 0. -1.
         21   -1    0    0  501  502 -0.00000000000E+00 -0.00000000000E+00 -0.28839406180E+03  0.28839406180E+03  0.00000000000E+00 0. -1.
         25    1    1    2    0    0  0.12707483844E+03  0.26657178418E+03 -0.15401468467E+02  0.32104631429E+03  0.12500000000E+03 0.  0.
         25    1    1    2    0    0 -0.38762873382E+02 -0.29610373390E+03  0.27594960543E+03  0.42538590282E+03  0.12500000000E+03 0.  0.
         25    1    1    2    0    0 -0.88311965058E+02  0.29531949718E+02  0.88184163778E+02  0.17908820723E+03  0.12500000000E+03 0.  0.
</event>
<event>
 5    0  0.5612316E-005  0.2764534E+03  0.7546771E-02  0.1097642E+00
         21   -1    0    0  502  501  0.00000000000E+00  0.00000000000E+00  0.19044388061E+03  0.19044388061E+03  0.00000000000E+00 0. -1.
         21   -1    0    0  501  502 -0.00000000000E+00 -0.00000000000E+00 -0.40130703794E+03  0.40130703794E+03  0.00000000000E+00 0. -1.
         25    1    1    2    0    0 -0.89499613234E+02  0.52393857458E+02 -0.14910168504E+03  0.22048040627E+03  0.12500000000E+03 0.  0.
         25    1    1    2    0    0  0.44474844863E+02 -0.96303943687E+02 -0.13587031880E+03  0.21292769882E+03  0.12500000000E+03 0.  0.
         25    1    1    2    0    0  0.45024768371E+02  0.43910086228E+02  0.74108846507E+02  0.15834281345E+03  0.12500000000E+03 0.  0.
</event>
<event>
 5    0  0.5612316E-005  0.4513968E+03  0.7546771E-02  0.1027306E+00
         21   -1    0    0  502  501  0.00000000000E+00  0.00000000000E+00  0.65070381172E+03  0.65070381172E+03  0.00000000000E+00 0.  1.
         21   -1    0    0  501  502 -0.00000000000E+00 -0.00000000000E+00 -0.31313641819E+03  0.31313641819E+03  0.00000000000E+00 0.  1.
         25    1    1    2    0    0 -0.56025996409E+01 -0.14102009999E+03  0.35166654922E+00  0.18852899351E+03  0.12500000000E+03 0.  0.
         25    1    1    2    0    0 -0.30902399864E+03  0.96348994721E+02  0.23418295705E+03  0.41862347986E+03  0.12500000000E+03 0.  0.
         25    1    1    2    0    0  0.31462659828E+03  0.44671105267E+02  0.10303276993E+03  0.35668775655E+03  0.12500000000E+03 0.  0.
</event>
<event>
 5    0  0.5612316E-005  0.3158939E+03  0.7546771E-02  0.1077555E+00
         21   -1    0    0  502  501  0.00000000000E+00  0.00000000000E+00  0.23158485375E+03  0.23158485375E+03  0.00000000000E+00 0. -1.
         21   -1    0    0  501  502 -0.00000000000E+00 -0.00000000000E+00 -0.43089587078E+03  0.43089587078E+03  0.00000000000E+00 0. -1.
         25    1    1    2    0    0  0.13241634657E+02  0.62363863031E+02  0.12776409161E+03  0.18977158745E+03  0.12500000000E+03 0.  0.
         25    1    1    2    0    0 -0.68735838820E+02 -0.12596960745E+03 -0.18925017090E+03  0.26839073144E+03  0.12500000000E+03 0.  0.
         25    1    1    2    0    0  0.55494204164E+02  0.63605744423E+02 -0.13782493773E+03  0.20431840563E+03  0.12500000000E+03 0.  0.
</event>
<event>
 5    0  0.5612316E-005  0.3937183E+03  0.7546771E-02  0.1045977E+00
         21   -1    0    0  502  501  0.00000000000E+00  0.00000000000E+00  0.62679715271E+03  0.62679715271E+03  0.00000000000E+00 0.  1.
         21   -1    0    0  501  502 -0.00000000000E+00 -0.00000000000E+00 -0.24731145932E+03  0.24731145932E+03  0.00000000000E+00 0.  1.
         25    1    1    2    0    0 -0.12821836450E+03  0.55035933393E+02  0.68993403619E+02  0.19963464805E+03  0.12500000000E+03 0.  0.
         25    1    1    2    0    0  0.27102999970E+02  0.22904516272E+03  0.19992174592E+03  0.32983323615E+03  0.12500000000E+03 0.  0.
         25    1    1    2    0    0  0.10111536453E+03 -0.28408109611E+03  0.11057054385E+03  0.34464072783E+03  0.12500000000E+03 0.  0.
</event>
<event>
 5    0  0.5612316E-005  0.3281073E+03  0.7546771E-02  0.1071977E+00
         21   -1    0    0  502  501  0.00000000000E+00  0.00000000000E+00  0.42815145330E+02  0.42815145330E+02  0.00000000000E+00 0.  1.
         21   -1    0    0  501  502 -0.00000000000E+00 -0.00000000000E+00 -0.25144001430E+04  0.25144001430E+04  0.00000000000E+00 0.  1.
         25    1    1    2    0    0  0.13077506385E+03 -0.17965259298E+03 -0.68099182070E+03  0.72715337540E+03  0.12500000000E+03 0.  0.
         25    1    1    2    0    0 -0.30407886298E+02  0.15461565031E+02 -0.39444502812E+03  0.41518138175E+03  0.12500000000E+03 0.  0.
         25    1    1    2    0    0 -0.10036717755E+03  0.16419102795E+03 -0.13961481489E+04  0.14148805312E+04  0.12500000000E+03 0.  0.
</event>
<event>
 5    0  0.5612316E-005  0.3719960E+03  0.7546771E-02  0.1053932E+00
         21   -1    0    0  502  501  0.00000000000E+00  0.00000000000E+00  0.13561251679E+04  0.13561251679E+04  0.00000000000E+00 0.  1.
         21   -1    0    0  501  502 -0.00000000000E+00 -0.00000000000E+00 -0.10204148954E+03  0.10204148954E+03  0.00000000000E+00 0.  1.
         25    1    1    2    0    0  0.53509583700E+02  0.27874067845E+03  0.41857042208E+03  0.52094706027E+03  0.12500000000E+03 0.  0.
         25    1    1    2    0    0  0.61681496411E+02 -0.18108143712E+03  0.44191031765E+03  0.49749856554E+03  0.12500000000E+03 0.  0.
         25    1    1    2    0    0 -0.11519108011E+03 -0.97659241330E+02  0.39360293859E+03  0.43972103159E+03  0.12500000000E+03 0.  0.
</event>
<event>
 5    0  0.5612316E-005  0.2093237E+03  0.7546771E-02  0.1142103E+00
         21   -1    0    0  502  501  0.00000000000E+00  0.00000000000E+00  0.19326364528E+03  0.19326364528E+03  0.00000000000E+00 0.  1.
         21   -1    0    0  501  502 -0.00000000000E+00 -0.00000000000E+00 -0.22671834518E+03  0.22671834518E+03  0.00000000000E+00 0.  1.
         25    1    1    2    0    0 -0.75683522908E+01 -0.34936584776E+02  0.33454109193E+00  0.13001137193E+03  0.12500000000E+03 0.  0.
         25    1    1    2    0    0  0.67399420796E+01 -0.48790974350E+02 -0.37442169323E+02  0.13947366074E+03  0.12500000000E+03 0.  0.
         25    1    1    2    0    0  0.82841021119E+00  0.83727559126E+02  0.36529283269E+01  0.15049695780E+03  0.12500000000E+03 0.  0.
</event>
<event>
 5    0  0.5612316E-005  0.5915651E+03  0.7546771E-02  0.9923062E-01
         21   -1    0    0  502  501  0.00000000000E+00  0.00000000000E+00  0.22952687743E+04  0.22952687743E+04  0.00000000000E+00 0.  1.
         21   -1    0    0  501  502 -0.00000000000E+00 -0.00000000000E+00 -0.15246548537E+03  0.15246548537E+03  0.00000000000E+00 0.  1.
         25    1    1    2    0    0  0.18910693860E+03  0.30434677050E+02  0.34637315587E+02  0.23132757601E+03  0.12500000000E+03 0.  0.
         25    1    1    2    0    0 -0.84467752054E+02 -0.31272127892E+03  0.88853836291E+03  0.95396793541E+03  0.12500000000E+03 0.  0.
         25    1    1    2    0    0 -0.10463918654E+03  0.28228660187E+03  0.12196276104E+04  0.12624387482E+04  0.12500000000E+03 0.  0.
</event>
<event>
 5    0  0.5612316E-005  0.4684545E+03  0.7546771E-02  0.1022357E+00
         21   -1    0    0  502  501  0.00000000000E+00  0.00000000000E+00  0.56584334946E+03  0.56584334946E+03  0.00000000000E+00 0. -1.
         21   -1    0    0  501  502 -0.00000000000E+00 -0.00000000000E+00 -0.38782750038E+03  0.38782750038E+03  0.00000000000E+00 0. -1.
         25    1    1    2    0    0 -0.17534379808E+03  0.12840321056E+03  0.29053237204E+03  0.38375368560E+03  0.12500000000E+03 0.  0.
         25    1    1    2    0    0  0.21976135947E+03 -0.92991807996E+02 -0.25578793646E+03  0.37147678246E+03  0.12500000000E+03 0.  0.
         25    1    1    2    0    0 -0.44417561390E+02 -0.35411402567E+02  0.14327141351E+03  0.19844038178E+03  0.12500000000E+03 0.  0.
</event>
<event>
 5    0  0.5612316E-005  0.2959839E+03  0.7546771E-02  0.1087266E+00
         21   -1    0    0  502  501  0.00000000000E+00  0.00000000000E+00  0.19870806262E+03  0.19870806262E+03  0.00000000000E+00 0.  1.
         21   -1    0    0  501  502 -0.00000000000E+00 -0.00000000000E+00 -0.44088028348E+03  0.44088028348E+03  0.00000000000E+00 0.  1.
         25    1    1    2    0    0 -0.16509922730E+02 -0.14475810193E+03 -0.19409795443E+03  0.27299542402E+03  0.12500000000E+03 0.  0.
         25    1    1    2    0    0 -0.74228607450E+02  0.13651424849E+03 -0.67848325689E+02  0.21065237123E+03  0.12500000000E+03 0.  0.
         25    1    1    2    0    0  0.90738530181E+02  0.82438534350E+01  0.19774059258E+02  0.15594055085E+03  0.12500000000E+03 0.  0.
</event>
<event>
 5    0  0.5612316E-005  0.2735424E+03  0.7546771E-02  0.1099269E+00
         21   -1    0    0  502  501  0.00000000000E+00  0.00000000000E+00  0.91386983511E+03  0.91386983511E+03  0.00000000000E+00 0.  1.
         21   -1    0    0  501  502 -0.00000000000E+00 -0.00000000000E+00 -0.81877569300E+02  0.81877569300E+02  0.00000000000E+00 0.  1.
         25    1    1    2    0    0 -0.33337294905E+02  0.35539336387E+01  0.97081404388E+02  0.16178320294E+03  0.12500000000E+03 0.  0.
         25    1    1    2    0    0  0.49726081608E+02 -0.75664626750E+02  0.64486479884E+03  0.66307874926E+03  0.12500000000E+03 0.  0.
         25    1    1    2    0    0 -0.16388786703E+02  0.72110693111E+02  0.90046062579E+02  0.17088545221E+03  0.12500000000E+03 0.  0.
</event>
<event>
 5    0  0.5612316E-005  0.3159231E+03  0.7546771E-02  0.1077541E+00
         21   -1    0    0  502  501  0.00000000000E+00  0.00000000000E+00  0.90468687720E+02  0.90468687720E+02  0.00000000000E+00 0. -1.
         21   -1    0    0  501  502 -0.00000000000E+00 -0.00000000000E+00 -0.11032257640E+04  0.11032257640E+04  0.00000000000E+00 0. -1.
         25    1    1    2    0    0 -0.32207517043E+02 -0.30178791626E+02 -0.98502923705E+02  0.16515419945E+03  0.12500000000E+03 0.  0.
         25    1    1    2    0    0  0.14628245481E+03  0.16210826314E+03 -0.56735304989E+03  0.62063848477E+03  0.12500000000E+03 0.  0.
         25    1    1    2    0    0 -0.11407493777E+03 -0.13192947151E+03 -0.34690110267E+03  0.40790176748E+03  0.12500000000E+03 0.  0.
</event>
<event>
 5    0  0.5612316E-005  0.2187961E+03  0.7546771E-02  0.1134784E+00
         21   -1    0    0  502  501  0.00000000000E+00  0.00000000000E+00  0.23161953475E+02  0.23161953475E+02  0.00000000000E+00 0.  1.
         21   -1    0    0  501  502 -0.00000000000E+00 -0.00000000000E+00 -0.20668270325E+04  0.20668270325E+04  0.00000000000E+00 0.  1.
         25    1    1    2    0    0  0.23818042686E+02 -0.80367821628E+02 -0.49838060860E+03  0.52060975495E+03  0.12500000000E+03 0.  0.
         25    1    1    2    0    0 -0.28575350402E+02  0.27081970842E+02 -0.93444807235E+03  0.94359323000E+03  0.12500000000E+03 0.  0.
         25    1    1    2    0    0  0.47573077167E+01  0.53285850787E+02 -0.61083639811E+03  0.62578600106E+03  0.12500000000E+03 0.  0.
</event>
<event>
 5    0  0.5612316E-005  0.4246185E+03  0.7546771E-02  0.1035574E+00
         21   -1    0    0  502  501  0.00000000000E+00  0.00000000000E+00  0.23050490199E+03  0.23050490199E+03  0.00000000000E+00 0.  1.
         21   -1    0    0  501  502 -0.00000000000E+00 -0.00000000000E+00 -0.78219967584E+03  0.78219967584E+03  0.00000000000E+00 0.  1.
         25    1    1    2    0    0 -0.16576039603E+03 -0.87451186047E+02 -0.12151931664E+03  0.25596125322E+03  0.12500000000E+03 0.  0.
         25    1    1    2    0    0  0.27337719272E+03 -0.14437572857E+03 -0.18614585745E+03  0.38190930958E+03  0.12500000000E+03 0.  0.
         25    1    1    2    0    0 -0.10761679668E+03  0.23182691462E+03 -0.24402959975E+03  0.37483401503E+03  0.12500000000E+03 0.  0.
</event>
<event>
 5    0  0.5612316E-005  0.2942421E+03  0.7546771E-02  0.1088155E+00
         21   -1    0    0  502  501  0.00000000000E+00  0.00000000000E+00  0.41993107697E+03  0.41993107697E+03  0.00000000000E+00 0.  1.
         21   -1    0    0  501  502 -0.00000000000E+00 -0.00000000000E+00 -0.20617288673E+03  0.20617288673E+03  0.00000000000E+00 0.  1.
         25    1    1    2    0    0  0.67274786810E+01  0.59965045861E+02 -0.36723218846E+02  0.14357806412E+03  0.12500000000E+03 0.  0.
         25    1    1    2    0    0 -0.36565068865E+02 -0.16630125995E+03  0.23349499957E+03  0.31486191918E+03  0.12500000000E+03 0.  0.
         25    1    1    2    0    0  0.29837590184E+02  0.10633621409E+03  0.16986409518E+02  0.16766398040E+03  0.12500000000E+03 0.  0.
</event>
<event>
 5    0  0.5612316E-005  0.2616137E+03  0.7546771E-02  0.1106178E+00
         21   -1    0    0  502  501  0.00000000000E+00  0.00000000000E+00  0.14132265837E+03  0.14132265837E+03  0.00000000000E+00 0. -1.
         21   -1    0    0  501  502 -0.00000000000E+00 -0.00000000000E+00 -0.48429393270E+03  0.48429393270E+03  0.00000000000E+00 0. -1.
         25    1    1    2    0    0 -0.17239571186E+02 -0.22106718911E+02 -0.37404376936E+02  0.13345410166E+03  0.12500000000E+03 0.  0.
         25    1    1    2    0    0 -0.13657510995E+03  0.29459381760E+02 -0.14727050308E+03  0.23839928043E+03  0.12500000000E+03 0.  0.
         25    1    1    2    0    0  0.15381468113E+03 -0.73526628496E+01 -0.15829639431E+03  0.25376320899E+03  0.12500000000E+03 0.  0.
</event>
<event>
 5    0  0.5612316E-005  0.3288588E+03  0.7546771E-02  0.1071643E+00
         21   -1    0    0  502  501  0.00000000000E+00  0.00000000000E+00  0.38076168000E+03  0.38076168000E+03  0.00000000000E+00 0. -1.
         21   -1    0    0  501  502 -0.00000000000E+00 -0.00000000000E+00 -0.28403089648E+03  0.28403089648E+03  0.00000000000E+00 0. -1.
         25    1    1    2    0    0  0.77234982032E+02 -0.19754418633E+03 -0.56976848538E+02  0.25270597395E+03  0.12500000000E+03 0.  0.
         25    1    1    2    0    0 -0.12523155604E+03  0.15473625285E+03  0.13277016730E+03  0.26996141928E+03  0.12500000000E+03 0.  0.
         25    1    1    2    0    0  0.47996574004E+02  0.42807933478E+02  0.20937464760E+02  0.14212518326E+03  0.12500000000E+03 0.  0.
</event>
<event>
 5    0  0.5612316E-005  0.4310679E+03  0.7546771E-02  0.1033523E+00
         21   -1    0    0  502  501  0.00000000000E+00  0.00000000000E+00  0.17631026649E+03  0.17631026649E+03  0.00000000000E+00 0. -1.
         21   -1    0    0  501  502 -0.00000000000E+00 -0.00000000000E+00 -0.10539348404E+04  0.10539348404E+04  0.00000000000E+00 0. -1.
         25    1    1    2    0    0 -0.30575491290E+02  0.19621304554E+03 -0.32261952543E+02  0.23685492076E+03  0.12500000000E+03 0.  0.
         25    1    1    2    0    0 -0.12224551947E+03 -0.25845755180E+03 -0.45824575792E+03  0.55439917728E+03  0.12500000000E+03 0.  0.
         25    1    1    2    0    0  0.15282101076E+03  0.62244506258E+02 -0.38711686342E+03  0.43899100883E+03  0.12500000000E+03 0.  0.
</event>
<event>
 5    0  0.5612316E-005  0.4228253E+03  0.7546771E-02  0.1036151E+00
         21   -1    0    0  502  501  0.00000000000E+00  0.00000000000E+00  0.56459457746E+03  0.56459457746E+03  0.00000000000E+00 0.  1.
         21   -1    0    0  501  502 -0.00000000000E+00 -0.00000000000E+00 -0.31665416801E+03  0.31665416801E+03  0.00000000000E+00 0.  1.
         25    1    1    2    0    0 -0.34593414750E+02 -0.52210991646E+02  0.22268607700E+03  0.26293873979E+03  0.12500000000E+03 0.  0.
         25    1    1    2    0    0  0.13800601328E+03 -0.16704759388E+03 -0.15229188732E+03  0.29286238622E+03  0.12500000000E+03 0.  0.
         25    1    1    2    0    0 -0.10341259853E+03  0.21925858552E+03  0.17754621976E+03  0.32544761946E+03  0.12500000000E+03 0.  0.
</event>
<event>
 5    0  0.5612316E-005  0.3163301E+03  0.7546771E-02  0.1077351E+00
         21   -1    0    0  502  501  0.00000000000E+00  0.00000000000E+00  0.11674324992E+04  0.11674324992E+04  0.00000000000E+00 0. -1.
         21   -1    0    0  501  502 -0.00000000000E+00 -0.00000000000E+00 -0.85713480167E+02  0.85713480167E+02  0.00000000000E+00 0. -1.
         25    1    1    2    0    0 -0.64215583579E+02 -0.11282181292E+03  0.48114463204E+03  0.51378746539E+03  0.12500000000E+03 0.  0.
         25    1    1    2    0    0 -0.30236327310E+02 -0.45797396968E+02  0.45018525467E+03  0.47042895380E+03  0.12500000000E+03 0.  0.
         25    1    1    2    0    0  0.94451910889E+02  0.15861920989E+03  0.15038913233E+03  0.26892956018E+03  0.12500000000E+03 0.  0.
</event>
<event>
 5    0  0.5612316E-005  0.3848651E+03  0.7546771E-02  0.1049150E+00
         21   -1    0    0  502  501  0.00000000000E+00  0.00000000000E+00  0.29077611552E+03  0.29077611552E+03  0.00000000000E+00 0. -1.
         21   -1    0    0  501  502 -0.00000000000E+00 -0.00000000000E+00 -0.50939929897E+03  0.50939929897E+03  0.00000000000E+00 0. -1.
         25    1    1    2    0    0 -0.24954257548E+02 -0.40771843318E+01  0.74902475178E+02  0.14790104526E+03  0.12500000000E+03 0.  0.
         25    1    1    2    0    0 -0.90925265968E+02 -0.19650631487E+02 -0.41390157642E+03  0.44225904883E+03  0.12500000000E+03 0.  0.
         25    1    1    2    0    0  0.11587952352E+03  0.23727815818E+02  0.12037591780E+03  0.21001532039E+03  0.12500000000E+03 0.  0.
</event>
<event>
 5    0  0.5612316E-005  0.2814899E+03  0.7546771E-02  0.1094878E+00
         21   -1    0    0  502  501  0.00000000000E+00  0.00000000000E+00  0.17707533610E+04  0.17707533610E+04  0.00000000000E+00 0. -1.
         21   -1    0    0  501  502 -0.00000000000E+00 -0.00000000000E+00 -0.44747385638E+02  0.44747385638E+02  0.00000000000E+00 0. -1.
         25    1    1    2    0    0  0.37729212050E+02 -0.44532982473E+02  0.10120294960E+04  0.10213889469E+04  0.12500000000E+03 0.  0.
         25    1    1    2    0    0 -0.13154118999E+03 -0.61691345296E+01  0.33471303615E+03  0.38078728899E+03  0.12500000000E+03 0.  0.
         25    1    1    2    0    0  0.93811977938E+02  0.50702117002E+02  0.37926344318E+03  0.41332451077E+03  0.12500000000E+03 0.  0.
</event>
<event>
 5    0  0.5612316E-005  0.2925561E+03  0.7546771E-02  0.1089022E+00
         21   -1    0    0  502  501  0.00000000000E+00  0.00000000000E+00  0.14093461688E+03  0.14093461688E+03  0.00000000000E+00 0. -1.
         21   -1    0    0  501  502 -0.00000000000E+00 -0.00000000000E+00 -0.60729613094E+03  0.60729613094E+03  0.00000000000E+00 0. -1.
         25    1    1    2    0    0  0.13617695434E+03  0.79741311056E+02 -0.80933375081E+02  0.21697476993E+03  0.12500000000E+03 0.  0.
         25    1    1    2    0    0 -0.67687716371E+02  0.70335872844E+02 -0.17135129640E+03  0.23348453639E+03  0.12500000000E+03 0.  0.
         25    1    1    2    0    0 -0.68489237972E+02 -0.15007718390E+03 -0.21407684258E+03  0.29777144150E+03  0.12500000000E+03 0.  0.
</event>
<event>
 5    0  0.5612316E-005  0.3420701E+03  0.7546771E-02  0.1065918E+00
         21   -1    0    0  502  501  0.00000000000E+00  0.00000000000E+00  0.71082891043E+03  0.71082891043E+03  0.00000000000E+00 0.  1.
         21   -1    0    0  501  502 -0.00000000000E+00 -0.00000000000E+00 -0.16461341683E+03  0.16461341683E+03  0.00000000000E+00 0. -1.
         25    1    1    2    0    0 -0.11007342933E+03 -0.15201472819E+03  0.28729563542E+03  0.36522379380E+03  0.12500000000E+03 0.  0.
         25    1    1    2    0    0  0.32095264348E+02  0.77367569762E+01  0.27450032446E+03  0.30342279336E+03  0.12500000000E+03 0.  0.
         25    1    1    2    0    0  0.77978164981E+02  0.14427797121E+03 -0.15580466274E+02  0.20679574009E+03  0.12500000000E+03 0.  0.
</event>
<event>
 5    0  0.5612316E-005  0.3685962E+03  0.7546771E-02  0.1055231E+00
         21   -1    0    0  502  501  0.00000000000E+00  0.00000000000E+00  0.37838595120E+03  0.37838595120E+03  0.00000000000E+00 0. -1.
         21   -1    0    0  501  502 -0.00000000000E+00 -0.00000000000E+00 -0.35905972669E+03  0.35905972669E+03  0.00000000000E+00 0. -1.
         25    1    1    2    0    0  0.18868318596E+03 -0.40185653250E+02  0.62912691215E+02  0.23832590734E+03  0.12500000000E+03 0.  0.
         25    1    1    2    0    0 -0.57230245525E+02  0.18369345091E+03  0.72098931910E+02  0.24050330744E+03  0.12500000000E+03 0.  0.
         25    1    1    2    0    0 -0.13145294044E+03 -0.14350779766E+03 -0.11568539861E+03  0.25861646311E+03  0.12500000000E+03 0.  0.
</event>
<event>
 5    0  0.5612316E-005  0.3743662E+03  0.7546771E-02  0.1053036E+00
         21   -1    0    0  502  501  0.00000000000E+00  0.00000000000E+00  0.53945036402E+03  0.53945036402E+03  0.00000000000E+00 0. -1.
         21   -1    0    0  501  502 -0.00000000000E+00 -0.00000000000E+00 -0.25980150547E+03  0.25980150547E+03  0.00000000000E+00 0. -1.
         25    1    1    2    0    0 -0.15801521150E+02 -0.20635193071E+03 -0.82379656877E+02  0.25542555715E+03  0.12500000000E+03 0.  0.
         25    1    1    2    0    0  0.37361746722E+02  0.24121922063E+03  0.24212486004E+03  0.36583064438E+03  0.12500000000E+03 0.  0.
         25    1    1    2    0    0 -0.21560225572E+02 -0.34867289917E+02  0.11990365539E+03  0.17799566795E+03  0.12500000000E+03 0.  0.
</event>
<event>
 5    0  0.5612316E-005  0.7277287E+03  0.7546771E-02  0.9670953E-01
         21   -1    0    0  502  501  0.00000000000E+00  0.00000000000E+00  0.96358732278E+03  0.96358732278E+03  0.00000000000E+00 0. -1.
         21   -1    0    0  501  502 -0.00000000000E+00 -0.00000000000E+00 -0.54960144856E+03  0.54960144856E+03  0.00000000000E+00 0.  1.
         25    1    1    2    0    0 -0.32066961099E+03 -0.42582590728E+03 -0.13100203125E+03  0.56297711758E+03  0.12500000000E+03 0.  0.
         25    1    1    2    0    0  0.38977651681E+03  0.47515105364E+03  0.44597431057E+03  0.76955333962E+03  0.12500000000E+03 0.  0.
         25    1    1    2    0    0 -0.69106905818E+02 -0.49325146357E+02  0.99013594901E+02  0.18065831415E+03  0.12500000000E+03 0.  0.
</event>
<event>
 5    0  0.5612316E-005  0.2497948E+03  0.7546771E-02  0.1113435E+00
         21   -1    0    0  502  501  0.00000000000E+00  0.00000000000E+00  0.32762741358E+02  0.32762741358E+02  0.00000000000E+00 0. -1.
         21   -1    0    0  501  502 -0.00000000000E+00 -0.00000000000E+00 -0.19045248943E+04  0.19045248943E+04  0.00000000000E+00 0. -1.
         25    1    1    2    0    0 -0.45692868458E+02  0.67417551120E+02 -0.82895624736E+03  0.84227455409E+03  0.12500000000E+03 0.  0.
         25    1    1    2    0    0  0.39443321464E+01 -0.80908154347E+02 -0.24839560531E+03  0.28963263617E+03  0.12500000000E+03 0.  0.
         25    1    1    2    0    0  0.41748536311E+02  0.13490603227E+02 -0.79441030028E+03  0.80538044541E+03  0.12500000000E+03 0.  0.
</event>
<event>
 5    0  0.5612316E-005  0.4619873E+03  0.7546771E-02  0.1024206E+00
         21   -1    0    0  502  501  0.00000000000E+00  0.00000000000E+00  0.11788918520E+04  0.11788918520E+04  0.00000000000E+00 0. -1.
         21   -1    0    0  501  502 -0.00000000000E+00 -0.00000000000E+00 -0.18104484972E+03  0.18104484972E+03  0.00000000000E+00 0. -1.
         25    1    1    2    0    0 -0.12248808831E+03  0.25841217252E+03  0.62526373140E+03  0.69882752986E+03  0.12500000000E+03 0.  0.
         25    1    1    2    0    0 -0.38743833382E+02  0.78243356564E+02  0.10389829470E+03  0.18450735246E+03  0.12500000000E+03 0.  0.
         25    1    1    2    0    0  0.16123192169E+03 -0.33665552908E+03  0.26868497619E+03  0.47660181941E+03  0.12500000000E+03 0.  0.
</event>
<event>
 5    0  0.5612316E-005  0.4081663E+03  0.7546771E-02  0.1040988E+00
         21   -1    0    0  502  501  0.00000000000E+00  0.00000000000E+00  0.10206676807E+04  0.10206676807E+04  0.00000000000E+00 0.  1.
         21   -1    0    0  501  502 -0.00000000000E+00 -0.00000000000E+00 -0.16322623149E+03  0.16322623149E+03  0.00000000000E+00 0.  1.
         25    1    1    2    0    0  0.16524216428E+03  0.14469754177E+03  0.43624870451E+03  0.50416295345E+03  0.12500000000E+03 0.  0.
         25    1    1    2    0    0 -0.51610285099E+02 -0.14437889668E+02 -0.63556100227E+02  0.15012145770E+03  0.12500000000E+03 0.  0.
         25    1    1    2    0    0 -0.11363187918E+03 -0.13025965210E+03  0.48474884487E+03  0.52960950099E+03  0.12500000000E+03 0.  0.
</event>
<event>
 5    0  0.5612316E-005  0.3200856E+03  0.7546771E-02  0.1075610E+00
         21   -1    0    0  502  501  0.00000000000E+00  0.00000000000E+00  0.19373455908E+03  0.19373455908E+03  0.00000000000E+00 0. -1.
         21   -1    0    0  501  502 -0.00000000000E+00 -0.00000000000E+00 -0.52884115008E+03  0.52884115008E+03  0.00000000000E+00 0. -1.
         25    1    1    2    0    0  0.15159697518E+03 -0.92570580173E+02  0.62227534289E+01  0.21728938736E+03  0.12500000000E+03 0.  0.
         25    1    1    2    0    0 -0.14448731732E+03  0.36689027000E+02 -0.30781997405E+03  0.36414393582E+03  0.12500000000E+03 0.  0.
         25    1    1    2    0    0 -0.71096578660E+01  0.55881553172E+02 -0.33509370377E+02  0.14114238599E+03  0.12500000000E+03 0.  0.
</event>
<event>
 5    0  0.5612316E-005  0.3793608E+03  0.7546771E-02  0.1051170E+00
         21   -1    0    0  502  501  0.00000000000E+00  0.00000000000E+00  0.82152404168E+03  0.82152404168E+03  0.00000000000E+00 0.  1.
         21   -1    0    0  501  502 -0.00000000000E+00 -0.00000000000E+00 -0.17518006252E+03  0.17518006252E+03  0.00000000000E+00 0.  1.
         25    1    1    2    0    0  0.10799998874E+02 -0.88108808936E+02 -0.37544706340E+02  0.15784298262E+03  0.12500000000E+03 0.  0.
         25    1    1    2    0    0 -0.16676682740E+03 -0.81206782315E+02  0.32558741121E+03  0.39501630163E+03  0.12500000000E+03 0.  0.
         25    1    1    2    0    0  0.15596682852E+03  0.16931559125E+03  0.35830127428E+03  0.44384481995E+03  0.12500000000E+03 0.  0.
</event>
<event>
 5    0  0.5612316E-005  0.5136852E+03  0.7546771E-02  0.1010267E+00
         21   -1    0    0  502  501  0.00000000000E+00  0.00000000000E+00  0.14055688553E+03  0.14055688553E+03  0.00000000000E+00 0.  1.
         21   -1    0    0  501  502 -0.00000000000E+00 -0.00000000000E+00 -0.18773360024E+04  0.18773360024E+04  0.00000000000E+00 0.  1.
         25    1    1    2    0    0 -0.26164431598E+03 -0.15875457057E+03 -0.12037927181E+04  0.12483599921E+04  0.12500000000E+03 0.  0.
         25    1    1    2    0    0 -0.68088655016E+02  0.13913934875E+03 -0.15548577069E+03  0.25257998376E+03  0.12500000000E+03 0.  0.
         25    1    1    2    0    0  0.32973297099E+03  0.19615221817E+02 -0.37750062811E+03  0.51695291208E+03  0.12500000000E+03 0.  0.
</event>
<event>
 5    0  0.5612316E-005  0.2732864E+03  0.7546771E-02  0.1099413E+00
         21   -1    0    0  502  501  0.00000000000E+00  0.00000000000E+00  0.52065371996E+03  0.52065371996E+03  0.00000000000E+00 0. -1.
         21   -1    0    0  501  502 -0.00000000000E+00 -0.00000000000E+00 -0.14344552063E+03  0.14344552063E+03  0.00000000000E+00 0. -1.
         25    1    1    2    0    0 -0.14338583494E+02  0.13710172686E+03  0.47240453647E+02  0.19198734058E+03  0.12500000000E+03 0.  0.
         25    1    1    2    0    0 -0.51662061761E+02  0.41641882627E+01  0.10558522549E+03  0.17163784236E+03  0.12500000000E+03 0.  0.
         25    1    1    2    0    0  0.66000645256E+02 -0.14126591512E+03  0.22438252019E+03  0.30047405764E+03  0.12500000000E+03 0.  0.
</event>
<event>
 5    0  0.5612316E-005  0.2313114E+03  0.7546771E-02  0.1125720E+00
         21   -1    0    0  502  501  0.00000000000E+00  0.00000000000E+00  0.28098009579E+03  0.28098009579E+03  0.00000000000E+00 0.  1.
         21   -1    0    0  501  502 -0.00000000000E+00 -0.00000000000E+00 -0.19042263066E+03  0.19042263066E+03  0.00000000000E+00 0.  1.
         25    1    1    2    0    0  0.31975461233E+02 -0.10115321759E+03  0.15895866195E+02  0.16471818999E+03  0.12500000000E+03 0.  0.
         25    1    1    2    0    0 -0.78668115387E+01  0.93140151830E+02 -0.52374915447E+01  0.15617107903E+03  0.12500000000E+03 0.  0.
         25    1    1    2    0    0 -0.24108649695E+02  0.80130657616E+01  0.79899090480E+02  0.15051345745E+03  0.12500000000E+03 0.  0.
</event>
<event>
 5    0  0.5612316E-005  0.4490541E+03  0.7546771E-02  0.1028005E+00
         21   -1    0    0  502  501  0.00000000000E+00  0.00000000000E+00  0.41370870202E+03  0.41370870202E+03  0.00000000000E+00 0. -1.
         21   -1    0    0  501  502 -0.00000000000E+00 -0.00000000000E+00 -0.48741914416E+03  0.48741914416E+03  0.00000000000E+00 0. -1.
         25    1    1    2    0    0 -0.28225560404E+03 -0.17567062902E+02 -0.35848541152E+02  0.31126667925E+03  0.12500000000E+03 0.  0.
         25    1    1    2    0    0  0.29176811801E+03 -0.16476588060E+03 -0.75222437626E+02  0.36545840423E+03  0.12500000000E+03 0.  0.
         25    1    1    2    0    0 -0.95125139765E+01  0.18233294350E+03  0.37360536646E+02  0.22440276270E+03  0.12500000000E+03 0.  0.
</event>
<event>
 5    0  0.5612316E-005  0.4588840E+03  0.7546771E-02  0.1025105E+00
         21   -1    0    0  502  501  0.00000000000E+00  0.00000000000E+00  0.27036162330E+03  0.27036162330E+03  0.00000000000E+00 0. -1.
         21   -1    0    0  501  502 -0.00000000000E+00 -0.00000000000E+00 -0.77886255609E+03  0.77886255609E+03  0.00000000000E+00 0. -1.
         25    1    1    2    0    0 -0.12140733104E+03 -0.43279252237E+02  0.11627093817E+03  0.21390830925E+03  0.12500000000E+03 0.  0.
         25    1    1    2    0    0  0.10686021931E+03  0.23132677681E+03 -0.50501722869E+03  0.57930871340E+03  0.12500000000E+03 0.  0.
         25    1    1    2    0    0  0.14547111725E+02 -0.18804752457E+03 -0.11975464227E+03  0.25600715674E+03  0.12500000000E+03 0.  0.
</event>
<event>
 5    0  0.5612316E-005  0.3330408E+03  0.7546771E-02  0.1069799E+00
         21   -1    0    0  502  501  0.00000000000E+00  0.00000000000E+00  0.11969703504E+03  0.11969703504E+03  0.00000000000E+00 0. -1.
         21   -1    0    0  501  502 -0.00000000000E+00 -0.00000000000E+00 -0.92664078365E+03  0.92664078365E+03  0.00000000000E+00 0. -1.
         25    1    1    2    0    0 -0.34427388331E+02 -0.10554114374E+02 -0.23739394812E+03  0.27069821019E+03  0.12500000000E+03 0.  0.
         25    1    1    2    0    0 -0.10788440096E+03  0.13163778894E+03 -0.61293872166E+02  0.21988517506E+03  0.12500000000E+03 0.  0.
         25    1    1    2    0    0  0.14231178929E+03 -0.12108367456E+03 -0.50825592833E+03  0.55575443345E+03  0.12500000000E+03 0.  0.
</event>
<event>
 5    0  0.5612316E-005  0.2836564E+03  0.7546771E-02  0.1093709E+00
         21   -1    0    0  502  501  0.00000000000E+00  0.00000000000E+00  0.27370695906E+03  0.27370695906E+03  0.00000000000E+00 0. -1.
         21   -1    0    0  501  502 -0.00000000000E+00 -0.00000000000E+00 -0.29396743274E+03  0.29396743274E+03  0.00000000000E+00 0. -1.
         25    1    1    2    0    0  0.60381793950E+02  0.93832683809E+01  0.10810696362E+03  0.17619909860E+03  0.12500000000E+03 0.  0.
         25    1    1    2    0    0 -0.49360422648E+02 -0.13089241489E+03 -0.10572042954E+03  0.21533946416E+03  0.12500000000E+03 0.  0.
         25    1    1    2    0    0 -0.11021371303E+02  0.12150914651E+03 -0.22647007753E+02  0.17613582904E+03  0.12500000000E+03 0.  0.
</event>
<event>
 5    0  0.5612316E-005  0.4207757E+03  0.7546771E-02  0.1036814E+00
         21   -1    0    0  502  501  0.00000000000E+00  0.00000000000E+00  0.18521311196E+03  0.18521311196E+03  0.00000000000E+00 0. -1.
         21   -1    0    0  501  502 -0.00000000000E+00 -0.00000000000E+00 -0.95593785460E+03  0.95593785460E+03  0.00000000000E+00 0. -1.
         25    1    1    2    0    0  0.29946233017E+02  0.28706328315E+02  0.12747646125E+03  0.18329233025E+03  0.12500000000E+03 0.  0.
         25    1    1    2    0    0 -0.81175359547E+02 -0.30830675543E+02 -0.71031871159E+03  0.72644176751E+03  0.12500000000E+03 0.  0.
         25    1    1    2    0    0  0.51229126530E+02  0.21243472283E+01 -0.18788249229E+03  0.23141686880E+03  0.12500000000E+03 0.  0.
</event>
<event>
 5    0  0.6395723E-005  0.2839051E+03  0.7546771E-02  0.1093575E+00
         21   -1    0    0  502  501  0.00000000000E+00  0.00000000000E+00  0.51850502611E+03  0.51850502611E+03  0.00000000000E+00 0. -1.
         21   -1    0    0  501  502 -0.00000000000E+00 -0.00000000000E+00 -0.15545098594E+03  0.15545098594E+03  0.00000000000E+00 0. -1.
         25    1    1    2    0    0 -0.56323528269E+01 -0.12312773320E+03  0.79844420067E+02  0.19285303601E+03  0.12500000000E+03 0.  0.
         25    1    1    2    0    0  0.33041776946E+02 -0.34687946180E+02  0.16341094948E+01  0.13387562492E+03  0.12500000000E+03 0.  0.
         25    1    1    2    0    0 -0.27409424119E+02  0.15781567938E+03  0.28157551062E+03  0.34722735112E+03  0.12500000000E+03 0.  0.
</event>
<event>
 5    0  0.5612316E-005  0.2761363E+03  0.7546771E-02  0.1097818E+00
         21   -1    0    0  502  501  0.00000000000E+00  0.00000000000E+00  0.32649358308E+03  0.32649358308E+03  0.00000000000E+00 0.  1.
         21   -1    0    0  501  502 -0.00000000000E+00 -0.00000000000E+00 -0.23354592161E+03  0.23354592161E+03  0.00000000000E+00 0.  1.
         25    1    1    2    0    0  0.12079628618E+03 -0.27840286912E+02  0.34670959543E+02  0.17942658601E+03  0.12500000000E+03 0.  0.
         25    1    1    2    0    0 -0.15670228140E+03  0.10086100083E+03  0.13137193772E+02  0.22478018673E+03  0.12500000000E+03 0.  0.
         25    1    1    2    0    0  0.35905995216E+02 -0.73020713921E+02  0.45139508149E+02  0.15583273196E+03  0.12500000000E+03 0.  0.
</event>
<event>
 5    0  0.5612316E-005  0.4898601E+03  0.7546771E-02  0.1016460E+00
         21   -1    0    0  502  501  0.00000000000E+00  0.00000000000E+00  0.12286696323E+03  0.12286696323E+03  0.00000000000E+00 0.  1.
         21   -1    0    0  501  502 -0.00000000000E+00 -0.00000000000E+00 -0.19530302379E+04  0.19530302379E+04  0.00000000000E+00 0.  1.
         25    1    1    2    0    0  0.18645312255E+03 -0.25265427544E+03 -0.70367672975E+03  0.78063108431E+03  0.12500000000E+03 0.  0.
         25    1    1    2    0    0  0.37926357143E+02 -0.12616948317E+03 -0.32582608612E+03  0.37302115951E+03  0.12500000000E+03 0.  0.
         25    1    1    2    0    0 -0.22437947969E+03  0.37882375860E+03 -0.80066045875E+03  0.92224495726E+03  0.12500000000E+03 0.  0.
</event>
<event>
 5    0  0.5612316E-005  0.4414182E+03  0.7546771E-02  0.1030313E+00
         21   -1    0    0  502  501  0.00000000000E+00  0.00000000000E+00  0.24887727582E+04  0.24887727582E+04  0.00000000000E+00 0.  1.
         21   -1    0    0  501  502 -0.00000000000E+00 -0.00000000000E+00 -0.78291617385E+02  0.78291617385E+02  0.00000000000E+00 0.  1.
         25    1    1    2    0    0  0.32652484905E+03  0.22009879571E+01  0.92442792384E+03  0.98833967226E+03  0.12500000000E+03 0.  0.
         25    1    1    2    0    0 -0.18892589858E+03 -0.11332019951E+03  0.11597414580E+04  0.11870803310E+04  0.12500000000E+03 0.  0.
         25    1    1    2    0    0 -0.13759895047E+03  0.11111921156E+03  0.32631175896E+03  0.39164437234E+03  0.12500000000E+03 0.  0.
</event>
<event>
 5    0  0.5612316E-005  0.2895130E+03  0.7546771E-02  0.1090604E+00
         21   -1    0    0  502  501  0.00000000000E+00  0.00000000000E+00  0.40703941046E+03  0.40703941046E+03  0.00000000000E+00 0. -1.
         21   -1    0    0  501  502 -0.00000000000E+00 -0.00000000000E+00 -0.20592047465E+03  0.20592047465E+03  0.00000000000E+00 0. -1.
         25    1    1    2    0    0 -0.70038100573E+02  0.61304451659E+02 -0.54472414717E+02  0.16509335326E+03  0.12500000000E+03 0.  0.
         25    1    1    2    0    0  0.46386266773E+02 -0.10545578027E+03  0.13104365807E+02  0.17049730713E+03  0.12500000000E+03 0.  0.
         25    1    1    2    0    0  0.23651833800E+02  0.44151328607E+02  0.24248698472E+03  0.27736922471E+03  0.12500000000E+03 0.  0.
</event>
<event>
 5    0  0.5612316E-005  0.3032468E+03  0.7546771E-02  0.1083629E+00
         21   -1    0    0  502  501  0.00000000000E+00  0.00000000000E+00  0.23318999973E+04  0.23318999973E+04  0.00000000000E+00 0.  1.
         21   -1    0    0  501  502 -0.00000000000E+00 -0.00000000000E+00 -0.39435060282E+02  0.39435060282E+02  0.00000000000E+00 0.  1.
         25    1    1    2    0    0  0.37105541347E+02 -0.73356475289E+02  0.14609496561E+04  0.14685901032E+04  0.12500000000E+03 0.  0.
         25    1    1    2    0    0 -0.79645490265E+02  0.13589595738E+03  0.54937023986E+03  0.58501604747E+03  0.12500000000E+03 0.  0.
         25    1    1    2    0    0  0.42539948918E+02 -0.62539482090E+02  0.28214504110E+03  0.31772890691E+03  0.12500000000E+03 0.  0.
</event>
<event>
 5    0  0.5612316E-005  0.2744931E+03  0.7546771E-02  0.1098735E+00
         21   -1    0    0  502  501  0.00000000000E+00  0.00000000000E+00  0.52784470015E+03  0.52784470015E+03  0.00000000000E+00 0.  1.
         21   -1    0    0  501  502 -0.00000000000E+00 -0.00000000000E+00 -0.14274363281E+03  0.14274363281E+03  0.00000000000E+00 0.  1.
         25    1    1    2    0    0 -0.15658959694E+02 -0.98558482902E+02  0.14652781638E+03  0.21692021239E+03  0.12500000000E+03 0.  0.
         25    1    1    2    0    0  0.13325115270E+03  0.27982669331E+02  0.18266258804E+03  0.25986442725E+03  0.12500000000E+03 0.  0.
         25    1    1    2    0    0 -0.11759219301E+03  0.70575813571E+02  0.55910662915E+02  0.19380369332E+03  0.12500000000E+03 0.  0.
</event>
<event>
 5    0  0.5612316E-005  0.3499957E+03  0.7546771E-02  0.1062617E+00
         21   -1    0    0  502  501  0.00000000000E+00  0.00000000000E+00  0.17649716796E+03  0.17649716796E+03  0.00000000000E+00 0. -1.
         21   -1    0    0  501  502 -0.00000000000E+00 -0.00000000000E+00 -0.69404513885E+03  0.69404513885E+03  0.00000000000E+00 0. -1.
         25    1    1    2    0    0 -0.81686165692E+02 -0.12980884302E+02 -0.42636584470E+03  0.45194464987E+03  0.12500000000E+03 0.  0.
         25    1    1    2    0    0  0.59767743360E+02 -0.95620649091E+02 -0.16523331794E+03  0.23588671229E+03  0.12500000000E+03 0.  0.
         25    1    1    2    0    0  0.21918422332E+02  0.10860153339E+03  0.74051191750E+02  0.18271094464E+03  0.12500000000E+03 0.  0.
</event>
<event>
 5    0  0.5612316E-005  0.4298410E+03  0.7546771E-02  0.1033910E+00
         21   -1    0    0  502  501  0.00000000000E+00  0.00000000000E+00  0.14302052599E+03  0.14302052599E+03  0.00000000000E+00 0.  1.
         21   -1    0    0  501  502 -0.00000000000E+00 -0.00000000000E+00 -0.12918656177E+04  0.12918656177E+04  0.00000000000E+00 0.  1.
         25    1    1    2    0    0  0.42885949562E+02  0.28848771711E+03 -0.29488443366E+03  0.43318148254E+03  0.12500000000E+03 0.  0.
         25    1    1    2    0    0 -0.12156678010E+03 -0.56975107585E+02 -0.12299512203E+03  0.22085616349E+03  0.12500000000E+03 0.  0.
         25    1    1    2    0    0  0.78680830539E+02 -0.23151260953E+03 -0.73096553599E+03  0.78084849764E+03  0.12500000000E+03 0.  0.
</event>
<event>
 5    0  0.5612316E-005  0.3026119E+03  0.7546771E-02  0.1083942E+00
         21   -1    0    0  502  501  0.00000000000E+00  0.00000000000E+00  0.66985442078E+03  0.66985442078E+03  0.00000000000E+00 0.  1.
         21   -1    0    0  501  502 -0.00000000000E+00 -0.00000000000E+00 -0.13670730081E+03  0.13670730081E+03  0.00000000000E+00 0.  1.
         25    1    1    2    0    0 -0.10201265530E+02 -0.79305579048E+02  0.33455339650E+03  0.36598417424E+03  0.12500000000E+03 0.  0.
         25    1    1    2    0    0  0.28535307106E+02  0.14780883693E+03  0.22094782743E+03  0.29513498348E+03  0.12500000000E+03 0.  0.
         25    1    1    2    0    0 -0.18334041576E+02 -0.68503257880E+02 -0.22354103965E+02  0.14544256387E+03  0.12500000000E+03 0.  0.
</event>
<event>
 5    0  0.5612316E-005  0.2577087E+03  0.7546771E-02  0.1108528E+00
         21   -1    0    0  502  501  0.00000000000E+00  0.00000000000E+00  0.24301134883E+03  0.24301134883E+03  0.00000000000E+00 0. -1.
         21   -1    0    0  501  502 -0.00000000000E+00 -0.00000000000E+00 -0.27329496123E+03  0.27329496123E+03  0.00000000000E+00 0. -1.
         25    1    1    2    0    0 -0.63139187737E+00 -0.42648108983E+02 -0.33491037471E+02  0.13625677762E+03  0.12500000000E+03 0.  0.
         25    1    1    2    0    0  0.63924446456E+02  0.28262372999E+02 -0.12462165843E+03  0.18984376295E+03  0.12500000000E+03 0.  0.
         25    1    1    2    0    0 -0.63293054578E+02  0.14385735984E+02  0.12782908350E+03  0.19020576949E+03  0.12500000000E+03 0.  0.
</event>
<event>
 5    0  0.5612316E-005  0.3305555E+03  0.7546771E-02  0.1070891E+00
         21   -1    0    0  502  501  0.00000000000E+00  0.00000000000E+00  0.98980012657E+03  0.98980012657E+03  0.00000000000E+00 0. -1.
         21   -1    0    0  501  502 -0.00000000000E+00 -0.00000000000E+00 -0.11039295767E+03  0.11039295767E+03  0.00000000000E+00 0. -1.
         25    1    1    2    0    0 -0.16775159378E+03  0.83226210709E+02  0.20886522818E+03  0.30711053858E+03  0.12500000000E+03 0.  0.
         25    1    1    2    0    0  0.20625830324E+03 -0.13904677823E+03  0.48621149981E+03  0.56027057458E+03  0.12500000000E+03 0.  0.
         25    1    1    2    0    0 -0.38506709458E+02  0.55820567521E+02  0.18433044091E+03  0.23281197108E+03  0.12500000000E+03 0.  0.
</event>
<event>
 5    0  0.5612316E-005  0.2369868E+03  0.7546771E-02  0.1121817E+00
         21   -1    0    0  502  501  0.00000000000E+00  0.00000000000E+00  0.89674980899E+02  0.89674980899E+02  0.00000000000E+00 0. -1.
         21   -1    0    0  501  502 -0.00000000000E+00 -0.00000000000E+00 -0.62629208472E+03  0.62629208472E+03  0.00000000000E+00 0.  1.
         25    1    1    2    0    0 -0.80099530210E+02  0.10431508708E+03 -0.16715552325E+03  0.24670537304E+03  0.12500000000E+03 0.  0.
         25    1    1    2    0    0  0.63193961935E+02 -0.46939296200E+02 -0.22431522418E+03  0.26858721889E+03  0.12500000000E+03 0.  0.
         25    1    1    2    0    0  0.16905568275E+02 -0.57375790882E+02 -0.14514635639E+03  0.20067447369E+03  0.12500000000E+03 0.  0.
</event>
<event>
 5    0  0.5612316E-005  0.4199474E+03  0.7546771E-02  0.1037083E+00
         21   -1    0    0  502  501  0.00000000000E+00  0.00000000000E+00  0.41630624498E+03  0.41630624498E+03  0.00000000000E+00 0. -1.
         21   -1    0    0  501  502 -0.00000000000E+00 -0.00000000000E+00 -0.42362046561E+03  0.42362046561E+03  0.00000000000E+00 0. -1.
         25    1    1    2    0    0  0.19714566702E+02  0.54493322580E+02 -0.58796151481E+01  0.13790488106E+03  0.12500000000E+03 0.  0.
         25    1    1    2    0    0  0.58029297141E+02 -0.18155820946E+03 -0.28078203796E+03  0.36165499525E+03  0.12500000000E+03 0.  0.
         25    1    1    2    0    0 -0.77743863844E+02  0.12706488688E+03  0.27934743248E+03  0.34036683427E+03  0.12500000000E+03 0.  0.
</event>
<event>
 5    0  0.5612316E-005  0.3609887E+03  0.7546771E-02  0.1058193E+00
         21   -1    0    0  502  501  0.00000000000E+00  0.00000000000E+00  0.32708431429E+03  0.32708431429E+03  0.00000000000E+00 0.  1.
         21   -1    0    0  501  502 -0.00000000000E+00 -0.00000000000E+00 -0.39840739839E+03  0.39840739839E+03  0.00000000000E+00 0.  1.
         25    1    1    2    0    0 -0.11733556790E+03  0.45162910889E+02 -0.14107736724E+03  0.22657260991E+03  0.12500000000E+03 0.  0.
         25    1    1    2    0    0  0.20793661639E+03  0.32862605497E+02 -0.92528626364E+02  0.26173294399E+03  0.12500000000E+03 0.  0.
         25    1    1    2    0    0 -0.90601048487E+02 -0.78025516386E+02  0.16228290951E+03  0.23718615877E+03  0.12500000000E+03 0.  0.
</event>
<event>
 5    0  0.5612316E-005  0.3258125E+03  0.7546771E-02  0.1073005E+00
         21   -1    0    0  502  501  0.00000000000E+00  0.00000000000E+00  0.28435535297E+04  0.28435535297E+04  0.00000000000E+00 0.  1.
         21   -1    0    0  501  502 -0.00000000000E+00 -0.00000000000E+00 -0.37331382725E+02  0.37331382725E+02  0.00000000000E+00 0.  1.
         25    1    1    2    0    0 -0.17584044461E+03 -0.17437358931E+03  0.11696409645E+04  0.12020861020E+04  0.12500000000E+03 0.  0.
         25    1    1    2    0    0  0.47585086976E+02  0.10673605305E+03  0.98198646754E+03  0.99678450427E+03  0.12500000000E+03 0.  0.
         25    1    1    2    0    0  0.12825535764E+03  0.67637536260E+02  0.65459471490E+03  0.68201430619E+03  0.12500000000E+03 0.  0.
</event>
<event>
 5    0  0.5612316E-005  0.4208132E+03  0.7546771E-02  0.1036802E+00
         21   -1    0    0  502  501  0.00000000000E+00  0.00000000000E+00  0.26303095868E+03  0.26303095868E+03  0.00000000000E+00 0.  1.
         21   -1    0    0  501  502 -0.00000000000E+00 -0.00000000000E+00 -0.67324306381E+03  0.67324306381E+03  0.00000000000E+00 0.  1.
         25    1    1    2    0    0 -0.24211409634E+03 -0.34256580022E+02  0.20818078226E+02  0.27541085908E+03  0.12500000000E+03 0.  0.
         25    1    1    2    0    0  0.11795316676E+02 -0.13268042713E+03 -0.10592345445E+03  0.21115871624E+03  0.12500000000E+03 0.  0.
         25    1    1    2    0    0  0.23031877966E+03  0.16693700715E+03 -0.32510672890E+03  0.44970444716E+03  0.12500000000E+03 0.  0.
</event>
<event>
 5    0  0.5612316E-005  0.2803059E+03  0.7546771E-02  0.1095522E+00
         21   -1    0    0  502  501  0.00000000000E+00  0.00000000000E+00  0.24605662632E+03  0.24605662632E+03  0.00000000000E+00 0. -1.
         21   -1    0    0  501  502 -0.00000000000E+00 -0.00000000000E+00 -0.31932239171E+03  0.31932239171E+03  0.00000000000E+00 0. -1.
         25    1    1    2    0    0  0.17818523232E+02  0.55558883370E+02 -0.13316320990E+03  0.19173348629E+03  0.12500000000E+03 0.  0.
         25    1    1    2    0    0  0.11599317751E+02  0.12658395155E+02 -0.97429667631E+02  0.15941241882E+03  0.12500000000E+03 0.  0.
         25    1    1    2    0    0 -0.29417840984E+02 -0.68217278525E+02  0.15732711214E+03  0.21423311292E+03  0.12500000000E+03 0.  0.
</event>
<event>
 5    0  0.5612316E-005  0.4256378E+03  0.7546771E-02  0.1035247E+00
         21   -1    0    0  502  501  0.00000000000E+00  0.00000000000E+00  0.76053855820E+02  0.76053855820E+02  0.00000000000E+00 0. -1.
         21   -1    0    0  501  502 -0.00000000000E+00 -0.00000000000E+00 -0.23820955312E+04  0.23820955312E+04  0.00000000000E+00 0. -1.
         25    1    1    2    0    0  0.20507299317E+03  0.54248480229E+02 -0.44393701259E+03  0.50764446346E+03  0.12500000000E+03 0.  0.
         25    1    1    2    0    0 -0.20681958256E+03  0.17789519882E+03 -0.12202651644E+04  0.12566197169E+04  0.12500000000E+03 0.  0.
         25    1    1    2    0    0  0.17465893931E+01 -0.23214367905E+03 -0.64183949833E+03  0.69388520658E+03  0.12500000000E+03 0.  0.
</event>
<event>
 5    0  0.5612316E-005  0.2620139E+03  0.7546771E-02  0.1105939E+00
         21   -1    0    0  502  501  0.00000000000E+00  0.00000000000E+00  0.13961793174E+04  0.13961793174E+04  0.00000000000E+00 0.  1.
         21   -1    0    0  501  502 -0.00000000000E+00 -0.00000000000E+00 -0.49170822442E+02  0.49170822442E+02  0.00000000000E+00 0.  1.
         25    1    1    2    0    0  0.37791102050E+02  0.19875677136E+02  0.66042243965E+03  0.67350279044E+03  0.12500000000E+03 0.  0.
         25    1    1    2    0    0 -0.81220147327E+02  0.81347869797E+02  0.46191757961E+03  0.49214534297E+03  0.12500000000E+03 0.  0.
         25    1    1    2    0    0  0.43429045277E+02 -0.10122354693E+03  0.22466847567E+03  0.27970200640E+03  0.12500000000E+03 0.  0.
</event>
<event>
 5    0  0.5612316E-005  0.2252069E+03  0.7546771E-02  0.1130060E+00
         21   -1    0    0  502  501  0.00000000000E+00  0.00000000000E+00  0.18007210251E+03  0.18007210251E+03  0.00000000000E+00 0. -1.
         21   -1    0    0  501  502 -0.00000000000E+00 -0.00000000000E+00 -0.28165471428E+03  0.28165471428E+03  0.00000000000E+00 0. -1.
         25    1    1    2    0    0  0.68416247825E+01 -0.17379820674E+02  0.72053719819E+02  0.14548403533E+03  0.12500000000E+03 0.  0.
         25    1    1    2    0    0  0.42720912268E+01 -0.29151959141E+02 -0.65436256292E+02  0.14413532226E+03  0.12500000000E+03 0.  0.
         25    1    1    2    0    0 -0.11113716009E+02  0.46531779815E+02 -0.10820007530E+03  0.17210745920E+03  0.12500000000E+03 0.  0.
</event>
<event>
 5    0  0.5612316E-005  0.3598942E+03  0.7546771E-02  0.1058626E+00
         21   -1    0    0  502  501  0.00000000000E+00  0.00000000000E+00  0.39746389314E+03  0.39746389314E+03  0.00000000000E+00 0.  1.
         21   -1    0    0  501  502 -0.00000000000E+00 -0.00000000000E+00 -0.32587566749E+03  0.32587566749E+03  0.00000000000E+00 0.  1.
         25    1    1    2    0    0  0.14587585825E+03  0.77923237645E+02 -0.16386942240E+02  0.20795511261E+03  0.12500000000E+03 0.  0.
         25    1    1    2    0    0 -0.22720500272E+03 -0.18800928641E+03  0.78496183157E+02  0.32978213385E+03  0.12500000000E+03 0.  0.
         25    1    1    2    0    0  0.81329144465E+02  0.11008604877E+03  0.94789847290E+01  0.18560231417E+03  0.12500000000E+03 0.  0.
</event>
<event>
 5    0  0.5612316E-005  0.4467495E+03  0.7546771E-02  0.1028696E+00
         21   -1    0    0  502  501  0.00000000000E+00  0.00000000000E+00  0.78539952755E+03  0.78539952755E+03  0.00000000000E+00 0.  1.
         21   -1    0    0  501  502 -0.00000000000E+00 -0.00000000000E+00 -0.25411924781E+03  0.25411924781E+03  0.00000000000E+00 0.  1.
         25    1    1    2    0    0  0.84993525838E+01  0.99590139258E+02 -0.84186722720E-01  0.16004824872E+03  0.12500000000E+03 0.  0.
         25    1    1    2    0    0  0.30650043684E+03 -0.53309318172E+02  0.15032623674E+03  0.36743350234E+03  0.12500000000E+03 0.  0.
         25    1    1    2    0    0 -0.31499978942E+03 -0.46280821086E+02  0.38103822972E+03  0.51203702429E+03  0.12500000000E+03 0.  0.
</event>
<event>
 5    0  0.5964568E-005  0.3597750E+03  0.7546771E-02  0.1058673E+00
         21   -1    0    0  502  501  0.00000000000E+00  0.00000000000E+00  0.31133494954E+03  0.31133494954E+03  0.00000000000E+00 0. -1.
         21   -1    0    0  501  502 -0.00000000000E+00 -0.00000000000E+00 -0.41575184057E+03  0.41575184057E+03  0.00000000000E+00 0. -1.
         25    1    1    2    0    0 -0.10494154715E+02 -0.16112205551E+03 -0.86933227007E+02  0.22192978622E+03  0.12500000000E+03 0.  0.
         25    1    1    2    0    0  0.49957833007E+02  0.12124283467E+03  0.18612754229E+03  0.25973846854E+03  0.12500000000E+03 0.  0.
         25    1    1    2    0    0 -0.39463678292E+02  0.39879220838E+02 -0.20361120631E+03  0.24541853535E+03  0.12500000000E+03 0.  0.
</event>
<event>
 5    0  0.5928121E-005  0.3343193E+03  0.7546771E-02  0.1069242E+00
         21   -1    0    0  502  501  0.00000000000E+00  0.00000000000E+00  0.10354778325E+04  0.10354778325E+04  0.00000000000E+00 0. -1.
         21   -1    0    0  501  502 -0.00000000000E+00 -0.00000000000E+00 -0.10793994149E+03  0.10793994149E+03  0.00000000000E+00 0. -1.
         25    1    1    2    0    0  0.27458463161E+02  0.16862851772E+03  0.13032174242E+03  0.24859264015E+03  0.12500000000E+03 0.  0.
         25    1    1    2    0    0  0.54838583303E+02 -0.10236703689E+02  0.54303252830E+03  0.56001909531E+03  0.12500000000E+03 0.  0.
         25    1    1    2    0    0 -0.82297046464E+02 -0.15839181403E+03  0.25418362029E+03  0.33480603852E+03  0.12500000000E+03 0.  0.
</event>
<event>
 5    0  0.5612316E-005  0.2406989E+03  0.7546771E-02  0.1119328E+00
         21   -1    0    0  502  501  0.00000000000E+00  0.00000000000E+00  0.42223624963E+03  0.42223624963E+03  0.00000000000E+00 0. -1.
         21   -1    0    0  501  502 -0.00000000000E+00 -0.00000000000E+00 -0.13721215201E+03  0.13721215201E+03  0.00000000000E+00 0. -1.
         25    1    1    2    0    0 -0.88270824212E+02  0.68655589351E+02  0.33086755571E+02  0.17095339058E+03  0.12500000000E+03 0.  0.
         25    1    1    2    0    0  0.70231653580E+02  0.12801658192E+02  0.14278577047E+03  0.20275389975E+03  0.12500000000E+03 0.  0.
         25    1    1    2    0    0  0.18039170633E+02 -0.81457247543E+02  0.10915157158E+03  0.18574111132E+03  0.12500000000E+03 0.  0.
</event>
<event>
 5    0  0.6405836E-005  0.2786528E+03  0.7546771E-02  0.1096427E+00
         21   -1    0    0  502  501  0.00000000000E+00  0.00000000000E+00  0.27980103359E+03  0.27980103359E+03  0.00000000000E+00 0.  1.
         21   -1    0    0  501  502 -0.00000000000E+00 -0.00000000000E+00 -0.27750937278E+03  0.27750937278E+03  0.00000000000E+00 0.  1.
         25    1    1    2    0    0  0.68830161692E+02 -0.34719420918E+01 -0.55706839850E+02  0.15322498995E+03  0.12500000000E+03 0.  0.
         25    1    1    2    0    0 -0.40827862211E+02  0.20857880079E+02 -0.12326831143E+03  0.18144432231E+03  0.12500000000E+03 0.  0.
         25    1    1    2    0    0 -0.28002299481E+02 -0.17385937987E+02  0.18126681210E+03  0.22264109411E+03  0.12500000000E+03 0.  0.
</event>
<event>
 5    0  0.5612316E-005  0.2961101E+03  0.7546771E-02  0.1087201E+00
         21   -1    0    0  502  501  0.00000000000E+00  0.00000000000E+00  0.10536365828E+04  0.10536365828E+04  0.00000000000E+00 0.  1.
         21   -1    0    0  501  502 -0.00000000000E+00 -0.00000000000E+00 -0.83217651743E+02  0.83217651743E+02  0.00000000000E+00 0.  1.
         25    1    1    2    0    0 -0.67735226649E+02 -0.15481347639E+02  0.11305892102E+03  0.18230483448E+03  0.12500000000E+03 0.  0.
         25    1    1    2    0    0  0.56960913860E+02  0.16587367663E+03  0.35320120807E+03  0.41368431888E+03  0.12500000000E+03 0.  0.
         25    1    1    2    0    0  0.10774312789E+02 -0.15039232899E+03  0.50415880196E+03  0.54086508117E+03  0.12500000000E+03 0.  0.
</event>
<event>
 5    0  0.5612316E-005  0.3650164E+03  0.7546771E-02  0.1056615E+00
         21   -1    0    0  502  501  0.00000000000E+00  0.00000000000E+00  0.22251471787E+03  0.22251471787E+03  0.00000000000E+00 0.  1.
         21   -1    0    0  501  502 -0.00000000000E+00 -0.00000000000E+00 -0.59877833810E+03  0.59877833810E+03  0.00000000000E+00 0.  1.
         25    1    1    2    0    0 -0.52797358701E+02  0.70164335889E+02 -0.76737134585E+02  0.17095082024E+03  0.12500000000E+03 0.  0.
         25    1    1    2    0    0 -0.17261419757E+03 -0.12542455401E+03  0.52962921718E+01  0.24734597361E+03  0.12500000000E+03 0.  0.
         25    1    1    2    0    0  0.22541155627E+03  0.55260218123E+02 -0.30482277782E+03  0.40299626212E+03  0.12500000000E+03 0.  0.
</event>
<event>
 5    0  0.5612316E-005  0.4119219E+03  0.7546771E-02  0.1039728E+00
         21   -1    0    0  502  501  0.00000000000E+00  0.00000000000E+00  0.51477861920E+03  0.51477861920E+03  0.00000000000E+00 0.  1.
         21   -1    0    0  501  502 -0.00000000000E+00 -0.00000000000E+00 -0.32961681322E+03  0.32961681322E+03  0.00000000000E+00 0.  1.
         25    1    1    2    0    0  0.34274283220E+03 -0.55635904796E+02  0.50688762210E+02  0.37250819259E+03  0.12500000000E+03 0.  0.
         25    1    1    2    0    0 -0.19257079077E+03 -0.32379413864E+02  0.31006676546E+02  0.23391953721E+03  0.12500000000E+03 0.  0.
         25    1    1    2    0    0 -0.15017204143E+03  0.88015318659E+02  0.10346636722E+03  0.23796770262E+03  0.12500000000E+03 0.  0.
</event>
<event>
 5    0  0.5612316E-005  0.3065886E+03  0.7546771E-02  0.1081993E+00
         21   -1    0    0  502  501  0.00000000000E+00  0.00000000000E+00  0.18648862447E+03  0.18648862447E+03  0.00000000000E+00 0.  1.
         21   -1    0    0  501  502 -0.00000000000E+00 -0.00000000000E+00 -0.50403370295E+03  0.50403370295E+03  0.00000000000E+00 0.  1.
         25    1    1    2    0    0  0.49489797448E+02  0.80647257939E+02 -0.19923778319E+02  0.15803536695E+03  0.12500000000E+03 0.  0.
         25    1    1    2    0    0 -0.10185582505E+03 -0.15359928895E+03 -0.30587348944E+03  0.37835293339E+03  0.12500000000E+03 0.  0.
         25    1    1    2    0    0  0.52366027599E+02  0.72952031010E+02  0.82521892917E+01  0.15413402708E+03  0.12500000000E+03 0.  0.
</event>
<event>
 5    0  0.5612316E-005  0.5207146E+03  0.7546771E-02  0.1008509E+00
         21   -1    0    0  502  501  0.00000000000E+00  0.00000000000E+00  0.72637849037E+03  0.72637849037E+03  0.00000000000E+00 0. -1.
         21   -1    0    0  501  502 -0.00000000000E+00 -0.00000000000E+00 -0.37328153584E+03  0.37328153584E+03  0.00000000000E+00 0. -1.
         25    1    1    2    0    0  0.11520605026E+03 -0.18596950402E+03  0.54712363562E+03  0.60235069777E+03  0.12500000000E+03 0.  0.
         25    1    1    2    0    0  0.31062928335E+02  0.94214138112E+02  0.55658059861E+02  0.16900896120E+03  0.12500000000E+03 0.  0.
         25    1    1    2    0    0 -0.14626897859E+03  0.91755365909E+02 -0.24968474095E+03  0.32830036725E+03  0.12500000000E+03 0.  0.
</event>
<event>
 5    0  0.5612316E-005  0.5297774E+03  0.7546771E-02  0.1006286E+00
         21   -1    0    0  502  501  0.00000000000E+00  0.00000000000E+00  0.47230987640E+03  0.47230987640E+03  0.00000000000E+00 0. -1.
         21   -1    0    0  501  502 -0.00000000000E+00 -0.00000000000E+00 -0.59423727357E+03  0.59423727357E+03  0.00000000000E+00 0. -1.
         25    1    1    2    0    0  0.16114584198E+03 -0.12393314811E+03  0.94467205538E+02  0.25666410055E+03  0.12500000000E+03 0.  0.
         25    1    1    2    0    0 -0.13740197361E+03  0.34478611404E+03  0.99404426504E+02  0.40405817254E+03  0.12500000000E+03 0.  0.
         25    1    1    2    0    0 -0.23743868371E+02 -0.22085296592E+03 -0.31579902922E+03  0.40582487688E+03  0.12500000000E+03 0.  0.
</event>
<event>
 5    0  0.5612316E-005  0.4312193E+03  0.7546771E-02  0.1033475E+00
         21   -1    0    0  502  501  0.00000000000E+00  0.00000000000E+00  0.54835025383E+03  0.54835025383E+03  0.00000000000E+00 0.  1.
         21   -1    0    0  501  502 -0.00000000000E+00 -0.00000000000E+00 -0.33910824180E+03  0.33910824180E+03  0.00000000000E+00 0.  1.
         25    1    1    2    0    0 -0.82356982495E+02 -0.31544079501E+03  0.16169525464E+03  0.38478035695E+03  0.12500000000E+03 0.  0.
         25    1    1    2    0    0 -0.78422723883E+02  0.77558436160E+02 -0.51094981593E+02  0.17435920333E+03  0.12500000000E+03 0.  0.
         25    1    1    2    0    0  0.16077970638E+03  0.23788235885E+03  0.98641738982E+02  0.32831893534E+03  0.12500000000E+03 0.  0.
</event>
<event>
 5    0  0.5612316E-005  0.5689520E+03  0.7546771E-02  0.9972000E-01
         21   -1    0    0  502  501  0.00000000000E+00  0.00000000000E+00  0.34404159188E+03  0.34404159188E+03  0.00000000000E+00 0.  1.
         21   -1    0    0  501  502 -0.00000000000E+00 -0.00000000000E+00 -0.94089304774E+03  0.94089304774E+03  0.00000000000E+00 0.  1.
         25    1    1    2    0    0 -0.53281402245E+02  0.45308549653E+03 -0.46126477961E+03  0.66069325099E+03  0.12500000000E+03 0.  0.
         25    1    1    2    0    0 -0.10686825642E+03 -0.22656302378E+03  0.23393387213E+02  0.28093393982E+03  0.12500000000E+03 0.  0.
         25    1    1    2    0    0  0.16014965867E+03 -0.22652247275E+03 -0.15898006346E+03  0.34330744881E+03  0.12500000000E+03 0.  0.
</event>
<event>
 5    0  0.5612316E-005  0.3342284E+03  0.7546771E-02  0.1069281E+00
         21   -1    0    0  502  501  0.00000000000E+00  0.00000000000E+00  0.21977941553E+04  0.21977941553E+04  0.00000000000E+00 0. -1.
         21   -1    0    0  501  502 -0.00000000000E+00 -0.00000000000E+00 -0.50827598509E+02  0.50827598509E+02  0.00000000000E+00 0. -1.
         25    1    1    2    0    0 -0.34372426021E+02  0.77410449919E+02  0.34191537049E+03  0.37377126964E+03  0.12500000000E+03 0.  0.
         25    1    1    2    0    0 -0.22429036916E+02 -0.31865336689E+02  0.16756623671E+04  0.16807700110E+04  0.12500000000E+03 0.  0.
         25    1    1    2    0    0  0.56801462937E+02 -0.45545113230E+02  0.12938881920E+03  0.19408047317E+03  0.12500000000E+03 0.  0.
</event>
<event>
 5    0  0.5612316E-005  0.2629741E+03  0.7546771E-02  0.1105369E+00
         21   -1    0    0  502  501  0.00000000000E+00  0.00000000000E+00  0.63427604349E+03  0.63427604349E+03  0.00000000000E+00 0.  1.
         21   -1    0    0  501  502 -0.00000000000E+00 -0.00000000000E+00 -0.10903038848E+03  0.10903038848E+03  0.00000000000E+00 0.  1.
         25    1    1    2    0    0 -0.16307769956E+03  0.49525877039E+01  0.18557191209E+03  0.27691298051E+03  0.12500000000E+03 0.  0.
         25    1    1    2    0    0  0.12188613454E+03 -0.47733304029E+02  0.20091425991E+03  0.27041863460E+03  0.12500000000E+03 0.  0.
         25    1    1    2    0    0  0.41191565023E+02  0.42780716325E+02  0.13875948301E+03  0.19597481686E+03  0.12500000000E+03 0.  0.
</event>
<event>
 5    0  0.5612316E-005  0.4524179E+03  0.7546771E-02  0.1027003E+00
         21   -1    0    0  502  501  0.00000000000E+00  0.00000000000E+00  0.40925959849E+03  0.40925959849E+03  0.00000000000E+00 0.  1.
         21   -1    0    0  501  502 -0.00000000000E+00 -0.00000000000E+00 -0.50012741008E+03  0.50012741008E+03  0.00000000000E+00 0.  1.
         25    1    1    2    0    0  0.28656194494E+03 -0.20273423593E+03 -0.20230400043E+03  0.42399390007E+03  0.12500000000E+03 0.  0.
         25    1    1    2    0    0 -0.10559362647E+03 -0.11780838514E+02  0.22798255509E+02  0.16563080197E+03  0.12500000000E+03 0.  0.
         25    1    1    2    0    0 -0.18096831847E+03  0.21451507445E+03  0.88637933319E+02  0.31976230653E+03  0.12500000000E+03 0.  0.
</event>
<event>
 5    0  0.5612316E-005  0.3497137E+03  0.7546771E-02  0.1062733E+00
         21   -1    0    0  502  501  0.00000000000E+00  0.00000000000E+00  0.38859119791E+03  0.38859119791E+03  0.00000000000E+00 0. -1.
         21   -1    0    0  501  502 -0.00000000000E+00 -0.00000000000E+00 -0.31472575205E+03  0.31472575205E+03  0.00000000000E+00 0. -1.
         25    1    1    2    0    0 -0.46107929762E+02 -0.78390624351E+02 -0.15169300782E+03  0.21657977698E+03  0.12500000000E+03 0.  0.
         25    1    1    2    0    0  0.83909820665E+02  0.14530690997E+03  0.26224031404E+03  0.33548463213E+03  0.12500000000E+03 0.  0.
         25    1    1    2    0    0 -0.37801890903E+02 -0.66916285615E+02 -0.36681860359E+02  0.15125254086E+03  0.12500000000E+03 0.  0.
</event>
<event>
 5    0  0.5612316E-005  0.3955283E+03  0.7546771E-02  0.1045339E+00
         21   -1    0    0  502  501  0.00000000000E+00  0.00000000000E+00  0.13087208241E+04  0.13087208241E+04  0.00000000000E+00 0.  1.
         21   -1    0    0  501  502 -0.00000000000E+00 -0.00000000000E+00 -0.11953857867E+03  0.11953857867E+03  0.00000000000E+00 0.  1.
         25    1    1    2    0    0 -0.11211350690E+02  0.18633313711E+02 -0.32589832644E+02  0.13099615245E+03  0.12500000000E+03 0.  0.
         25    1    1    2    0    0 -0.28088073535E+02  0.13521081376E+03  0.88601299179E+03  0.90538109415E+03  0.12500000000E+03 0.  0.
         25    1    1    2    0    0  0.39299424225E+02 -0.15384412747E+03  0.33575908631E+03  0.39188215620E+03  0.12500000000E+03 0.  0.
</event>
<event>
 5    0  0.5612316E-005  0.3832710E+03  0.7546771E-02  0.1049731E+00
         21   -1    0    0  502  501  0.00000000000E+00  0.00000000000E+00  0.42330190043E+03  0.42330190043E+03  0.00000000000E+00 0.  1.
         21   -1    0    0  501  502 -0.00000000000E+00 -0.00000000000E+00 -0.34702578671E+03  0.34702578671E+03  0.00000000000E+00 0.  1.
         25    1    1    2    0    0 -0.72273965786E+02 -0.81463428062E+02  0.23444833430E+03  0.28714253899E+03  0.12500000000E+03 0.  0.
         25    1    1    2    0    0 -0.74700973158E+02  0.33551422233E+02 -0.22788770449E+03  0.27251374127E+03  0.12500000000E+03 0.  0.
         25    1    1    2    0    0  0.14697493894E+03  0.47912005830E+02  0.69715483909E+02  0.21067140688E+03  0.12500000000E+03 0.  0.
</event>
<event>
 5    0  0.5612316E-005  0.2393726E+03  0.7546771E-02  0.1120212E+00
         21   -1    0    0  502  501  0.00000000000E+00  0.00000000000E+00  0.49670505740E+03  0.49670505740E+03  0.00000000000E+00 0. -1.
         21   -1    0    0  501  502 -0.00000000000E+00 -0.00000000000E+00 -0.11535864652E+03  0.11535864652E+03  0.00000000000E+00 0. -1.
         25    1    1    2    0    0 -0.44628255832E+02 -0.92570501988E+02  0.10925458734E+03  0.19524995240E+03  0.12500000000E+03 0.  0.
         25    1    1    2    0    0 -0.51315458804E+02  0.21205437365E+02  0.80598747828E+02  0.15875800779E+03  0.12500000000E+03 0.  0.
         25    1    1    2    0    0  0.95943714637E+02  0.71365064623E+02  0.19149307572E+03  0.25805574373E+03  0.12500000000E+03 0.  0.
</event>
<event>
 5    0  0.5612316E-005  0.2632120E+03  0.7546771E-02  0.1105229E+00
         21   -1    0    0  502  501  0.00000000000E+00  0.00000000000E+00  0.34644092609E+02  0.34644092609E+02  0.00000000000E+00 0. -1.
         21   -1    0    0  501  502 -0.00000000000E+00 -0.00000000000E+00 -0.19997801732E+04  0.19997801732E+04  0.00000000000E+00 0. -1.
         25    1    1    2    0    0  0.96837133285E+02 -0.47613958713E+01 -0.44004723347E+03  0.46761808023E+03  0.12500000000E+03 0.  0.
         25    1    1    2    0    0 -0.16320647854E+03 -0.11304632862E+02 -0.70532969165E+03  0.73476467205E+03  0.12500000000E+03 0.  0.
         25    1    1    2    0    0  0.66369345254E+02  0.16066028734E+02 -0.81975915551E+03  0.83204151357E+03  0.12500000000E+03 0.  0.
</event>
<event>
 5    0  0.5612316E-005  0.4419790E+03  0.7546771E-02  0.1030141E+00
         21   -1    0    0  502  501  0.00000000000E+00  0.00000000000E+00  0.31727541789E+03  0.31727541789E+03  0.00000000000E+00 0. -1.
         21   -1    0    0  501  502 -0.00000000000E+00 -0.00000000000E+00 -0.61569664754E+03  0.61569664754E+03  0.00000000000E+00 0. -1.
         25    1    1    2    0    0 -0.46813742899E+02  0.20719984646E+03 -0.10750513438E+03  0.26889711195E+03  0.12500000000E+03 0.  0.
         25    1    1    2    0    0  0.36779436881E+02 -0.37819948563E+03 -0.36341165529E+02  0.40166311533E+03  0.12500000000E+03 0.  0.
         25    1    1    2    0    0  0.10034306018E+02  0.17099963917E+03 -0.15457492975E+03  0.26241183815E+03  0.12500000000E+03 0.  0.
</event>
<event>
 5    0  0.5612316E-005  0.4505044E+03  0.7546771E-02  0.1027572E+00
         21   -1    0    0  502  501  0.00000000000E+00  0.00000000000E+00  0.10382732412E+03  0.10382732412E+03  0.00000000000E+00 0.  1.
         21   -1    0    0  501  502 -0.00000000000E+00 -0.00000000000E+00 -0.19547282294E+04  0.19547282294E+04  0.00000000000E+00 0.  1.
         25    1    1    2    0    0  0.27258586401E+03 -0.10336071786E+03 -0.85268742456E+03  0.90977323288E+03  0.12500000000E+03 0.  0.
         25    1    1    2    0    0 -0.43405687540E+02  0.94887852640E+02 -0.57817195641E+02  0.17278769169E+03  0.12500000000E+03 0.  0.
         25    1    1    2    0    0 -0.22918017647E+03  0.84728652234E+01 -0.94039628510E+03  0.97599462896E+03  0.12500000000E+03 0.  0.
</event>
<event>
 5    0  0.5612316E-005  0.3037261E+03  0.7546771E-02  0.1083393E+00
         21   -1    0    0  502  501  0.00000000000E+00  0.00000000000E+00  0.35944848659E+03  0.35944848659E+03  0.00000000000E+00 0. -1.
         21   -1    0    0  501  502 -0.00000000000E+00 -0.00000000000E+00 -0.25664197116E+03  0.25664197116E+03  0.00000000000E+00 0. -1.
         25    1    1    2    0    0 -0.91878888927E+02 -0.76850834938E+02  0.24354454496E+03  0.29880884599E+03  0.12500000000E+03 0.  0.
         25    1    1    2    0    0  0.29549824947E+02  0.36528657577E+02 -0.98348723270E+02  0.16584633354E+03  0.12500000000E+03 0.  0.
         25    1    1    2    0    0  0.62329063981E+02  0.40322177361E+02 -0.42389306264E+02  0.15143527822E+03  0.12500000000E+03 0.  0.
</event>
<event>
 5    0  0.5612316E-005  0.2526215E+03  0.7546771E-02  0.1111659E+00
         21   -1    0    0  502  501  0.00000000000E+00  0.00000000000E+00  0.24273023442E+03  0.24273023442E+03  0.00000000000E+00 0.  1.
         21   -1    0    0  501  502 -0.00000000000E+00 -0.00000000000E+00 -0.26291589697E+03  0.26291589697E+03  0.00000000000E+00 0.  1.
         25    1    1    2    0    0 -0.27622802586E+00  0.37657204704E+02 -0.11610303072E+03  0.17470848609E+03  0.12500000000E+03 0.  0.
         25    1    1    2    0    0  0.19961713291E+02  0.75039251240E+02  0.39867801008E+02  0.15245917743E+03  0.12500000000E+03 0.  0.
         25    1    1    2    0    0 -0.19685485266E+02 -0.11269645594E+03  0.56049567166E+02  0.17847846787E+03  0.12500000000E+03 0.  0.
</event>
<event>
 5    0  0.5612316E-005  0.3858999E+03  0.7546771E-02  0.1048774E+00
         21   -1    0    0  502  501  0.00000000000E+00  0.00000000000E+00  0.16262741507E+04  0.16262741507E+04  0.00000000000E+00 0. -1.
         21   -1    0    0  501  502 -0.00000000000E+00 -0.00000000000E+00 -0.91570515444E+02  0.91570515444E+02  0.00000000000E+00 0. -1.
         25    1    1    2    0    0 -0.50701698552E+02 -0.55539735810E+02  0.10929009887E+04  0.11025937129E+04  0.12500000000E+03 0.  0.
         25    1    1    2    0    0 -0.13292243331E+03  0.82877388415E+02  0.25069147611E+03  0.32094898502E+03  0.12500000000E+03 0.  0.
         25    1    1    2    0    0  0.18362413187E+03 -0.27337652605E+02  0.19111117037E+03  0.29430196821E+03  0.12500000000E+03 0.  0.
</event>
<event>
 5    0  0.5612316E-005  0.4417336E+03  0.7546771E-02  0.1030216E+00
         21   -1    0    0  502  501  0.00000000000E+00  0.00000000000E+00  0.46725203141E+03  0.46725203141E+03  0.00000000000E+00 0.  1.
         21   -1    0    0  501  502 -0.00000000000E+00 -0.00000000000E+00 -0.41760891469E+03  0.41760891469E+03  0.00000000000E+00 0.  1.
         25    1    1    2    0    0 -0.15496068215E+02 -0.73892605596E+02  0.35750011855E+03  0.38617558190E+03  0.12500000000E+03 0.  0.
         25    1    1    2    0    0 -0.86521015880E+02  0.89907063139E+01 -0.28519119857E+03  0.32330440567E+03  0.12500000000E+03 0.  0.
         25    1    1    2    0    0  0.10201708409E+03  0.64901899282E+02 -0.22665803250E+02  0.17538095853E+03  0.12500000000E+03 0.  0.
</event>
<event>
 5    0  0.5612316E-005  0.3090518E+03  0.7546771E-02  0.1080801E+00
         21   -1    0    0  502  501  0.00000000000E+00  0.00000000000E+00  0.89815610916E+02  0.89815610916E+02  0.00000000000E+00 0.  1.
         21   -1    0    0  501  502 -0.00000000000E+00 -0.00000000000E+00 -0.10634342190E+04  0.10634342190E+04  0.00000000000E+00 0.  1.
         25    1    1    2    0    0  0.96116869011E+02 -0.32641217850E+02 -0.42912028403E+03  0.45833734277E+03  0.12500000000E+03 0.  0.
         25    1    1    2    0    0 -0.83121099932E+02  0.15907012125E+03 -0.15966436916E+03  0.27079536833E+03  0.12500000000E+03 0.  0.
         25    1    1    2    0    0 -0.12995769080E+02 -0.12642890340E+03 -0.38483395488E+03  0.42411711880E+03  0.12500000000E+03 0.  0.
</event>
<event>
 5    0  0.5612316E-005  0.2375416E+03  0.7546771E-02  0.1121441E+00
         21   -1    0    0  502  501  0.00000000000E+00  0.00000000000E+00  0.34975537781E+03  0.34975537781E+03  0.00000000000E+00 0. -1.
         21   -1    0    0  501  502 -0.00000000000E+00 -0.00000000000E+00 -0.16132993455E+03  0.16132993455E+03  0.00000000000E+00 0. -1.
         25    1    1    2    0    0 -0.11116751155E+03  0.40449770285E+02  0.85784177566E+01  0.17231653661E+03  0.12500000000E+03 0.  0.
         25    1    1    2    0    0  0.21589902409E+02  0.37207366912E+01  0.85549934187E+02  0.15304822445E+03  0.12500000000E+03 0.  0.
         25    1    1    2    0    0  0.89577609136E+02 -0.44170506976E+02  0.94297091314E+02  0.18572055130E+03  0.12500000000E+03 0.  0.
</event>
<event>
 5    0  0.5612316E-005  0.2239298E+03  0.7546771E-02  0.1130987E+00
         21   -1    0    0  502  501  0.00000000000E+00  0.00000000000E+00  0.10184460361E+03  0.10184460361E+03  0.00000000000E+00 0. -1.
         21   -1    0    0  501  502 -0.00000000000E+00 -0.00000000000E+00 -0.49236343785E+03  0.49236343785E+03  0.00000000000E+00 0. -1.
         25    1    1    2    0    0 -0.36911039113E+02 -0.12365901686E+02 -0.47996170465E+02  0.13944164626E+03  0.12500000000E+03 0.  0.
         25    1    1    2    0    0 -0.20441245025E+02  0.31339831492E+02 -0.68002206043E+02  0.14713711144E+03  0.12500000000E+03 0.  0.
         25    1    1    2    0    0  0.57352284138E+02 -0.18973929806E+02 -0.27452045774E+03  0.30762928376E+03  0.12500000000E+03 0.  0.
</event>
<event>
 5    0  0.5612316E-005  0.7589494E+03  0.7546771E-02  0.9621414E-01
         21   -1    0    0  502  501  0.00000000000E+00  0.00000000000E+00  0.28680130463E+03  0.28680130463E+03  0.00000000000E+00 0.  1.
         21   -1    0    0  501  502 -0.00000000000E+00 -0.00000000000E+00 -0.20083735146E+04  0.20083735146E+04  0.00000000000E+00 0.  1.
         25    1    1    2    0    0  0.25559245185E+03 -0.24133611494E+02  0.18810801461E+03  0.34193501986E+03  0.12500000000E+03 0.  0.
         25    1    1    2    0    0 -0.42386466175E+02 -0.55222253954E+02 -0.50980750469E+03  0.52950429808E+03  0.12500000000E+03 0.  0.
         25    1    1    2    0    0 -0.21320598568E+03  0.79355865447E+02 -0.13998727199E+04  0.14237355013E+04  0.12500000000E+03 0.  0.
</event>
<event>
 5    0  0.5612316E-005  0.2138946E+03  0.7546771E-02  0.1138518E+00
         21   -1    0    0  502  501  0.00000000000E+00  0.00000000000E+00  0.25050816459E+03  0.25050816459E+03  0.00000000000E+00 0.  1.
         21   -1    0    0  501  502 -0.00000000000E+00 -0.00000000000E+00 -0.18263244527E+03  0.18263244527E+03  0.00000000000E+00 0.  1.
         25    1    1    2    0    0 -0.60500419077E+02  0.23260539374E+02  0.25547863921E+02  0.14310502001E+03  0.12500000000E+03 0.  0.
         25    1    1    2    0    0 -0.69885838271E+01  0.23531891238E+02 -0.18214077514E+02  0.12868311011E+03  0.12500000000E+03 0.  0.
         25    1    1    2    0    0  0.67489002905E+02 -0.46792430612E+02  0.60541932910E+02  0.16135247973E+03  0.12500000000E+03 0.  0.
</event>
<event>
 5    0  0.5612316E-005  0.3059572E+03  0.7546771E-02  0.1082300E+00
         21   -1    0    0  502  501  0.00000000000E+00  0.00000000000E+00  0.48747718137E+02  0.48747718137E+02  0.00000000000E+00 0.  1.
         21   -1    0    0  501  502 -0.00000000000E+00 -0.00000000000E+00 -0.19202908899E+04  0.19202908899E+04  0.00000000000E+00 0. -1.
         25    1    1    2    0    0  0.31423786488E+01  0.28201403770E+02 -0.77928927874E+03  0.78976070659E+03  0.12500000000E+03 0.  0.
         25    1    1    2    0    0  0.15069008476E+03  0.56921216194E+02 -0.72726653263E+03  0.75530731228E+03  0.12500000000E+03 0.  0.
         25    1    1    2    0    0 -0.15383246340E+03 -0.85122619964E+02 -0.36498736035E+03  0.42397058913E+03  0.12500000000E+03 0.  0.
</event>
<event>
 5    0  0.5612316E-005  0.6148183E+03  0.7546771E-02  0.9875131E-01
         21   -1    0    0  502  501  0.00000000000E+00  0.00000000000E+00  0.63363332329E+03  0.63363332329E+03  0.00000000000E+00 0.  1.
         21   -1    0    0  501  502 -0.00000000000E+00 -0.00000000000E+00 -0.59656199165E+03  0.59656199165E+03  0.00000000000E+00 0.  1.
         25    1    1    2    0    0  0.27617797468E+02  0.53340981769E+03 -0.14887065393E+03  0.56839796617E+03  0.12500000000E+03 0.  0.
         25    1    1    2    0    0  0.45825230101E+02 -0.43508862618E+03  0.17067278596E+03  0.48595911784E+03  0.12500000000E+03 0.  0.
         25    1    1    2    0    0 -0.73443027570E+02 -0.98321191502E+02  0.15269199620E+02  0.17583823092E+03  0.12500000000E+03 0.  0.
</event>
<event>
 5    0  0.5612316E-005  0.3286620E+03  0.7546771E-02  0.1071730E+00
         21   -1    0    0  502  501  0.00000000000E+00  0.00000000000E+00  0.50496831201E+02  0.50496831201E+02  0.00000000000E+00 0. -1.
         21   -1    0    0  501  502 -0.00000000000E+00 -0.00000000000E+00 -0.21391180207E+04  0.21391180207E+04  0.00000000000E+00 0. -1.
         25    1    1    2    0    0 -0.14395993059E+03 -0.12719733093E+03 -0.93363182026E+03  0.96135165179E+03  0.12500000000E+03 0.  0.
         25    1    1    2    0    0 -0.16704040619E+02  0.16397466624E+03 -0.66401427817E+03  0.69549024274E+03  0.12500000000E+03 0.  0.
         25    1    1    2    0    0  0.16066397121E+03 -0.36777335313E+02 -0.49097509104E+03  0.53277295733E+03  0.12500000000E+03 0.  0.
</event>
<event>
 5    0  0.5612316E-005  0.3596317E+03  0.7546771E-02  0.1058730E+00
         21   -1    0    0  502  501  0.00000000000E+00  0.00000000000E+00  0.76027103130E+03  0.76027103130E+03  0.00000000000E+00 0.  1.
         21   -1    0    0  501  502 -0.00000000000E+00 -0.00000000000E+00 -0.17011694232E+03  0.17011694232E+03  0.00000000000E+00 0.  1.
         25    1    1    2    0    0 -0.12840749218E+03  0.17161696339E+02  0.54242480434E+03  0.57151787044E+03  0.12500000000E+03 0.  0.
         25    1    1    2    0    0 -0.43603722741E+02 -0.18851504747E+01  0.59946729797E+02  0.14533908230E+03  0.12500000000E+03 0.  0.
         25    1    1    2    0    0  0.17201121492E+03 -0.15276545864E+02 -0.12217445155E+02  0.21353102088E+03  0.12500000000E+03 0.  0.
</event>
<event>
 5    0  0.5612316E-005  0.3642539E+03  0.7546771E-02  0.1056912E+00
         21   -1    0    0  502  501  0.00000000000E+00  0.00000000000E+00  0.18261595827E+03  0.18261595827E+03  0.00000000000E+00 0. -1.
         21   -1    0    0  501  502 -0.00000000000E+00 -0.00000000000E+00 -0.72655702595E+03  0.72655702595E+03  0.00000000000E+00 0. -1.
         25    1    1    2    0    0  0.44106916631E+02 -0.18407941507E+03 -0.16413072881E+03  0.27999026284E+03  0.12500000000E+03 0.  0.
         25    1    1    2    0    0 -0.13162970208E+03  0.27076421165E+03 -0.25374614984E+03  0.41310016381E+03  0.12500000000E+03 0.  0.
         25    1    1    2    0    0  0.87522785452E+02 -0.86684796580E+02 -0.12606418904E+03  0.21608255758E+03  0.12500000000E+03 0.  0.
</event>
<event>
 5    0  0.5612316E-005  0.5093821E+03  0.7546771E-02  0.1011359E+00
         21   -1    0    0  502  501  0.00000000000E+00  0.00000000000E+00  0.67049949697E+03  0.67049949697E+03  0.00000000000E+00 0.  1.
         21   -1    0    0  501  502 -0.00000000000E+00 -0.00000000000E+00 -0.38698033488E+03  0.38698033488E+03  0.00000000000E+00 0.  1.
         25    1    1    2    0    0 -0.97596235551E+02  0.21748405031E+02 -0.91768961825E+01  0.16033475524E+03  0.12500000000E+03 0.  0.
         25    1    1    2    0    0  0.15345787033E+03 -0.28766460054E+03  0.44165268058E+03  0.56301183880E+03  0.12500000000E+03 0.  0.
         25    1    1    2    0    0 -0.55861634783E+02  0.26591619551E+03 -0.14895662231E+03  0.33413323780E+03  0.12500000000E+03 0.  0.
</event>
<event>
 5    0  0.5741046E-005  0.3264051E+03  0.7546771E-02  0.1072739E+00
         21   -1    0    0  502  501  0.00000000000E+00  0.00000000000E+00  0.55662295335E+03  0.55662295335E+03  0.00000000000E+00 0. -1.
         21   -1    0    0  501  502 -0.00000000000E+00 -0.00000000000E+00 -0.19140476421E+03  0.19140476421E+03  0.00000000000E+00 0. -1.
         25    1    1    2    0    0  0.21090424400E+03 -0.82995115012E+02  0.19686390525E+03  0.32519099995E+03  0.12500000000E+03 0.  0.
         25    1    1    2    0    0 -0.12700784791E+03 -0.47716818821E+02  0.50627259782E+02  0.19130083027E+03  0.12500000000E+03 0.  0.
         25    1    1    2    0    0 -0.83896396091E+02  0.13071193383E+03  0.11772702411E+03  0.23153588735E+03  0.12500000000E+03 0.  0.
</event>
<event>
 5    0  0.5612316E-005  0.4621736E+03  0.7546771E-02  0.1024153E+00
         21   -1    0    0  502  501  0.00000000000E+00  0.00000000000E+00  0.22439824743E+03  0.22439824743E+03  0.00000000000E+00 0. -1.
         21   -1    0    0  501  502 -0.00000000000E+00 -0.00000000000E+00 -0.95189865984E+03  0.95189865984E+03  0.00000000000E+00 0. -1.
         25    1    1    2    0    0 -0.25091502524E+03 -0.72209224938E+02 -0.52033279970E+03  0.59543576018E+03  0.12500000000E+03 0.  0.
         25    1    1    2    0    0  0.23511955140E+03  0.10661946311E+03  0.51190065222E+02  0.29136632637E+03  0.12500000000E+03 0.  0.
         25    1    1    2    0    0  0.15795473840E+02 -0.34410238167E+02 -0.25835767792E+03  0.28949482073E+03  0.12500000000E+03 0.  0.
</event>
<event>
 5    0  0.5612316E-005  0.3201695E+03  0.7546771E-02  0.1075571E+00
         21   -1    0    0  502  501  0.00000000000E+00  0.00000000000E+00  0.25964683149E+03  0.25964683149E+03  0.00000000000E+00 0. -1.
         21   -1    0    0  501  502 -0.00000000000E+00 -0.00000000000E+00 -0.39479968879E+03  0.39479968879E+03  0.00000000000E+00 0. -1.
         25    1    1    2    0    0  0.12736600692E+02  0.47493373012E+02  0.14314099048E+03  0.19629616561E+03  0.12500000000E+03 0.  0.
         25    1    1    2    0    0  0.94292071704E+02 -0.53939466644E+02 -0.23566885588E+03  0.28803692555E+03  0.12500000000E+03 0.  0.
         25    1    1    2    0    0 -0.10702867240E+03  0.64460936322E+01 -0.42624991894E+02  0.17011342913E+03  0.12500000000E+03 0.  0.
</event>
<event>
 5    0  0.5612316E-005  0.2954742E+03  0.7546771E-02  0.1087525E+00
         21   -1    0    0  502  501  0.00000000000E+00  0.00000000000E+00  0.26332277141E+04  0.26332277141E+04  0.00000000000E+00 0. -1.
         21   -1    0    0  501  502 -0.00000000000E+00 -0.00000000000E+00 -0.33155138565E+02  0.33155138565E+02  0.00000000000E+00 0. -1.
         25    1    1    2    0    0 -0.98633665464E+01  0.13849469138E+03  0.61473431291E+03  0.64249617976E+03  0.12500000000E+03 0.  0.
         25    1    1    2    0    0 -0.52799124869E+02 -0.13704499566E+03  0.16401636656E+04  0.16514632689E+04  0.12500000000E+03 0.  0.
         25    1    1    2    0    0  0.62662491415E+02 -0.14496957195E+01  0.34517459698E+03  0.37242340400E+03  0.12500000000E+03 0.  0.
</event>
<event>
 5    0  0.5612316E-005  0.4008624E+03  0.7546771E-02  0.1043481E+00
         21   -1    0    0  502  501  0.00000000000E+00  0.00000000000E+00  0.16510448137E+04  0.16510448137E+04  0.00000000000E+00 0. -1.
         21   -1    0    0  501  502 -0.00000000000E+00 -0.00000000000E+00 -0.97326666858E+02  0.97326666858E+02  0.00000000000E+00 0. -1.
         25    1    1    2    0    0 -0.14246671376E+01 -0.85473950871E+02  0.11189140967E+04  0.11291153978E+04  0.12500000000E+03 0.  0.
         25    1    1    2    0    0  0.62388261010E+02  0.21053553416E+03  0.22682521847E+03  0.33954703060E+03  0.12500000000E+03 0.  0.
         25    1    1    2    0    0 -0.60963593873E+02 -0.12506158329E+03  0.20797883171E+03  0.27970905211E+03  0.12500000000E+03 0.  0.
</event>
<event>
 5    0  0.5612316E-005  0.2238963E+03  0.7546771E-02  0.1131011E+00
         21   -1    0    0  502  501  0.00000000000E+00  0.00000000000E+00  0.74167681419E+03  0.74167681419E+03  0.00000000000E+00 0.  1.
         21   -1    0    0  501  502 -0.00000000000E+00 -0.00000000000E+00 -0.67589461864E+02  0.67589461864E+02  0.00000000000E+00 0.  1.
         25    1    1    2    0    0 -0.41540557225E+02  0.54449432108E+00  0.37696010509E+03  0.39931170181E+03  0.12500000000E+03 0.  0.
         25    1    1    2    0    0  0.58916938731E+02  0.20491022681E+02  0.88983586857E+02  0.16563262484E+03  0.12500000000E+03 0.  0.
         25    1    1    2    0    0 -0.17376381506E+02 -0.21035517002E+02  0.20814366038E+03  0.24432194941E+03  0.12500000000E+03 0.  0.
</event>
<event>
 5    0  0.5612316E-005  0.4355824E+03  0.7546771E-02  0.1032111E+00
         21   -1    0    0  502  501  0.00000000000E+00  0.00000000000E+00  0.23611242655E+03  0.23611242655E+03  0.00000000000E+00 0.  1.
         21   -1    0    0  501  502 -0.00000000000E+00 -0.00000000000E+00 -0.80356640778E+03  0.80356640778E+03  0.00000000000E+00 0.  1.
         25    1    1    2    0    0 -0.10881616841E+03  0.18234374503E+02 -0.57115433169E+02  0.17624024406E+03  0.12500000000E+03 0.  0.
         25    1    1    2    0    0  0.12863601502E+03  0.41564980630E+02 -0.64405568855E+03  0.66985640396E+03  0.12500000000E+03 0.  0.
         25    1    1    2    0    0 -0.19819846614E+02 -0.59799355132E+02  0.13371714049E+03  0.19358218631E+03  0.12500000000E+03 0.  0.
</event>
<event>
 5    0  0.5612316E-005  0.3157816E+03  0.7546771E-02  0.1077607E+00
         21   -1    0    0  502  501  0.00000000000E+00  0.00000000000E+00  0.27036668745E+04  0.27036668745E+04  0.00000000000E+00 0. -1.
         21   -1    0    0  501  502 -0.00000000000E+00 -0.00000000000E+00 -0.36882506097E+02  0.36882506097E+02  0.00000000000E+00 0. -1.
         25    1    1    2    0    0  0.63801316497E+02 -0.22417053065E+03  0.11647360310E+04  0.11943860585E+04  0.12500000000E+03 0.  0.
         25    1    1    2    0    0 -0.77995526774E+02  0.13224808081E+03  0.10363459686E+04  0.10550880645E+04  0.12500000000E+03 0.  0.
         25    1    1    2    0    0  0.14194210276E+02  0.91922449837E+02  0.46570236870E+03  0.49107525757E+03  0.12500000000E+03 0.  0.
</event>
<event>
 5    0  0.5612316E-005  0.2577761E+03  0.7546771E-02  0.1108487E+00
         21   -1    0    0  502  501  0.00000000000E+00  0.00000000000E+00  0.32348962946E+02  0.32348962946E+02  0.00000000000E+00 0. -1.
         21   -1    0    0  501  502 -0.00000000000E+00 -0.00000000000E+00 -0.20541160049E+04  0.20541160049E+04  0.00000000000E+00 0. -1.
         25    1    1    2    0    0 -0.83657507756E+02  0.11427125715E+03 -0.91421128582E+03  0.93352224072E+03  0.12500000000E+03 0.  0.
         25    1    1    2    0    0  0.37204325982E+02 -0.52590643242E+01 -0.29904865780E+03  0.32629268971E+03  0.12500000000E+03 0.  0.
         25    1    1    2    0    0  0.46453181774E+02 -0.10901219282E+03 -0.80850709835E+03  0.82665003741E+03  0.12500000000E+03 0.  0.
</event>
<event>
 5    0  0.5612316E-005  0.5073929E+03  0.7546771E-02  0.1011867E+00
         21   -1    0    0  502  501  0.00000000000E+00  0.00000000000E+00  0.36724464397E+03  0.36724464397E+03  0.00000000000E+00 0.  1.
         21   -1    0    0  501  502 -0.00000000000E+00 -0.00000000000E+00 -0.70102480303E+03  0.70102480303E+03  0.00000000000E+00 0.  1.
         25    1    1    2    0    0  0.10495657728E+03  0.16429724524E+03  0.95005228641E+02  0.25032071703E+03  0.12500000000E+03 0.  0.
         25    1    1    2    0    0 -0.12765169141E+03 -0.10178462973E+03  0.12882423737E+03  0.24264325522E+03  0.12500000000E+03 0.  0.
         25    1    1    2    0    0  0.22695114128E+02 -0.62512615510E+02 -0.55760962508E+03  0.57530547475E+03  0.12500000000E+03 0.  0.
</event>
<event>
 5    0  0.5612316E-005  0.2188096E+03  0.7546771E-02  0.1134774E+00
         21   -1    0    0  502  501  0.00000000000E+00  0.00000000000E+00  0.66296689562E+02  0.66296689562E+02  0.00000000000E+00 0.  1.
         21   -1    0    0  501  502 -0.00000000000E+00 -0.00000000000E+00 -0.72217217192E+03  0.72217217192E+03  0.00000000000E+00 0.  1.
         25    1    1    2    0    0 -0.79280069798E+02  0.79901163977E+01 -0.12313060867E+03  0.19270526256E+03  0.12500000000E+03 0.  0.
         25    1    1    2    0    0  0.49795265262E+02 -0.25767936156E+02 -0.26965428435E+03  0.30245989493E+03  0.12500000000E+03 0.  0.
         25    1    1    2    0    0  0.29484804536E+02  0.17777819759E+02 -0.26309058933E+03  0.29330370398E+03  0.12500000000E+03 0.  0.
</event>
<event>
 5    0  0.5612316E-005  0.3038854E+03  0.7546771E-02  0.1083314E+00
         21   -1    0    0  502  501  0.00000000000E+00  0.00000000000E+00  0.16168630199E+03  0.16168630199E+03  0.00000000000E+00 0. -1.
         21   -1    0    0  501  502 -0.00000000000E+00 -0.00000000000E+00 -0.57114498824E+03  0.57114498824E+03  0.00000000000E+00 0. -1.
         25    1    1    2    0    0  0.13500736366E+03  0.21475969022E+02  0.10755639171E+02  0.18555023379E+03  0.12500000000E+03 0.  0.
         25    1    1    2    0    0 -0.39473048829E+02 -0.95227328312E+02 -0.12463884328E+03  0.20441674808E+03  0.12500000000E+03 0.  0.
         25    1    1    2    0    0 -0.95534314826E+02  0.73751359290E+02 -0.29557548214E+03  0.34286430836E+03  0.12500000000E+03 0.  0.
</event>
<event>
 5    0  0.5981304E-005  0.3878679E+03  0.7546771E-02  0.1048063E+00
         21   -1    0    0  502  501  0.00000000000E+00  0.00000000000E+00  0.48820052959E+03  0.48820052959E+03  0.00000000000E+00 0. -1.
         21   -1    0    0  501  502 -0.00000000000E+00 -0.00000000000E+00 -0.30815516210E+03  0.30815516210E+03  0.00000000000E+00 0. -1.
         25    1    1    2    0    0 -0.30862612759E+02 -0.17063738212E+03  0.22423424431E+03  0.30979931143E+03  0.12500000000E+03 0.  0.
         25    1    1    2    0    0  0.18420169765E+03  0.13497986011E+03  0.49129765395E+02  0.26493123995E+03  0.12500000000E+03 0.  0.
         25    1    1    2    0    0 -0.15333908489E+03  0.35657522004E+02 -0.93318642216E+02  0.22162514031E+03  0.12500000000E+03 0.  0.
</event>
<event>
 5    0  0.5612316E-005  0.2953388E+03  0.7546771E-02  0.1087594E+00
         21   -1    0    0  502  501  0.00000000000E+00  0.00000000000E+00  0.96864130448E+02  0.96864130448E+02  0.00000000000E+00 0. -1.
         21   -1    0    0  501  502 -0.00000000000E+00 -0.00000000000E+00 -0.90048835897E+03  0.90048835897E+03  0.00000000000E+00 0. -1.
         25    1    1    2    0    0 -0.82424543693E+02  0.87725398248E+02 -0.42331684838E+02  0.17862396939E+03  0.12500000000E+03 0.  0.
         25    1    1    2    0    0  0.24643091049E+02 -0.41847261455E+02 -0.52115323461E+03  0.53813025298E+03  0.12500000000E+03 0.  0.
         25    1    1    2    0    0  0.57781452644E+02 -0.45878136793E+02 -0.24013930907E+03  0.28059826704E+03  0.12500000000E+03 0.  0.
</event>
<event>
 5    0  0.5612316E-005  0.2403546E+03  0.7546771E-02  0.1119557E+00
         21   -1    0    0  502  501  0.00000000000E+00  0.00000000000E+00  0.36337323257E+02  0.36337323257E+02  0.00000000000E+00 0.  1.
         21   -1    0    0  501  502 -0.00000000000E+00 -0.00000000000E+00 -0.15898340061E+04  0.15898340061E+04  0.00000000000E+00 0.  1.
         25    1    1    2    0    0  0.67778809618E+01  0.77589172149E+02 -0.97262408606E+03  0.98371166105E+03  0.12500000000E+03 0.  0.
         25    1    1    2    0    0  0.35156837507E+02 -0.43367852086E+02 -0.25912624629E+03  0.29306686155E+03  0.12500000000E+03 0.  0.
         25    1    1    2    0    0 -0.41934718469E+02 -0.34221320063E+02 -0.32174635044E+03  0.34939280671E+03  0.12500000000E+03 0.  0.
</event>
<event>
 5    0  0.5612316E-005  0.4302606E+03  0.7546771E-02  0.1033778E+00
         21   -1    0    0  502  501  0.00000000000E+00  0.00000000000E+00  0.16030899048E+04  0.16030899048E+04  0.00000000000E+00 0.  1.
         21   -1    0    0  501  502 -0.00000000000E+00 -0.00000000000E+00 -0.11547957619E+03  0.11547957619E+03  0.00000000000E+00 0.  1.
         25    1    1    2    0    0  0.43860307197E+02  0.12115552629E+03  0.15215511163E+03  0.23532650954E+03  0.12500000000E+03 0.  0.
         25    1    1    2    0    0  0.10268237558E+03 -0.16591030316E+03  0.13827679444E+03  0.26984323380E+03  0.12500000000E+03 0.  0.
         25    1    1    2    0    0 -0.14654268277E+03  0.44754776870E+02  0.11971784226E+04  0.12133997377E+04  0.12500000000E+03 0.  0.
</event>
<event>
 5    0  0.5612316E-005  0.3100792E+03  0.7546771E-02  0.1080308E+00
         21   -1    0    0  502  501  0.00000000000E+00  0.00000000000E+00  0.15472907912E+03  0.15472907912E+03  0.00000000000E+00 0. -1.
         21   -1    0    0  501  502 -0.00000000000E+00 -0.00000000000E+00 -0.62140282809E+03  0.62140282809E+03  0.00000000000E+00 0. -1.
         25    1    1    2    0    0  0.36104172389E+02  0.65654274715E+02 -0.35682407445E+03  0.38543795241E+03  0.12500000000E+03 0.  0.
         25    1    1    2    0    0  0.14507777939E+02  0.95188550660E+02 -0.95800683647E+01  0.15807629015E+03  0.12500000000E+03 0.  0.
         25    1    1    2    0    0 -0.50611950328E+02 -0.16084282537E+03 -0.10026960615E+03  0.23261766465E+03  0.12500000000E+03 0.  0.
</event>
<event>
 5    0  0.6239700E-005  0.3289792E+03  0.7546771E-02  0.1071589E+00
         21   -1    0    0  502  501  0.00000000000E+00  0.00000000000E+00  0.50576784905E+03  0.50576784905E+03  0.00000000000E+00 0. -1.
         21   -1    0    0  501  502 -0.00000000000E+00 -0.00000000000E+00 -0.21398617747E+03  0.21398617747E+03  0.00000000000E+00 0. -1.
         25    1    1    2    0    0  0.13618706272E+03 -0.19336005309E+02  0.22625926172E+03  0.29281231304E+03  0.12500000000E+03 0.  0.
         25    1    1    2    0    0  0.39246455453E+02  0.12297817002E+03  0.24263192445E+01  0.17970754461E+03  0.12500000000E+03 0.  0.
         25    1    1    2    0    0 -0.17543351817E+03 -0.10364216471E+03  0.63096090613E+02  0.24723416886E+03  0.12500000000E+03 0.  0.
</event>
<event>
 5    0  0.5612316E-005  0.3576938E+03  0.7546771E-02  0.1059501E+00
         21   -1    0    0  502  501  0.00000000000E+00  0.00000000000E+00  0.17027068467E+04  0.17027068467E+04  0.00000000000E+00 0. -1.
         21   -1    0    0  501  502 -0.00000000000E+00 -0.00000000000E+00 -0.75142028217E+02  0.75142028217E+02  0.00000000000E+00 0. -1.
         25    1    1    2    0    0  0.12758188345E+03 -0.52359475013E+02  0.42576098037E+03  0.46466769203E+03  0.12500000000E+03 0.  0.
         25    1    1    2    0    0  0.15712843623E+03  0.76417570805E+02  0.55454786642E+03  0.59470776584E+03  0.12500000000E+03 0.  0.
         25    1    1    2    0    0 -0.28471031968E+03 -0.24058095792E+02  0.64725597165E+03  0.71847341701E+03  0.12500000000E+03 0.  0.
</event>
<event>
 5    0  0.5612316E-005  0.3580353E+03  0.7546771E-02  0.1059365E+00
         21   -1    0    0  502  501  0.00000000000E+00  0.00000000000E+00  0.75600387682E+03  0.75600387682E+03  0.00000000000E+00 0. -1.
         21   -1    0    0  501  502 -0.00000000000E+00 -0.00000000000E+00 -0.16956166294E+03  0.16956166294E+03  0.00000000000E+00 0. -1.
         25    1    1    2    0    0  0.20523601876E+03 -0.94981560524E+02  0.17111327812E+03  0.30991623736E+03  0.12500000000E+03 0.  0.
         25    1    1    2    0    0 -0.23412232377E+03  0.11514123322E+03  0.16350376511E+03  0.33230896358E+03  0.12500000000E+03 0.  0.
         25    1    1    2    0    0  0.28886305012E+02 -0.20159672695E+02  0.25182517066E+03  0.28334033881E+03  0.12500000000E+03 0.  0.
</event>
<event>
 5    0  0.6132741E-005  0.3583199E+03  0.7546771E-02  0.1059251E+00
         21   -1    0    0  502  501  0.00000000000E+00  0.00000000000E+00  0.60120974308E+03  0.60120974308E+03  0.00000000000E+00 0. -1.
         21   -1    0    0  501  502 -0.00000000000E+00 -0.00000000000E+00 -0.21355798948E+03  0.21355798948E+03  0.00000000000E+00 0. -1.
         25    1    1    2    0    0 -0.31501561065E+01  0.12111293212E+03  0.35306556183E+03  0.39364775721E+03  0.12500000000E+03 0.  0.
         25    1    1    2    0    0 -0.14104979881E+03 -0.11967072710E+03  0.52801986683E+02  0.22941050208E+03  0.12500000000E+03 0.  0.
         25    1    1    2    0    0  0.14419995491E+03 -0.14422050140E+01 -0.18215794912E+02  0.19170947326E+03  0.12500000000E+03 0.  0.
</event>
<event>
 5    0  0.5612316E-005  0.2918116E+03  0.7546771E-02  0.1089407E+00
         21   -1    0    0  502  501  0.00000000000E+00  0.00000000000E+00  0.19265866524E+03  0.19265866524E+03  0.00000000000E+00 0. -1.
         21   -1    0    0  501  502 -0.00000000000E+00 -0.00000000000E+00 -0.44199414163E+03  0.44199414163E+03  0.00000000000E+00 0. -1.
         25    1    1    2    0    0  0.59898786171E+02  0.18305372971E+03 -0.10840406126E+03  0.25391528714E+03  0.12500000000E+03 0.  0.
         25    1    1    2    0    0 -0.26264807897E+01 -0.26401527712E+02 -0.11273223570E+03  0.17040392024E+03  0.12500000000E+03 0.  0.
         25    1    1    2    0    0 -0.57272305381E+02 -0.15665220200E+03 -0.28199179432E+02  0.21033359949E+03  0.12500000000E+03 0.  0.
</event>
<event>
 5    0  0.5612316E-005  0.2639446E+03  0.7546771E-02  0.1104796E+00
         21   -1    0    0  502  501  0.00000000000E+00  0.00000000000E+00  0.41510732695E+02  0.41510732695E+02  0.00000000000E+00 0.  1.
         21   -1    0    0  501  502 -0.00000000000E+00 -0.00000000000E+00 -0.16782830732E+04  0.16782830732E+04  0.00000000000E+00 0.  1.
         25    1    1    2    0    0  0.60542265785E+02  0.37755839233E+02 -0.11545218259E+04  0.11634588586E+04  0.12500000000E+03 0.  0.
         25    1    1    2    0    0 -0.29877337700E+02  0.22090907350E+02 -0.28402185873E+03  0.31252852627E+03  0.12500000000E+03 0.  0.
         25    1    1    2    0    0 -0.30664928086E+02 -0.59846746583E+02 -0.19822865590E+03  0.24380642098E+03  0.12500000000E+03 0.  0.
</event>
<event>
 5    0  0.5612316E-005  0.2707797E+03  0.7546771E-02  0.1100834E+00
         21   -1    0    0  502  501  0.00000000000E+00  0.00000000000E+00  0.66801052271E+03  0.66801052271E+03  0.00000000000E+00 0.  1.
         21   -1    0    0  501  502 -0.00000000000E+00 -0.00000000000E+00 -0.10976124348E+03  0.10976124348E+03  0.00000000000E+00 0.  1.
         25    1    1    2    0    0 -0.77121776782E+02  0.45627568498E+02  0.27216277265E+03  0.31261352862E+03  0.12500000000E+03 0.  0.
         25    1    1    2    0    0  0.15006825982E+03  0.28039074644E+02  0.20163660140E+03  0.28211520933E+03  0.12500000000E+03 0.  0.
         25    1    1    2    0    0 -0.72946483039E+02 -0.73666643142E+02  0.84449905187E+02  0.18304302824E+03  0.12500000000E+03 0.  0.
</event>
<event>
 5    0  0.5612316E-005  0.3361326E+03  0.7546771E-02  0.1068455E+00
         21   -1    0    0  502  501  0.00000000000E+00  0.00000000000E+00  0.42983259622E+03  0.42983259622E+03  0.00000000000E+00 0.  1.
         21   -1    0    0  501  502 -0.00000000000E+00 -0.00000000000E+00 -0.26285844708E+03  0.26285844708E+03  0.00000000000E+00 0.  1.
         25    1    1    2    0    0  0.15124277766E+02 -0.18575901081E+03  0.88645302614E+02  0.24128436243E+03  0.12500000000E+03 0.  0.
         25    1    1    2    0    0 -0.13633626084E+03  0.15361147178E+03  0.12116124555E+03  0.26923801311E+03  0.12500000000E+03 0.  0.
         25    1    1    2    0    0  0.12121198307E+03  0.32147539032E+02 -0.42832399024E+02  0.18216866776E+03  0.12500000000E+03 0.  0.
</event>
<event>
 5    0  0.6403698E-005  0.5043058E+03  0.7546771E-02  0.1012661E+00
         21   -1    0    0  502  501  0.00000000000E+00  0.00000000000E+00  0.27459912334E+03  0.27459912334E+03  0.00000000000E+00 0.  1.
         21   -1    0    0  501  502 -0.00000000000E+00 -0.00000000000E+00 -0.92616571405E+03  0.92616571405E+03  0.00000000000E+00 0.  1.
         25    1    1    2    0    0 -0.22820977545E+03 -0.24098986310E+03 -0.23429547107E+03  0.42505903530E+03  0.12500000000E+03 0.  0.
         25    1    1    2    0    0  0.17945057314E+03 -0.21688474299E+02 -0.42737652174E+03  0.48057110759E+03  0.12500000000E+03 0.  0.
         25    1    1    2    0    0  0.48759202310E+02  0.26267833740E+03  0.10105402094E+02  0.29513469451E+03  0.12500000000E+03 0.  0.
</event>
<event>
 5    0  0.5612316E-005  0.7089232E+03  0.7546771E-02  0.9702093E-01
         21   -1    0    0  502  501  0.00000000000E+00  0.00000000000E+00  0.39377130975E+03  0.39377130975E+03  0.00000000000E+00 0. -1.
         21   -1    0    0  501  502 -0.00000000000E+00 -0.00000000000E+00 -0.12763044661E+04  0.12763044661E+04  0.00000000000E+00 0. -1.
         25    1    1    2    0    0  0.36410988447E+02 -0.25838790973E+02 -0.10306243798E+03  0.16804841362E+03  0.12500000000E+03 0.  0.
         25    1    1    2    0    0  0.52609057212E+03  0.32628784302E+03 -0.43142249668E+03  0.76484339392E+03  0.12500000000E+03 0.  0.
         25    1    1    2    0    0 -0.56250156057E+03 -0.30044905205E+03 -0.34804822171E+03  0.73718396832E+03  0.12500000000E+03 0.  0.
</event>
<event>
 5    0  0.6152115E-005  0.5301452E+03  0.7546771E-02  0.1006197E+00
         21   -1    0    0  502  501  0.00000000000E+00  0.00000000000E+00  0.36089986776E+03  0.36089986776E+03  0.00000000000E+00 0. -1.
         21   -1    0    0  501  502 -0.00000000000E+00 -0.00000000000E+00 -0.77875862627E+03  0.77875862627E+03  0.00000000000E+00 0. -1.
         25    1    1    2    0    0 -0.77662305860E+02  0.30976911922E+03 -0.48473201768E+02  0.34635674133E+03  0.12500000000E+03 0.  0.
         25    1    1    2    0    0 -0.21555434825E+03 -0.22233337637E+03 -0.31358485334E+03  0.45810071769E+03  0.12500000000E+03 0.  0.
         25    1    1    2    0    0  0.29321665411E+03 -0.87435742844E+02 -0.55800703399E+02  0.33520103501E+03  0.12500000000E+03 0.  0.
</event>
<event>
 5    0  0.5612316E-005  0.4289031E+03  0.7546771E-02  0.1034207E+00
         21   -1    0    0  502  501  0.00000000000E+00  0.00000000000E+00  0.42184317374E+03  0.42184317374E+03  0.00000000000E+00 0.  1.
         21   -1    0    0  501  502 -0.00000000000E+00 -0.00000000000E+00 -0.43608122463E+03  0.43608122463E+03  0.00000000000E+00 0.  1.
         25    1    1    2    0    0 -0.20699157467E+03 -0.24684914823E+03  0.43057062673E+02  0.34822252169E+03  0.12500000000E+03 0.  0.
         25    1    1    2    0    0  0.26601666323E+03  0.18559832697E+03  0.11066540277E+01  0.34761735971E+03  0.12500000000E+03 0.  0.
         25    1    1    2    0    0 -0.59025088557E+02  0.61250821252E+02 -0.58401767592E+02  0.16208451697E+03  0.12500000000E+03 0.  0.
</event>
<event>
 5    0  0.5612316E-005  0.3122601E+03  0.7546771E-02  0.1079268E+00
         21   -1    0    0  502  501  0.00000000000E+00  0.00000000000E+00  0.31123239707E+03  0.31123239707E+03  0.00000000000E+00 0.  1.
         21   -1    0    0  501  502 -0.00000000000E+00 -0.00000000000E+00 -0.31329129287E+03  0.31329129287E+03  0.00000000000E+00 0.  1.
         25    1    1    2    0    0  0.19727354089E+01 -0.13401594739E+03  0.14791873865E+03  0.23551882957E+03  0.12500000000E+03 0.  0.
         25    1    1    2    0    0  0.35560534239E+02  0.43787034272E+02  0.38686974720E+02  0.14249048382E+03  0.12500000000E+03 0.  0.
         25    1    1    2    0    0 -0.37533269648E+02  0.90228913115E+02 -0.18866460917E+03  0.24651437655E+03  0.12500000000E+03 0.  0.
</event>
<event>
 5    0  0.5612316E-005  0.3629502E+03  0.7546771E-02  0.1057422E+00
         21   -1    0    0  502  501  0.00000000000E+00  0.00000000000E+00  0.10382729796E+04  0.10382729796E+04  0.00000000000E+00 0.  1.
         21   -1    0    0  501  502 -0.00000000000E+00 -0.00000000000E+00 -0.12687692597E+03  0.12687692597E+03  0.00000000000E+00 0.  1.
         25    1    1    2    0    0  0.12833206447E+00 -0.15587050669E+03  0.24400057230E+03  0.31536789724E+03  0.12500000000E+03 0.  0.
         25    1    1    2    0    0 -0.20730743282E+03  0.86372440656E+02  0.22899060727E+03  0.34423577447E+03  0.12500000000E+03 0.  0.
         25    1    1    2    0    0  0.20717910076E+03  0.69498066036E+02  0.43840487401E+03  0.50554623382E+03  0.12500000000E+03 0.  0.
</event>
<event>
 5    0  0.5612316E-005  0.2204318E+03  0.7546771E-02  0.1133562E+00
         21   -1    0    0  502  501  0.00000000000E+00  0.00000000000E+00  0.15905917346E+03  0.15905917346E+03  0.00000000000E+00 0.  1.
         21   -1    0    0  501  502 -0.00000000000E+00 -0.00000000000E+00 -0.30548495137E+03  0.30548495137E+03  0.00000000000E+00 0.  1.
         25    1    1    2    0    0 -0.31431992384E+02  0.53151306010E+01 -0.47958644924E+02  0.13762722253E+03  0.12500000000E+03 0.  0.
         25    1    1    2    0    0  0.91244596625E+02 -0.40063455684E+02 -0.12882843871E+02  0.16037962639E+03  0.12500000000E+03 0.  0.
         25    1    1    2    0    0 -0.59812604241E+02  0.34748325083E+02 -0.85584289122E+02  0.16653727591E+03  0.12500000000E+03 0.  0.
</event>
<event>
 5    0  0.5612316E-005  0.3929005E+03  0.7546771E-02  0.1046266E+00
         21   -1    0    0  502  501  0.00000000000E+00  0.00000000000E+00  0.42520988702E+03  0.42520988702E+03  0.00000000000E+00 0. -1.
         21   -1    0    0  501  502 -0.00000000000E+00 -0.00000000000E+00 -0.36304613634E+03  0.36304613634E+03  0.00000000000E+00 0. -1.
         25    1    1    2    0    0 -0.83898716335E+02  0.67379410131E+02  0.19565182156E+02  0.16609267252E+03  0.12500000000E+03 0.  0.
         25    1    1    2    0    0 -0.91103011801E+01 -0.27569992601E+03 -0.10805269991E+03  0.32154911405E+03  0.12500000000E+03 0.  0.
         25    1    1    2    0    0  0.93009017516E+02  0.20832051588E+03  0.15065126843E+03  0.30061423678E+03  0.12500000000E+03 0.  0.
</event>
<event>
 5    0  0.5612316E-005  0.3346619E+03  0.7546771E-02  0.1069093E+00
         21   -1    0    0  502  501  0.00000000000E+00  0.00000000000E+00  0.60986017410E+02  0.60986017410E+02  0.00000000000E+00 0.  1.
         21   -1    0    0  501  502 -0.00000000000E+00 -0.00000000000E+00 -0.18364638921E+04  0.18364638921E+04  0.00000000000E+00 0.  1.
         25    1    1    2    0    0  0.11165493858E+03  0.13483949495E+03 -0.45746808893E+03  0.50552009564E+03  0.12500000000E+03 0.  0.
         25    1    1    2    0    0 -0.81928763783E+02  0.74904615692E+02 -0.28843284772E+03  0.33337896069E+03  0.12500000000E+03 0.  0.
         25    1    1    2    0    0 -0.29726174799E+02 -0.20974411064E+03 -0.10295769380E+04  0.10585508532E+04  0.12500000000E+03 0.  0.
</event>
<event>
 5    0  0.5612316E-005  0.3879262E+03  0.7546771E-02  0.1048042E+00
         21   -1    0    0  502  501  0.00000000000E+00  0.00000000000E+00  0.58157590094E+03  0.58157590094E+03  0.00000000000E+00 0.  1.
         21   -1    0    0  501  502 -0.00000000000E+00 -0.00000000000E+00 -0.25875684395E+03  0.25875684395E+03  0.00000000000E+00 0.  1.
         25    1    1    2    0    0 -0.10186790783E+03 -0.19781014470E+03  0.15219910621E+03  0.29714557362E+03  0.12500000000E+03 0.  0.
         25    1    1    2    0    0  0.18688863047E+03  0.16323060731E+03 -0.40975406722E+02  0.28084795765E+03  0.12500000000E+03 0.  0.
         25    1    1    2    0    0 -0.85020722642E+02  0.34579537395E+02  0.21159535751E+03  0.26233921362E+03  0.12500000000E+03 0.  0.
</event>
<event>
 5    0  0.5612316E-005  0.2501028E+03  0.7546771E-02  0.1113240E+00
         21   -1    0    0  502  501  0.00000000000E+00  0.00000000000E+00  0.82703450670E+03  0.82703450670E+03  0.00000000000E+00 0.  1.
         21   -1    0    0  501  502 -0.00000000000E+00 -0.00000000000E+00 -0.75633373850E+02  0.75633373850E+02  0.00000000000E+00 0.  1.
         25    1    1    2    0    0  0.78162404440E+02 -0.10143510202E+03  0.39169163656E+03  0.43063415975E+03  0.12500000000E+03 0.  0.
         25    1    1    2    0    0  0.75604547405E+01  0.12521943947E+02  0.18881019107E+03  0.22691021971E+03  0.12500000000E+03 0.  0.
         25    1    1    2    0    0 -0.85722859181E+02  0.88913158075E+02  0.17089930522E+03  0.24512350110E+03  0.12500000000E+03 0.  0.
</event>
<event>
 5    0  0.6925379E-005  0.3126728E+03  0.7546771E-02  0.1079072E+00
         21   -1    0    0  502  501  0.00000000000E+00  0.00000000000E+00  0.24901834042E+03  0.24901834042E+03  0.00000000000E+00 0.  1.
         21   -1    0    0  501  502 -0.00000000000E+00 -0.00000000000E+00 -0.39259866676E+03  0.39259866676E+03  0.00000000000E+00 0.  1.
         25    1    1    2    0    0 -0.14176453129E+03 -0.64877693419E+02 -0.28159046500E+02  0.20180245126E+03  0.12500000000E+03 0.  0.
         25    1    1    2    0    0 -0.29657689856E+02 -0.53680250830E+02  0.47624165581E+02  0.14715369191E+03  0.12500000000E+03 0.  0.
         25    1    1    2    0    0  0.17142222114E+03  0.11855794425E+03 -0.16304544542E+03  0.29266086400E+03  0.12500000000E+03 0.  0.
</event>
<event>
 5    0  0.5641764E-005  0.3733759E+03  0.7546771E-02  0.1053410E+00
         21   -1    0    0  502  501  0.00000000000E+00  0.00000000000E+00  0.29210757387E+03  0.29210757387E+03  0.00000000000E+00 0. -1.
         21   -1    0    0  501  502 -0.00000000000E+00 -0.00000000000E+00 -0.47725426537E+03  0.47725426537E+03  0.00000000000E+00 0. -1.
         25    1    1    2    0    0  0.12643038531E+03 -0.34651493734E+02 -0.22982740756E+03  0.29262775947E+03  0.12500000000E+03 0.  0.
         25    1    1    2    0    0 -0.20342966717E+03  0.14329682488E+03 -0.28622752955E+02  0.27993190510E+03  0.12500000000E+03 0.  0.
         25    1    1    2    0    0  0.76999281860E+02 -0.10864533114E+03  0.73303469008E+02  0.19680217467E+03  0.12500000000E+03 0.  0.
</event>
<event>
 5    0  0.5612316E-005  0.3933135E+03  0.7546771E-02  0.1046120E+00
         21   -1    0    0  502  501  0.00000000000E+00  0.00000000000E+00  0.12190950602E+04  0.12190950602E+04  0.00000000000E+00 0. -1.
         21   -1    0    0  501  502 -0.00000000000E+00 -0.00000000000E+00 -0.12689370459E+03  0.12689370459E+03  0.00000000000E+00 0. -1.
         25    1    1    2    0    0  0.23369694363E+03  0.19999292096E+02  0.22860215798E+03  0.35056836677E+03  0.12500000000E+03 0.  0.
         25    1    1    2    0    0  0.56616171674E+02  0.79300136736E+02  0.35028236152E+03  0.38446929054E+03  0.12500000000E+03 0.  0.
         25    1    1    2    0    0 -0.29031311531E+03 -0.99299428832E+02  0.51331683612E+03  0.61095110748E+03  0.12500000000E+03 0.  0.
</event>
<event>
 5    0  0.5612316E-005  0.2555147E+03  0.7546771E-02  0.1109868E+00
         21   -1    0    0  502  501  0.00000000000E+00  0.00000000000E+00  0.58657570492E+02  0.58657570492E+02  0.00000000000E+00 0. -1.
         21   -1    0    0  501  502 -0.00000000000E+00 -0.00000000000E+00 -0.11130319980E+04  0.11130319980E+04  0.00000000000E+00 0. -1.
         25    1    1    2    0    0 -0.12442295583E+03 -0.88712501868E+02 -0.45514413731E+03  0.49611708865E+03  0.12500000000E+03 0.  0.
         25    1    1    2    0    0  0.26081576967E+02  0.55895690021E+01 -0.19321133841E+03  0.23166163521E+03  0.12500000000E+03 0.  0.
         25    1    1    2    0    0  0.98341378863E+02  0.83122932866E+02 -0.40601895177E+03  0.44391084460E+03  0.12500000000E+03 0.  0.
</event>
<event>
 5    0  0.5612316E-005  0.2634104E+03  0.7546771E-02  0.1105111E+00
         21   -1    0    0  502  501  0.00000000000E+00  0.00000000000E+00  0.17926887959E+03  0.17926887959E+03  0.00000000000E+00 0.  1.
         21   -1    0    0  501  502 -0.00000000000E+00 -0.00000000000E+00 -0.38704465865E+03  0.38704465865E+03  0.00000000000E+00 0.  1.
         25    1    1    2    0    0  0.37641509177E+02 -0.11875867870E+03  0.10552785646E+02  0.17679612062E+03  0.12500000000E+03 0.  0.
         25    1    1    2    0    0 -0.25285231603E+02  0.14546404930E+03 -0.11849404848E+03  0.22685892555E+03  0.12500000000E+03 0.  0.
         25    1    1    2    0    0 -0.12356277574E+02 -0.26705370601E+02 -0.99834516218E+02  0.16265849207E+03  0.12500000000E+03 0.  0.
</event>
<event>
 5    0  0.5612316E-005  0.3277217E+03  0.7546771E-02  0.1072149E+00
         21   -1    0    0  502  501  0.00000000000E+00  0.00000000000E+00  0.25505701358E+03  0.25505701358E+03  0.00000000000E+00 0.  1.
         21   -1    0    0  501  502 -0.00000000000E+00 -0.00000000000E+00 -0.42108824659E+03  0.42108824659E+03  0.00000000000E+00 0.  1.
         25    1    1    2    0    0  0.13474287230E+03 -0.63307739666E+01  0.19738412029E+02  0.18496033425E+03  0.12500000000E+03 0.  0.
         25    1    1    2    0    0 -0.86271664913E+02  0.56724874336E+02  0.86338371403E+02  0.18368403826E+03  0.12500000000E+03 0.  0.
         25    1    1    2    0    0 -0.48471207390E+02 -0.50394100369E+02 -0.27210801645E+03  0.30750088766E+03  0.12500000000E+03 0.  0.
</event>
<event>
 5    0  0.5612316E-005  0.3997206E+03  0.7546771E-02  0.1043876E+00
         21   -1    0    0  502  501  0.00000000000E+00  0.00000000000E+00  0.10247727455E+04  0.10247727455E+04  0.00000000000E+00 0.  1.
         21   -1    0    0  501  502 -0.00000000000E+00 -0.00000000000E+00 -0.15591410149E+03  0.15591410149E+03  0.00000000000E+00 0.  1.
         25    1    1    2    0    0  0.22220510930E+03  0.17742984060E+03  0.13202269879E+03  0.33750770648E+03  0.12500000000E+03 0.  0.
         25    1    1    2    0    0 -0.90755516713E+02 -0.22401866857E+02  0.40841792404E+03  0.43722832494E+03  0.12500000000E+03 0.  0.
         25    1    1    2    0    0 -0.13144959259E+03 -0.15502797374E+03  0.32841802121E+03  0.40595081561E+03  0.12500000000E+03 0.  0.
</event>
<event>
 5    0  0.5612316E-005  0.2431669E+03  0.7546771E-02  0.1117701E+00
         21   -1    0    0  502  501  0.00000000000E+00  0.00000000000E+00  0.22895256336E+02  0.22895256336E+02  0.00000000000E+00 0. -1.
         21   -1    0    0  501  502 -0.00000000000E+00 -0.00000000000E+00 -0.25826370228E+04  0.25826370228E+04  0.00000000000E+00 0. -1.
         25    1    1    2    0    0  0.63634421436E+01 -0.11276193153E+02 -0.90090597673E+03  0.90962861918E+03  0.12500000000E+03 0.  0.
         25    1    1    2    0    0 -0.39806253253E+01 -0.98570824390E+02 -0.11389999992E+04  0.11500774108E+04  0.12500000000E+03 0.  0.
         25    1    1    2    0    0 -0.23828168183E+01  0.10984701754E+03 -0.51983579059E+03  0.54582624914E+03  0.12500000000E+03 0.  0.
</event>
<event>
 5    0  0.5612316E-005  0.2522408E+03  0.7546771E-02  0.1111897E+00
         21   -1    0    0  502  501  0.00000000000E+00  0.00000000000E+00  0.41778034218E+03  0.41778034218E+03  0.00000000000E+00 0. -1.
         21   -1    0    0  501  502 -0.00000000000E+00 -0.00000000000E+00 -0.15229401119E+03  0.15229401119E+03  0.00000000000E+00 0.  1.
         25    1    1    2    0    0 -0.25838010562E+02  0.60972277674E+02 -0.54906566858E+01  0.14156400936E+03  0.12500000000E+03 0.  0.
         25    1    1    2    0    0  0.11138818141E+03 -0.55427114141E+02  0.11235753846E+03  0.20911410375E+03  0.12500000000E+03 0.  0.
         25    1    1    2    0    0 -0.85550170851E+02 -0.55451635336E+01  0.15861944921E+03  0.21939624026E+03  0.12500000000E+03 0.  0.
</event>
<event>
 5    0  0.5612316E-005  0.3502619E+03  0.7546771E-02  0.1062508E+00
         21   -1    0    0  502  501  0.00000000000E+00  0.00000000000E+00  0.14782470256E+04  0.14782470256E+04  0.00000000000E+00 0. -1.
         21   -1    0    0  501  502 -0.00000000000E+00 -0.00000000000E+00 -0.82992485824E+02  0.82992485824E+02  0.00000000000E+00 0. -1.
         25    1    1    2    0    0 -0.20801039831E+03  0.26950979862E+02  0.48794955855E+03  0.54563215889E+03  0.12500000000E+03 0.  0.
         25    1    1    2    0    0  0.33863363987E+02  0.55097201406E+02  0.67319156264E+03  0.68774581717E+03  0.12500000000E+03 0.  0.
         25    1    1    2    0    0  0.17414703432E+03 -0.82048181268E+02  0.23411341859E+03  0.32786153537E+03  0.12500000000E+03 0.  0.
</event>
<event>
 5    0  0.5612316E-005  0.3287495E+03  0.7546771E-02  0.1071692E+00
         21   -1    0    0  502  501  0.00000000000E+00  0.00000000000E+00  0.92981889547E+02  0.92981889547E+02  0.00000000000E+00 0.  1.
         21   -1    0    0  501  502 -0.00000000000E+00 -0.00000000000E+00 -0.11623366073E+04  0.11623366073E+04  0.00000000000E+00 0. -1.
         25    1    1    2    0    0  0.41716187897E+02  0.26804943751E+02 -0.64922485071E+02  0.14932740676E+03  0.12500000000E+03 0.  0.
         25    1    1    2    0    0  0.16204517454E+03 -0.57031111109E+02 -0.36037187023E+03  0.41833487911E+03  0.12500000000E+03 0.  0.
         25    1    1    2    0    0 -0.20376136243E+03  0.30226167358E+02 -0.64406036242E+03  0.68765621095E+03  0.12500000000E+03 0.  0.
</event>
<event>
 5    0  0.5612316E-005  0.2617026E+03  0.7546771E-02  0.1106125E+00
         21   -1    0    0  502  501  0.00000000000E+00  0.00000000000E+00  0.17435616692E+04  0.17435616692E+04  0.00000000000E+00 0. -1.
         21   -1    0    0  501  502 -0.00000000000E+00 -0.00000000000E+00 -0.39280662463E+02  0.39280662463E+02  0.00000000000E+00 0. -1.
         25    1    1    2    0    0  0.21629015560E+02 -0.25782066201E+02  0.27601098174E+03  0.30485995357E+03  0.12500000000E+03 0.  0.
         25    1    1    2    0    0 -0.69769613673E+02  0.81941569738E+02  0.11708595138E+04  0.11824209152E+04  0.12500000000E+03 0.  0.
         25    1    1    2    0    0  0.48140598113E+02 -0.56159503537E+02  0.25741051124E+03  0.29556146285E+03  0.12500000000E+03 0.  0.
</event>
<event>
 5    0  0.5612316E-005  0.2234366E+03  0.7546771E-02  0.1131347E+00
         21   -1    0    0  502  501  0.00000000000E+00  0.00000000000E+00  0.87539780229E+03  0.87539780229E+03  0.00000000000E+00 0. -1.
         21   -1    0    0  501  502 -0.00000000000E+00 -0.00000000000E+00 -0.57029951833E+02  0.57029951833E+02  0.00000000000E+00 0. -1.
         25    1    1    2    0    0  0.52974495539E+02 -0.64585751970E+02  0.32629884353E+03  0.35926807794E+03  0.12500000000E+03 0.  0.
         25    1    1    2    0    0 -0.32267122912E+02  0.74332238273E+02  0.36134798466E+03  0.39085011818E+03  0.12500000000E+03 0.  0.
         25    1    1    2    0    0 -0.20707372627E+02 -0.97464863030E+01  0.13072102227E+03  0.18230955800E+03  0.12500000000E+03 0.  0.
</event>
<event>
 5    0  0.5612316E-005  0.2586066E+03  0.7546771E-02  0.1107983E+00
         21   -1    0    0  502  501  0.00000000000E+00  0.00000000000E+00  0.70181270150E+02  0.70181270150E+02  0.00000000000E+00 0.  1.
         21   -1    0    0  501  502 -0.00000000000E+00 -0.00000000000E+00 -0.95292328731E+03  0.95292328731E+03  0.00000000000E+00 0.  1.
         25    1    1    2    0    0  0.16086847156E+02  0.10060283945E+02 -0.14483315671E+03  0.19225410073E+03  0.12500000000E+03 0.  0.
         25    1    1    2    0    0  0.12842029727E+03  0.41464800229E+02 -0.35436331827E+03  0.39926114730E+03  0.12500000000E+03 0.  0.
         25    1    1    2    0    0 -0.14450714442E+03 -0.51525084174E+02 -0.38354554218E+03  0.43158930943E+03  0.12500000000E+03 0.  0.
</event>
<event>
 5    0  0.5612316E-005  0.2914629E+03  0.7546771E-02  0.1089588E+00
         21   -1    0    0  502  501  0.00000000000E+00  0.00000000000E+00  0.21436942623E+03  0.21436942623E+03  0.00000000000E+00 0.  1.
         21   -1    0    0  501  502 -0.00000000000E+00 -0.00000000000E+00 -0.39628145697E+03  0.39628145697E+03  0.00000000000E+00 0.  1.
         25    1    1    2    0    0  0.44825844696E+02 -0.14861139917E+03 -0.12373004717E+03  0.23458224334E+03  0.12500000000E+03 0.  0.
         25    1    1    2    0    0  0.81536819253E+02  0.25106454193E+02  0.22322410155E+01  0.15135577239E+03  0.12500000000E+03 0.  0.
         25    1    1    2    0    0 -0.12636266395E+03  0.12350494498E+03 -0.60414224591E+02  0.22471286747E+03  0.12500000000E+03 0.  0.
</event>
<event>
 5    0  0.5612316E-005  0.3038572E+03  0.7546771E-02  0.1083328E+00
         21   -1    0    0  502  501  0.00000000000E+00  0.00000000000E+00  0.97650593731E+02  0.97650593731E+02  0.00000000000E+00 0.  1.
         21   -1    0    0  501  502 -0.00000000000E+00 -0.00000000000E+00 -0.94550595075E+03  0.94550595075E+03  0.00000000000E+00 0.  1.
         25    1    1    2    0    0 -0.56984329079E+02 -0.64272644361E+01 -0.14516615111E+02  0.13829047546E+03  0.12500000000E+03 0.  0.
         25    1    1    2    0    0  0.12204281403E+03 -0.65093021569E+02 -0.35309207354E+03  0.39928756844E+03  0.12500000000E+03 0.  0.
         25    1    1    2    0    0 -0.65058484947E+02  0.71520286005E+02 -0.48024666837E+03  0.50557850059E+03  0.12500000000E+03 0.  0.
</event>
<event>
 5    0  0.5612316E-005  0.3004409E+03  0.7546771E-02  0.1085020E+00
         21   -1    0    0  502  501  0.00000000000E+00  0.00000000000E+00  0.61119324350E+03  0.61119324350E+03  0.00000000000E+00 0. -1.
         21   -1    0    0  501  502 -0.00000000000E+00 -0.00000000000E+00 -0.14768606720E+03  0.14768606720E+03  0.00000000000E+00 0. -1.
         25    1    1    2    0    0 -0.58439604494E+02 -0.13811200755E+03  0.31067225272E+03  0.36692282924E+03  0.12500000000E+03 0.  0.
         25    1    1    2    0    0  0.13512523567E+03  0.54968334407E+02  0.74183161043E+02  0.20593321365E+03  0.12500000000E+03 0.  0.
         25    1    1    2    0    0 -0.76685631180E+02  0.83143673145E+02  0.78651762536E+02  0.18602326780E+03  0.12500000000E+03 0.  0.
</event>
<event>
 5    0  0.5612316E-005  0.5079542E+03  0.7546771E-02  0.1011723E+00
         21   -1    0    0  502  501  0.00000000000E+00  0.00000000000E+00  0.15141427746E+04  0.15141427746E+04  0.00000000000E+00 0.  1.
         21   -1    0    0  501  502 -0.00000000000E+00 -0.00000000000E+00 -0.17040500624E+03  0.17040500624E+03  0.00000000000E+00 0.  1.
         25    1    1    2    0    0  0.58555314897E+02 -0.39596344823E+03  0.47404481580E+03  0.63289751510E+03  0.12500000000E+03 0.  0.
         25    1    1    2    0    0 -0.60772213861E+02  0.60715215056E+01  0.42489634625E+03  0.44709286553E+03  0.12500000000E+03 0.  0.
         25    1    1    2    0    0  0.22168989645E+01  0.38989192672E+03  0.44479660634E+03  0.60455740024E+03  0.12500000000E+03 0.  0.
</event>
<event>
 5    0  0.5612316E-005  0.2718000E+03  0.7546771E-02  0.1100254E+00
         21   -1    0    0  502  501  0.00000000000E+00  0.00000000000E+00  0.32132320178E+03  0.32132320178E+03  0.00000000000E+00 0. -1.
         21   -1    0    0  501  502 -0.00000000000E+00 -0.00000000000E+00 -0.22990947331E+03  0.22990947331E+03  0.00000000000E+00 0. -1.
         25    1    1    2    0    0 -0.76479082430E+02 -0.49272343090E+02  0.89290676349E+02  0.17853469894E+03  0.12500000000E+03 0.  0.
         25    1    1    2    0    0 -0.28049423708E+02  0.13563331549E+03  0.18877200998E+02  0.18752203913E+03  0.12500000000E+03 0.  0.
         25    1    1    2    0    0  0.10452850614E+03 -0.86360972401E+02 -0.16754148873E+02  0.18517593703E+03  0.12500000000E+03 0.  0.
</event>
<event>
 5    0  0.5612316E-005  0.4246793E+03  0.7546771E-02  0.1035554E+00
         21   -1    0    0  502  501  0.00000000000E+00  0.00000000000E+00  0.19879524225E+03  0.19879524225E+03  0.00000000000E+00 0.  1.
         21   -1    0    0  501  502 -0.00000000000E+00 -0.00000000000E+00 -0.90722746005E+03  0.90722746005E+03  0.00000000000E+00 0.  1.
         25    1    1    2    0    0  0.21902467020E+03 -0.68005498251E+02 -0.17250548014E+02  0.26176160023E+03  0.12500000000E+03 0.  0.
         25    1    1    2    0    0 -0.20153849590E+03  0.72176104951E+02 -0.67233091817E+03  0.71657589897E+03  0.12500000000E+03 0.  0.
         25    1    1    2    0    0 -0.17486174302E+02 -0.41706067002E+01 -0.18850751615E+02  0.12768520309E+03  0.12500000000E+03 0.  0.
</event>
<event>
 5    0  0.5612316E-005  0.2389075E+03  0.7546771E-02  0.1120523E+00
         21   -1    0    0  502  501  0.00000000000E+00  0.00000000000E+00  0.22199451563E+03  0.22199451563E+03  0.00000000000E+00 0. -1.
         21   -1    0    0  501  502 -0.00000000000E+00 -0.00000000000E+00 -0.25710896686E+03  0.25710896686E+03  0.00000000000E+00 0. -1.
         25    1    1    2    0    0 -0.11778076485E+02 -0.96893501632E+02 -0.27303027377E+02  0.16092709234E+03  0.12500000000E+03 0.  0.
         25    1    1    2    0    0  0.15818947170E+02  0.12482965196E+03 -0.48233906494E+02  0.18380476282E+03  0.12500000000E+03 0.  0.
         25    1    1    2    0    0 -0.40408706851E+01 -0.27936150328E+02  0.40422482632E+02  0.13437162734E+03  0.12500000000E+03 0.  0.
</event>
<event>
 5    0  0.5612316E-005  0.3380737E+03  0.7546771E-02  0.1067619E+00
         21   -1    0    0  502  501  0.00000000000E+00  0.00000000000E+00  0.35545539764E+03  0.35545539764E+03  0.00000000000E+00 0.  1.
         21   -1    0    0  501  502 -0.00000000000E+00 -0.00000000000E+00 -0.32154201508E+03  0.32154201508E+03  0.00000000000E+00 0.  1.
         25    1    1    2    0    0  0.51732493173E+02  0.87616540883E+02 -0.48337640619E+02  0.16826894124E+03  0.12500000000E+03 0.  0.
         25    1    1    2    0    0  0.16393224325E+03 -0.32013339531E+02 -0.59088687384E+02  0.21682967339E+03  0.12500000000E+03 0.  0.
         25    1    1    2    0    0 -0.21566473643E+03 -0.55603201352E+02  0.14133971057E+03  0.29189879808E+03  0.12500000000E+03 0.  0.
</event>
<event>
 5    0  0.5612316E-005  0.3495151E+03  0.7546771E-02  0.1062814E+00
         21   -1    0    0  502  501  0.00000000000E+00  0.00000000000E+00  0.15023908235E+04  0.15023908235E+04  0.00000000000E+00 0.  1.
         21   -1    0    0  501  502 -0.00000000000E+00 -0.00000000000E+00 -0.81310956376E+02  0.81310956376E+02  0.00000000000E+00 0.  1.
         25    1    1    2    0    0  0.22472106310E+02 -0.12348076534E+03  0.40485445863E+03  0.44191020314E+03  0.12500000000E+03 0.  0.
         25    1    1    2    0    0 -0.21407955166E+03  0.85408878127E+02  0.71545588172E+03  0.76198874637E+03  0.12500000000E+03 0.  0.
         25    1    1    2    0    0  0.19160744535E+03  0.38071887209E+02  0.30076952673E+03  0.37980283032E+03  0.12500000000E+03 0.  0.
</event>
<event>
 5    0  0.5612316E-005  0.6059881E+03  0.7546771E-02  0.9893060E-01
         21   -1    0    0  502  501  0.00000000000E+00  0.00000000000E+00  0.11287596369E+04  0.11287596369E+04  0.00000000000E+00 0.  1.
         21   -1    0    0  501  502 -0.00000000000E+00 -0.00000000000E+00 -0.32533196004E+03  0.32533196004E+03  0.00000000000E+00 0.  1.
         25    1    1    2    0    0 -0.12915468043E+03  0.59227184605E+02  0.72758620316E+02  0.20275011148E+03  0.12500000000E+03 0.  0.
         25    1    1    2    0    0  0.30828817786E+03 -0.19327148680E+03 -0.87000767660E+02  0.39444847799E+03  0.12500000000E+03 0.  0.
         25    1    1    2    0    0 -0.17913349743E+03  0.13404430220E+03  0.81766982423E+03  0.85689300751E+03  0.12500000000E+03 0.  0.
</event>
<event>
 5    0  0.5612316E-005  0.3012772E+03  0.7546771E-02  0.1084604E+00
         21   -1    0    0  502  501  0.00000000000E+00  0.00000000000E+00  0.36966844373E+03  0.36966844373E+03  0.00000000000E+00 0.  1.
         21   -1    0    0  501  502 -0.00000000000E+00 -0.00000000000E+00 -0.24553880324E+03  0.24553880324E+03  0.00000000000E+00 0.  1.
         25    1    1    2    0    0  0.29101407804E+02  0.61325049943E+02 -0.62693099359E+02  0.15544477603E+03  0.12500000000E+03 0.  0.
         25    1    1    2    0    0  0.12978859341E+03 -0.80410764682E+02  0.16177064279E+03  0.25515820764E+03  0.12500000000E+03 0.  0.
         25    1    1    2    0    0 -0.15889000122E+03  0.19085714738E+02  0.25052097058E+02  0.20460426330E+03  0.12500000000E+03 0.  0.
</event>
<event>
 5    0  0.5612316E-005  0.2687062E+03  0.7546771E-02  0.1102022E+00
         21   -1    0    0  502  501  0.00000000000E+00  0.00000000000E+00  0.30834429245E+03  0.30834429245E+03  0.00000000000E+00 0. -1.
         21   -1    0    0  501  502 -0.00000000000E+00 -0.00000000000E+00 -0.23416366375E+03  0.23416366375E+03  0.00000000000E+00 0. -1.
         25    1    1    2    0    0  0.40359869739E+02 -0.16609421013E+02 -0.30669033782E+02  0.13590578201E+03  0.12500000000E+03 0.  0.
         25    1    1    2    0    0 -0.16385099419E+03 -0.19336286798E+02  0.19297274471E+02  0.20789041605E+03  0.12500000000E+03 0.  0.
         25    1    1    2    0    0  0.12349112445E+03  0.35945707811E+02  0.85552388015E+02  0.19871175814E+03  0.12500000000E+03 0.  0.
</event>
<event>
 5    0  0.5612316E-005  0.3181539E+03  0.7546771E-02  0.1076502E+00
         21   -1    0    0  502  501  0.00000000000E+00  0.00000000000E+00  0.28489665370E+03  0.28489665370E+03  0.00000000000E+00 0.  1.
         21   -1    0    0  501  502 -0.00000000000E+00 -0.00000000000E+00 -0.35529338188E+03  0.35529338188E+03  0.00000000000E+00 0.  1.
         25    1    1    2    0    0 -0.45142184362E+02 -0.26441954959E-01  0.21528289964E+02  0.13463389164E+03  0.12500000000E+03 0.  0.
         25    1    1    2    0    0  0.11510779554E+03  0.19134144607E+03 -0.23646962339E+02  0.25699325362E+03  0.12500000000E+03 0.  0.
         25    1    1    2    0    0 -0.69965611179E+02 -0.19131500411E+03 -0.68278055805E+02  0.24856289033E+03  0.12500000000E+03 0.  0.
</event>
<event>
 5    0  0.5612316E-005  0.2807219E+03  0.7546771E-02  0.1095295E+00
         21   -1    0    0  502  501  0.00000000000E+00  0.00000000000E+00  0.71585656706E+03  0.71585656706E+03  0.00000000000E+00 0.  1.
         21   -1    0    0  501  502 -0.00000000000E+00 -0.00000000000E+00 -0.11008463198E+03  0.11008463198E+03  0.00000000000E+00 0.  1.
         25    1    1    2    0    0 -0.10177673029E+03  0.71479866026E+02  0.71189985597E+02  0.19016016440E+03  0.12500000000E+03 0.  0.
         25    1    1    2    0    0  0.36867083547E+02  0.56201523844E+02  0.14839713089E+03  0.20533996588E+03  0.12500000000E+03 0.  0.
         25    1    1    2    0    0  0.64909646741E+02 -0.12768138987E+03  0.38618481860E+03  0.43044106876E+03  0.12500000000E+03 0.  0.
</event>
<event>
 5    0  0.5612316E-005  0.2058049E+03  0.7546771E-02  0.1144932E+00
         21   -1    0    0  502  501  0.00000000000E+00  0.00000000000E+00  0.75053012059E+03  0.75053012059E+03  0.00000000000E+00 0.  1.
         21   -1    0    0  501  502 -0.00000000000E+00 -0.00000000000E+00 -0.56434307284E+02  0.56434307284E+02  0.00000000000E+00 0.  1.
         25    1    1    2    0    0 -0.43496637513E+01  0.24099993545E+02  0.24276827436E+03  0.27415536525E+03  0.12500000000E+03 0.  0.
         25    1    1    2    0    0  0.55653089148E+02  0.16637277517E+02  0.17730007132E+03  0.22457600189E+03  0.12500000000E+03 0.  0.
         25    1    1    2    0    0 -0.51303425396E+02 -0.40737271062E+02  0.27402746764E+03  0.30823306073E+03  0.12500000000E+03 0.  0.
</event>
<event>
 5    0  0.5612316E-005  0.3905975E+03  0.7546771E-02  0.1047085E+00
         21   -1    0    0  502  501  0.00000000000E+00  0.00000000000E+00  0.22295086743E+03  0.22295086743E+03  0.00000000000E+00 0. -1.
         21   -1    0    0  501  502 -0.00000000000E+00 -0.00000000000E+00 -0.68430502755E+03  0.68430502755E+03  0.00000000000E+00 0. -1.
         25    1    1    2    0    0 -0.12917269734E+03  0.86939857577E+02 -0.11999324954E+03  0.23295386777E+03  0.12500000000E+03 0.  0.
         25    1    1    2    0    0  0.26409272320E+03 -0.51796133268E+02 -0.38097771530E+03  0.48290457176E+03  0.12500000000E+03 0.  0.
         25    1    1    2    0    0 -0.13492002586E+03 -0.35143724309E+02  0.39616804735E+02  0.19139745545E+03  0.12500000000E+03 0.  0.
</event>
<event>
 5    0  0.5612316E-005  0.4936755E+03  0.7546771E-02  0.1015443E+00
         21   -1    0    0  502  501  0.00000000000E+00  0.00000000000E+00  0.29782327147E+04  0.29782327147E+04  0.00000000000E+00 0.  1.
         21   -1    0    0  501  502 -0.00000000000E+00 -0.00000000000E+00 -0.81832242760E+02  0.81832242760E+02  0.00000000000E+00 0.  1.
         25    1    1    2    0    0 -0.26227865121E+03 -0.59391691483E+02  0.84474762669E+03  0.89528823107E+03  0.12500000000E+03 0.  0.
         25    1    1    2    0    0 -0.78803717117E+02 -0.27728119034E+00  0.14633126284E+04  0.14707545516E+04  0.12500000000E+03 0.  0.
         25    1    1    2    0    0  0.34108236833E+03  0.59668972674E+02  0.58834021683E+03  0.69402217473E+03  0.12500000000E+03 0.  0.
</event>
<event>
 5    0  0.5612316E-005  0.2795272E+03  0.7546771E-02  0.1095947E+00
         21   -1    0    0  502  501  0.00000000000E+00  0.00000000000E+00  0.37898995636E+03  0.37898995636E+03  0.00000000000E+00 0. -1.
         21   -1    0    0  501  502 -0.00000000000E+00 -0.00000000000E+00 -0.20616757884E+03  0.20616757884E+03  0.00000000000E+00 0. -1.
         25    1    1    2    0    0  0.11047935513E+03  0.74642109143E+02 -0.36607199907E+02  0.18639264860E+03  0.12500000000E+03 0.  0.
         25    1    1    2    0    0 -0.43560004738E+02 -0.77079684363E+02  0.20626590403E+03  0.25692289683E+03  0.12500000000E+03 0.  0.
         25    1    1    2    0    0 -0.66919350394E+02  0.24375752193E+01  0.31636733990E+01  0.14184198976E+03  0.12500000000E+03 0.  0.
</event>
<event>
 5    0  0.5612316E-005  0.4842649E+03  0.7546771E-02  0.1017970E+00
         21   -1    0    0  502  501  0.00000000000E+00  0.00000000000E+00  0.11618768690E+04  0.11618768690E+04  0.00000000000E+00 0.  1.
         21   -1    0    0  501  502 -0.00000000000E+00 -0.00000000000E+00 -0.20183933518E+03  0.20183933518E+03  0.00000000000E+00 0.  1.
         25    1    1    2    0    0 -0.27942941968E+03  0.65180914648E+02  0.22924443172E+03  0.38795278281E+03  0.12500000000E+03 0.  0.
         25    1    1    2    0    0 -0.95344920966E+02  0.95848673605E+02  0.87503773079E+02  0.20386155226E+03  0.12500000000E+03 0.  0.
         25    1    1    2    0    0  0.37477434064E+03 -0.16102958825E+03  0.64328932905E+03  0.77190186913E+03  0.12500000000E+03 0.  0.
</event>
<event>
 5    0  0.5612316E-005  0.2665957E+03  0.7546771E-02  0.1103244E+00
         21   -1    0    0  502  501  0.00000000000E+00  0.00000000000E+00  0.16021261743E+03  0.16021261743E+03  0.00000000000E+00 0.  1.
         21   -1    0    0  501  502 -0.00000000000E+00 -0.00000000000E+00 -0.44361856032E+03  0.44361856032E+03  0.00000000000E+00 0.  1.
         25    1    1    2    0    0 -0.10955380240E+03  0.65730359733E+01  0.99677671330E+01  0.16664212193E+03  0.12500000000E+03 0.  0.
         25    1    1    2    0    0 -0.27956276600E+02  0.28513001859E+02 -0.15362880297E+03  0.20204295033E+03  0.12500000000E+03 0.  0.
         25    1    1    2    0    0  0.13751007900E+03 -0.35086037832E+02 -0.13974490705E+03  0.23514610548E+03  0.12500000000E+03 0.  0.
</event>
<event>
 5    0  0.5612316E-005  0.3377015E+03  0.7546771E-02  0.1067779E+00
         21   -1    0    0  502  501  0.00000000000E+00  0.00000000000E+00  0.58297264729E+03  0.58297264729E+03  0.00000000000E+00 0.  1.
         21   -1    0    0  501  502 -0.00000000000E+00 -0.00000000000E+00 -0.19562204910E+03  0.19562204910E+03  0.00000000000E+00 0.  1.
         25    1    1    2    0    0  0.58561476975E+02  0.14584301326E+03  0.15991419808E+03  0.25670446402E+03  0.12500000000E+03 0.  0.
         25    1    1    2    0    0  0.13256514306E+03 -0.12810023901E+03  0.18365517737E+03  0.28868219994E+03  0.12500000000E+03 0.  0.
         25    1    1    2    0    0 -0.19112662003E+03 -0.17742774244E+02  0.43781222745E+02  0.23320803242E+03  0.12500000000E+03 0.  0.
</event>
<event>
 5    0  0.5612316E-005  0.3537609E+03  0.7546771E-02  0.1061082E+00
         21   -1    0    0  502  501  0.00000000000E+00  0.00000000000E+00  0.13519066327E+03  0.13519066327E+03  0.00000000000E+00 0.  1.
         21   -1    0    0  501  502 -0.00000000000E+00 -0.00000000000E+00 -0.92570582054E+03  0.92570582054E+03  0.00000000000E+00 0.  1.
         25    1    1    2    0    0 -0.63654747216E+02 -0.13360085089E+03 -0.33644587664E+03  0.38822923912E+03  0.12500000000E+03 0.  0.
         25    1    1    2    0    0  0.13313866545E+03 -0.11022167697E+03 -0.18352174343E+03  0.28138932572E+03  0.12500000000E+03 0.  0.
         25    1    1    2    0    0 -0.69483918237E+02  0.24382252787E+03 -0.27054753720E+03  0.39127791897E+03  0.12500000000E+03 0.  0.
</event>
<event>
 5    0  0.5661581E-005  0.3201134E+03  0.7546771E-02  0.1075597E+00
         21   -1    0    0  502  501  0.00000000000E+00  0.00000000000E+00  0.53944972772E+03  0.53944972772E+03  0.00000000000E+00 0. -1.
         21   -1    0    0  501  502 -0.00000000000E+00 -0.00000000000E+00 -0.18995762243E+03  0.18995762243E+03  0.00000000000E+00 0. -1.
         25    1    1    2    0    0  0.47031346365E+01 -0.12502268057E+03  0.12975945221E+03  0.21935201291E+03  0.12500000000E+03 0.  0.
         25    1    1    2    0    0  0.17916712774E+03  0.70785286744E+02  0.87535512973E+02  0.24576184104E+03  0.12500000000E+03 0.  0.
         25    1    1    2    0    0 -0.18387026238E+03  0.54237393827E+02  0.13219714010E+03  0.26429349619E+03  0.12500000000E+03 0.  0.
</event>
<event>
 5    0  0.5612316E-005  0.3070531E+03  0.7546771E-02  0.1081767E+00
         21   -1    0    0  502  501  0.00000000000E+00  0.00000000000E+00  0.20535790036E+03  0.20535790036E+03  0.00000000000E+00 0.  1.
         21   -1    0    0  501  502 -0.00000000000E+00 -0.00000000000E+00 -0.45910872536E+03  0.45910872536E+03  0.00000000000E+00 0.  1.
         25    1    1    2    0    0  0.70599793084E+02 -0.64983115582E+02  0.74676440250E+02  0.17438092448E+03  0.12500000000E+03 0.  0.
         25    1    1    2    0    0  0.61014771919E+02  0.10177290246E+03 -0.20353047953E+03  0.26670242249E+03  0.12500000000E+03 0.  0.
         25    1    1    2    0    0 -0.13161456500E+03 -0.36789786878E+02 -0.12489678572E+03  0.22338327875E+03  0.12500000000E+03 0.  0.
</event>
<event>
 5    0  0.5612316E-005  0.3640282E+03  0.7546771E-02  0.1057000E+00
         21   -1    0    0  502  501  0.00000000000E+00  0.00000000000E+00  0.23799451679E+03  0.23799451679E+03  0.00000000000E+00 0.  1.
         21   -1    0    0  501  502 -0.00000000000E+00 -0.00000000000E+00 -0.55680488045E+03  0.55680488045E+03  0.00000000000E+00 0.  1.
         25    1    1    2    0    0  0.27653034624E+01 -0.13063370681E+03 -0.76813226414E+02  0.19646395092E+03  0.12500000000E+03 0.  0.
         25    1    1    2    0    0  0.82165817922E+02  0.28282052268E+03 -0.80661278660E+02  0.32995440831E+03  0.12500000000E+03 0.  0.
         25    1    1    2    0    0 -0.84931121384E+02 -0.15218681587E+03 -0.16133585859E+03  0.26838103802E+03  0.12500000000E+03 0.  0.
</event>
<event>
 5    0  0.5612316E-005  0.3862553E+03  0.7546771E-02  0.1048646E+00
         21   -1    0    0  502  501  0.00000000000E+00  0.00000000000E+00  0.21052887586E+03  0.21052887586E+03  0.00000000000E+00 0.  1.
         21   -1    0    0  501  502 -0.00000000000E+00 -0.00000000000E+00 -0.70865877636E+03  0.70865877636E+03  0.00000000000E+00 0.  1.
         25    1    1    2    0    0 -0.58863289038E+02  0.11781398230E+03 -0.35113136016E+03  0.39530147142E+03  0.12500000000E+03 0.  0.
         25    1    1    2    0    0 -0.33924063474E+01  0.83168516304E+02  0.96614502339E+02  0.17857175753E+03  0.12500000000E+03 0.  0.
         25    1    1    2    0    0  0.62255695385E+02 -0.20098249861E+03 -0.24361304268E+03  0.34531442327E+03  0.12500000000E+03 0.  0.
</event>
<event>
 5    0  0.5612316E-005  0.2590125E+03  0.7546771E-02  0.1107738E+00
         21   -1    0    0  502  501  0.00000000000E+00  0.00000000000E+00  0.28346101592E+03  0.28346101592E+03  0.00000000000E+00 0.  1.
         21   -1    0    0  501  502 -0.00000000000E+00 -0.00000000000E+00 -0.23667263155E+03  0.23667263155E+03  0.00000000000E+00 0.  1.
         25    1    1    2    0    0 -0.14807086342E+02  0.73005094738E+02  0.63988201254E+01  0.14565348799E+03  0.12500000000E+03 0.  0.
         25    1    1    2    0    0 -0.11168485070E+03 -0.95548266761E+02  0.25101613299E+02  0.19457149881E+03  0.12500000000E+03 0.  0.
         25    1    1    2    0    0  0.12649193705E+03  0.22543172023E+02  0.15287950951E+02  0.17990866068E+03  0.12500000000E+03 0.  0.
</event>
<event>
 5    0  0.5612316E-005  0.3915387E+03  0.7546771E-02  0.1046750E+00
         21   -1    0    0  502  501  0.00000000000E+00  0.00000000000E+00  0.15386579162E+04  0.15386579162E+04  0.00000000000E+00 0. -1.
         21   -1    0    0  501  502 -0.00000000000E+00 -0.00000000000E+00 -0.99633962807E+02  0.99633962807E+02  0.00000000000E+00 0. -1.
         25    1    1    2    0    0 -0.93137981753E-01 -0.10473771341E+03  0.11290004978E+03  0.19834671292E+03  0.12500000000E+03 0.  0.
         25    1    1    2    0    0  0.15593191804E+03  0.22817870828E+03  0.94293510364E+03  0.99052102231E+03  0.12500000000E+03 0.  0.
         25    1    1    2    0    0 -0.15583878006E+03 -0.12344099487E+03  0.38318879999E+03  0.44942414379E+03  0.12500000000E+03 0.  0.
</event>
<event>
 5    0  0.5662328E-005  0.3301760E+03  0.7546771E-02  0.1071059E+00
         21   -1    0    0  502  501  0.00000000000E+00  0.00000000000E+00  0.21381847059E+03  0.21381847059E+03  0.00000000000E+00 0. -1.
         21   -1    0    0  501  502 -0.00000000000E+00 -0.00000000000E+00 -0.50985381128E+03  0.50985381128E+03  0.00000000000E+00 0. -1.
         25    1    1    2    0    0  0.62834863742E+02 -0.12355425607E+03 -0.27076422616E+02  0.18860542664E+03  0.12500000000E+03 0.  0.
         25    1    1    2    0    0  0.13695571676E+03 -0.19995374542E+02 -0.11415692354E+03  0.21866295193E+03  0.12500000000E+03 0.  0.
         25    1    1    2    0    0 -0.19979058050E+03  0.14354963061E+03 -0.15480199453E+03  0.31640390329E+03  0.12500000000E+03 0.  0.
</event>
<event>
 5    0  0.5612316E-005  0.4889656E+03  0.7546771E-02  0.1016700E+00
         21   -1    0    0  502  501  0.00000000000E+00  0.00000000000E+00  0.18085936244E+04  0.18085936244E+04  0.00000000000E+00 0.  1.
         21   -1    0    0  501  502 -0.00000000000E+00 -0.00000000000E+00 -0.13219518048E+03  0.13219518048E+03  0.00000000000E+00 0.  1.
         25    1    1    2    0    0 -0.14985587040E+03  0.21319923808E+03  0.29219065639E+03  0.41098792767E+03  0.12500000000E+03 0.  0.
         25    1    1    2    0    0  0.40674888701E+01  0.15603706485E+03  0.70871561441E+03  0.73638775939E+03  0.12500000000E+03 0.  0.
         25    1    1    2    0    0  0.14578838152E+03 -0.36923630293E+03  0.67549217315E+03  0.79341311785E+03  0.12500000000E+03 0.  0.
</event>
<event>
 5    0  0.5612316E-005  0.3330377E+03  0.7546771E-02  0.1069801E+00
         21   -1    0    0  502  501  0.00000000000E+00  0.00000000000E+00  0.13006051322E+04  0.13006051322E+04  0.00000000000E+00 0.  1.
         21   -1    0    0  501  502 -0.00000000000E+00 -0.00000000000E+00 -0.85278853148E+02  0.85278853148E+02  0.00000000000E+00 0.  1.
         25    1    1    2    0    0 -0.12612634111E+03 -0.35922980610E+01  0.65908141213E+03  0.68259363193E+03  0.12500000000E+03 0.  0.
         25    1    1    2    0    0  0.16499812390E+03 -0.65546345760E+01  0.53049941030E+03  0.56949272906E+03  0.12500000000E+03 0.  0.
         25    1    1    2    0    0 -0.38871782785E+02  0.10146932637E+02  0.25745456577E+02  0.13379762432E+03  0.12500000000E+03 0.  0.
</event>
<event>
 5    0  0.5612316E-005  0.2438752E+03  0.7546771E-02  0.1117238E+00
         21   -1    0    0  502  501  0.00000000000E+00  0.00000000000E+00  0.49702010217E+02  0.49702010217E+02  0.00000000000E+00 0.  1.
         21   -1    0    0  501  502 -0.00000000000E+00 -0.00000000000E+00 -0.11966338999E+04  0.11966338999E+04  0.00000000000E+00 0.  1.
         25    1    1    2    0    0  0.65093538652E+02  0.33296285673E+02 -0.38042956838E+03  0.40705953853E+03  0.12500000000E+03 0.  0.
         25    1    1    2    0    0 -0.70473683841E+02  0.83814973461E+02 -0.31123415360E+03  0.35282175140E+03  0.12500000000E+03 0.  0.
         25    1    1    2    0    0  0.53801451884E+01 -0.11711125913E+03 -0.45526816770E+03  0.48645462019E+03  0.12500000000E+03 0.  0.
</event>
<event>
 5    0  0.5612316E-005  0.3508674E+03  0.7546771E-02  0.1062260E+00
         21   -1    0    0  502  501  0.00000000000E+00  0.00000000000E+00  0.14929754740E+03  0.14929754740E+03  0.00000000000E+00 0.  1.
         21   -1    0    0  501  502 -0.00000000000E+00 -0.00000000000E+00 -0.82458092214E+03  0.82458092214E+03  0.00000000000E+00 0.  1.
         25    1    1    2    0    0  0.52173151373E+02  0.31173017537E+02 -0.18312592202E+03  0.22989975655E+03  0.12500000000E+03 0.  0.
         25    1    1    2    0    0  0.96552214872E+01  0.22060866072E+03 -0.14222886863E+03  0.29088735889E+03  0.12500000000E+03 0.  0.
         25    1    1    2    0    0 -0.61828372860E+02 -0.25178167826E+03 -0.34992858409E+03  0.45309135410E+03  0.12500000000E+03 0.  0.
</event>
<event>
 5    0  0.5612316E-005  0.2217379E+03  0.7546771E-02  0.1132594E+00
         21   -1    0    0  502  501  0.00000000000E+00  0.00000000000E+00  0.31949384231E+03  0.31949384231E+03  0.00000000000E+00 0. -1.
         21   -1    0    0  501  502 -0.00000000000E+00 -0.00000000000E+00 -0.15389245322E+03  0.15389245322E+03  0.00000000000E+00 0. -1.
         25    1    1    2    0    0 -0.17583786641E+02  0.46349302365E+02  0.81934486753E+01  0.13472037702E+03  0.12500000000E+03 0.  0.
         25    1    1    2    0    0  0.40848348894E+02  0.26635643320E+02  0.13503870232E+03  0.19036411486E+03  0.12500000000E+03 0.  0.
         25    1    1    2    0    0 -0.23264562253E+02 -0.72984945685E+02  0.22369238094E+02  0.14830180365E+03  0.12500000000E+03 0.  0.
</event>
<event>
 5    0  0.5612316E-005  0.3894239E+03  0.7546771E-02  0.1047505E+00
         21   -1    0    0  502  501  0.00000000000E+00  0.00000000000E+00  0.33443621409E+03  0.33443621409E+03  0.00000000000E+00 0. -1.
         21   -1    0    0  501  502 -0.00000000000E+00 -0.00000000000E+00 -0.45345262628E+03  0.45345262628E+03  0.00000000000E+00 0. -1.
         25    1    1    2    0    0  0.23734101900E+03  0.15177142378E+03 -0.17718037994E+00  0.30820505474E+03  0.12500000000E+03 0.  0.
         25    1    1    2    0    0  0.24171078125E+02  0.12460774738E+02 -0.64308826189E+01  0.12808539408E+03  0.12500000000E+03 0.  0.
         25    1    1    2    0    0 -0.26151209713E+03 -0.16423219852E+03 -0.11240834919E+03  0.35159839155E+03  0.12500000000E+03 0.  0.
</event>
<event>
 5    0  0.5612316E-005  0.2675891E+03  0.7546771E-02  0.1102667E+00
         21   -1    0    0  502  501  0.00000000000E+00  0.00000000000E+00  0.21705550447E+03  0.21705550447E+03  0.00000000000E+00 0.  1.
         21   -1    0    0  501  502 -0.00000000000E+00 -0.00000000000E+00 -0.32988759638E+03  0.32988759638E+03  0.00000000000E+00 0.  1.
         25    1    1    2    0    0  0.70428902552E+02 -0.56430341012E+02 -0.61779570766E+02  0.16609132748E+03  0.12500000000E+03 0.  0.
         25    1    1    2    0    0  0.27048814592E+02  0.14492101561E+03 -0.48568129308E+02  0.19929275532E+03  0.12500000000E+03 0.  0.
         25    1    1    2    0    0 -0.97477717144E+02 -0.88490674601E+02 -0.24843918329E+01  0.18155901805E+03  0.12500000000E+03 0.  0.
</event>
<event>
 5    0  0.5612316E-005  0.2574268E+03  0.7546771E-02  0.1108699E+00
         21   -1    0    0  502  501  0.00000000000E+00  0.00000000000E+00  0.12606377123E+03  0.12606377123E+03  0.00000000000E+00 0.  1.
         21   -1    0    0  501  502 -0.00000000000E+00 -0.00000000000E+00 -0.52567468450E+03  0.52567468450E+03  0.00000000000E+00 0.  1.
         25    1    1    2    0    0 -0.51598539208E+02 -0.14025761118E+03 -0.15076352569E+03  0.24635187725E+03  0.12500000000E+03 0.  0.
         25    1    1    2    0    0  0.20224409557E+02  0.14048637884E+03 -0.12541258921E+03  0.22693339753E+03  0.12500000000E+03 0.  0.
         25    1    1    2    0    0  0.31374129651E+02 -0.22876765213E+00 -0.12343479837E+03  0.17845318096E+03  0.12500000000E+03 0.  0.
</event>
<event>
 5    0  0.5612316E-005  0.2708039E+03  0.7546771E-02  0.1100820E+00
         21   -1    0    0  502  501  0.00000000000E+00  0.00000000000E+00  0.12780619873E+03  0.12780619873E+03  0.00000000000E+00 0.  1.
         21   -1    0    0  501  502 -0.00000000000E+00 -0.00000000000E+00 -0.57379637186E+03  0.57379637186E+03  0.00000000000E+00 0.  1.
         25    1    1    2    0    0 -0.33421405197E+02  0.78512669953E+02 -0.26116514370E+03  0.30185006535E+03  0.12500000000E+03 0.  0.
         25    1    1    2    0    0 -0.62495836259E+02 -0.12328949436E+03 -0.12919367918E+03  0.22676427344E+03  0.12500000000E+03 0.  0.
         25    1    1    2    0    0  0.95917241456E+02  0.44776824405E+02 -0.55631350248E+02  0.17298823180E+03  0.12500000000E+03 0.  0.
</event>
<event>
 5    0  0.5708091E-005  0.3348206E+03  0.7546771E-02  0.1069024E+00
         21   -1    0    0  502  501  0.00000000000E+00  0.00000000000E+00  0.49443615925E+03  0.49443615925E+03  0.00000000000E+00 0. -1.
         21   -1    0    0  501  502 -0.00000000000E+00 -0.00000000000E+00 -0.22673265076E+03  0.22673265076E+03  0.00000000000E+00 0. -1.
         25    1    1    2    0    0 -0.86294943154E+02  0.20212441294E+03  0.51610537739E+02  0.25804988496E+03  0.12500000000E+03 0.  0.
         25    1    1    2    0    0  0.73720384416E+02 -0.59332269528E+02  0.22324030434E+03  0.27279341408E+03  0.12500000000E+03 0.  0.
         25    1    1    2    0    0  0.12574558738E+02 -0.14279214341E+03 -0.71473335902E+01  0.19032551097E+03  0.12500000000E+03 0.  0.
</event>
<event>
 5    0  0.5612316E-005  0.3078909E+03  0.7546771E-02  0.1081361E+00
         21   -1    0    0  502  501  0.00000000000E+00  0.00000000000E+00  0.14386828305E+03  0.14386828305E+03  0.00000000000E+00 0. -1.
         21   -1    0    0  501  502 -0.00000000000E+00 -0.00000000000E+00 -0.65891399447E+03  0.65891399447E+03  0.00000000000E+00 0. -1.
         25    1    1    2    0    0 -0.92364262590E+02  0.10431892111E+03 -0.19378155394E+03  0.26942510082E+03  0.12500000000E+03 0.  0.
         25    1    1    2    0    0 -0.11144371762E+03 -0.59425892222E+02 -0.17555842657E+03  0.24979371490E+03  0.12500000000E+03 0.  0.
         25    1    1    2    0    0  0.20380798021E+03 -0.44893028890E+02 -0.14570573091E+03  0.28356346179E+03  0.12500000000E+03 0.  0.
</event>
<event>
 5    0  0.5612316E-005  0.2928027E+03  0.7546771E-02  0.1088895E+00
         21   -1    0    0  502  501  0.00000000000E+00  0.00000000000E+00  0.52858390935E+02  0.52858390935E+02  0.00000000000E+00 0. -1.
         21   -1    0    0  501  502 -0.00000000000E+00 -0.00000000000E+00 -0.16219457155E+04  0.16219457155E+04  0.00000000000E+00 0. -1.
         25    1    1    2    0    0  0.12151952338E+03 -0.10246764279E+03 -0.34807421453E+03  0.40255095479E+03  0.12500000000E+03 0.  0.
         25    1    1    2    0    0 -0.93545483557E+02 -0.40379755860E+02 -0.46088600087E+03  0.48828494548E+03  0.12500000000E+03 0.  0.
         25    1    1    2    0    0 -0.27974039827E+02  0.14284739865E+03 -0.76012710920E+03  0.78396820621E+03  0.12500000000E+03 0.  0.
</event>
<event>
 5    0  0.5612316E-005  0.4320476E+03  0.7546771E-02  0.1033215E+00
         21   -1    0    0  502  501  0.00000000000E+00  0.00000000000E+00  0.72895530315E+02  0.72895530315E+02  0.00000000000E+00 0.  1.
         21   -1    0    0  501  502 -0.00000000000E+00 -0.00000000000E+00 -0.25607214832E+04  0.25607214832E+04  0.00000000000E+00 0.  1.
         25    1    1    2    0    0  0.64285160786E+02 -0.14188097567E+03 -0.38667561579E+03  0.43520779520E+03  0.12500000000E+03 0.  0.
         25    1    1    2    0    0 -0.67593944376E+02  0.33518108454E+03 -0.82641220429E+03  0.90304896442E+03  0.12500000000E+03 0.  0.
         25    1    1    2    0    0  0.33087835896E+01 -0.19330010887E+03 -0.12747381328E+04  0.12953602539E+04  0.12500000000E+03 0.  0.
</event>
<event>
 5    0  0.5612316E-005  0.2886296E+03  0.7546771E-02  0.1091067E+00
         21   -1    0    0  502  501  0.00000000000E+00  0.00000000000E+00  0.10552785748E+04  0.10552785748E+04  0.00000000000E+00 0.  1.
         21   -1    0    0  501  502 -0.00000000000E+00 -0.00000000000E+00 -0.78943204313E+02  0.78943204313E+02  0.00000000000E+00 0.  1.
         25    1    1    2    0    0 -0.39223482584E+02 -0.68826984138E+01  0.17694952691E+03  0.22027707143E+03  0.12500000000E+03 0.  0.
         25    1    1    2    0    0  0.70986243616E+01  0.18204835994E+03  0.33767491099E+03  0.40353604714E+03  0.12500000000E+03 0.  0.
         25    1    1    2    0    0  0.32124858222E+02 -0.17516566152E+03  0.46171093255E+03  0.51040866052E+03  0.12500000000E+03 0.  0.
</event>
<event>
 5    0  0.5612316E-005  0.5508923E+03  0.7546771E-02  0.1001288E+00
         21   -1    0    0  502  501  0.00000000000E+00  0.00000000000E+00  0.45903938884E+03  0.45903938884E+03  0.00000000000E+00 0.  1.
         21   -1    0    0  501  502 -0.00000000000E+00 -0.00000000000E+00 -0.66112483043E+03  0.66112483043E+03  0.00000000000E+00 0.  1.
         25    1    1    2    0    0  0.49929099113E+02 -0.12559282695E+03  0.35494342362E+03  0.39984535397E+03  0.12500000000E+03 0.  0.
         25    1    1    2    0    0  0.18222227324E+02  0.22959364853E+03 -0.42794800879E+03  0.50180652770E+03  0.12500000000E+03 0.  0.
         25    1    1    2    0    0 -0.68151326437E+02 -0.10400082159E+03 -0.12908085642E+03  0.21851233759E+03  0.12500000000E+03 0.  0.
</event>
<event>
 5    0  0.5612316E-005  0.5735374E+03  0.7546771E-02  0.9961881E-01
         21   -1    0    0  502  501  0.00000000000E+00  0.00000000000E+00  0.15241588084E+03  0.15241588084E+03  0.00000000000E+00 0.  1.
         21   -1    0    0  501  502 -0.00000000000E+00 -0.00000000000E+00 -0.21582080032E+04  0.21582080032E+04  0.00000000000E+00 0.  1.
         25    1    1    2    0    0 -0.20882877608E+03 -0.44403930013E+02 -0.75193801246E+02  0.25857353783E+03  0.12500000000E+03 0.  0.
         25    1    1    2    0    0  0.40796428691E+03 -0.67020292125E+02 -0.13004936852E+04  0.13703413458E+04  0.12500000000E+03 0.  0.
         25    1    1    2    0    0 -0.19913551083E+03  0.11142422214E+03 -0.63010463592E+03  0.68170900035E+03  0.12500000000E+03 0.  0.
</event>
