<event>
 5    0  0.5597833E-005  0.2459527E+03  0.7546771E-02  0.1115890E+00
         21   -1    0    0  502  501  0.00000000000E+00  0.00000000000E+00  0.56520468720E+03  0.56520468720E+03  0.00000000000E+00 0. -1.
         21   -1    0    0  501  502 -0.00000000000E+00 -0.00000000000E+00 -0.10702799145E+03  0.10702799145E+03  0.00000000000E+00 0. -1.
         25    1    1    2    0    0 -0.16094048560E+02  0.63607224926E+02  0.43943784874E+02  0.14785450176E+03  0.12500000000E+03 0.  0.
         25    1    1    2    0    0 -0.71297833824E+02 -0.21931639958E+02  0.11339164833E+03  0.18451841060E+03  0.12500000000E+03 0.  0.
         25    1    1    2    0    0  0.87391882384E+02 -0.41675584968E+02  0.30084126255E+03  0.33985976629E+03  0.12500000000E+03 0.  0.
</event>
<event>
 5    0  0.5597833E-005  0.2924375E+03  0.7546771E-02  0.1089083E+00
         21   -1    0    0  502  501  0.00000000000E+00  0.00000000000E+00  0.86115213882E+02  0.86115213882E+02  0.00000000000E+00 0.  1.
         21   -1    0    0  501  502 -0.00000000000E+00 -0.00000000000E+00 -0.99308468865E+03  0.99308468865E+03  0.00000000000E+00 0.  1.
         25    1    1    2    0    0  0.69474162823E+02 -0.10003354153E+03 -0.26113830087E+03  0.31408849217E+03  0.12500000000E+03 0.  0.
         25    1    1    2    0    0  0.11423028201E+03  0.79586265233E+02 -0.29416644537E+03  0.34862792275E+03  0.12500000000E+03 0.  0.
         25    1    1    2    0    0 -0.18370444484E+03  0.20447276300E+02 -0.35166472854E+03  0.41648348762E+03  0.12500000000E+03 0.  0.
</event>
<event>
 5    0  0.5597833E-005  0.2372241E+03  0.7546771E-02  0.1121656E+00
         21   -1    0    0  502  501  0.00000000000E+00  0.00000000000E+00  0.11552811610E+03  0.11552811610E+03  0.00000000000E+00 0.  1.
         21   -1    0    0  501  502 -0.00000000000E+00 -0.00000000000E+00 -0.48711309733E+03  0.48711309733E+03  0.00000000000E+00 0.  1.
         25    1    1    2    0    0  0.53668872243E+02  0.45203129150E+02 -0.98932450434E+02  0.17417319105E+03  0.12500000000E+03 0.  0.
         25    1    1    2    0    0  0.61702077850E+02 -0.70542279659E+02 -0.15513140960E+03  0.22016837619E+03  0.12500000000E+03 0.  0.
         25    1    1    2    0    0 -0.11537095009E+03  0.25339150509E+02 -0.11752112120E+03  0.20829964619E+03  0.12500000000E+03 0.  0.
</event>
<event>
 5    0  0.5597833E-005  0.2408222E+03  0.7546771E-02  0.1119246E+00
         21   -1    0    0  502  501  0.00000000000E+00  0.00000000000E+00  0.30725132761E+03  0.30725132761E+03  0.00000000000E+00 0.  1.
         21   -1    0    0  501  502 -0.00000000000E+00 -0.00000000000E+00 -0.18875535587E+03  0.18875535587E+03  0.00000000000E+00 0.  1.
         25    1    1    2    0    0 -0.55746561708E+02 -0.13244744098E+02 -0.42865404874E+01  0.13757353240E+03  0.12500000000E+03 0.  0.
         25    1    1    2    0    0  0.68580969486E+02 -0.89840722585E+02  0.29652069142E+02  0.17111092897E+03  0.12500000000E+03 0.  0.
         25    1    1    2    0    0 -0.12834407778E+02  0.10308546668E+03  0.93130443079E+02  0.18732222210E+03  0.12500000000E+03 0.  0.
</event>
<event>
 5    0  0.5597833E-005  0.4658922E+03  0.7546771E-02  0.1023086E+00
         21   -1    0    0  502  501  0.00000000000E+00  0.00000000000E+00  0.68016494609E+03  0.68016494609E+03  0.00000000000E+00 0. -1.
         21   -1    0    0  501  502 -0.00000000000E+00 -0.00000000000E+00 -0.31912185644E+03  0.31912185644E+03  0.00000000000E+00 0. -1.
         25    1    1    2    0    0 -0.40245965415E+01 -0.23122382415E+03  0.68612317551E+02  0.27168604004E+03  0.12500000000E+03 0.  0.
         25    1    1    2    0    0  0.50999053851E+02  0.37993393865E+03  0.33385976759E+03  0.52348643311E+03  0.12500000000E+03 0.  0.
         25    1    1    2    0    0 -0.46974457310E+02 -0.14871011450E+03 -0.41428995496E+02  0.20411432939E+03  0.12500000000E+03 0.  0.
</event>
<event>
 5    0  0.7234729E-005  0.3386123E+03  0.7546771E-02  0.1067389E+00
         21   -1    0    0  502  501  0.00000000000E+00  0.00000000000E+00  0.58415205889E+03  0.58415205889E+03  0.00000000000E+00 0.  1.
         21   -1    0    0  501  502 -0.00000000000E+00 -0.00000000000E+00 -0.19628156146E+03  0.19628156146E+03  0.00000000000E+00 0.  1.
         25    1    1    2    0    0  0.69769287634E+02 -0.11593579031E+03  0.15974187241E+03  0.24382642755E+03  0.12500000000E+03 0.  0.
         25    1    1    2    0    0 -0.16292993918E+02  0.12126004170E+01  0.31452180531E+03  0.33884494694E+03  0.12500000000E+03 0.  0.
         25    1    1    2    0    0 -0.53476293716E+02  0.11472318989E+03 -0.86393180287E+02  0.19776224586E+03  0.12500000000E+03 0.  0.
</event>
<event>
 5    0  0.5597833E-005  0.2506935E+03  0.7546771E-02  0.1112867E+00
         21   -1    0    0  502  501  0.00000000000E+00  0.00000000000E+00  0.11099007068E+04  0.11099007068E+04  0.00000000000E+00 0.  1.
         21   -1    0    0  501  502 -0.00000000000E+00 -0.00000000000E+00 -0.56624213672E+02  0.56624213672E+02  0.00000000000E+00 0. -1.
         25    1    1    2    0    0 -0.30218450577E+02  0.12046367475E+03  0.39184568956E+03  0.42964252131E+03  0.12500000000E+03 0.  0.
         25    1    1    2    0    0  0.47838554410E+02 -0.13132929771E+03  0.48231674989E+03  0.51748464610E+03  0.12500000000E+03 0.  0.
         25    1    1    2    0    0 -0.17620103833E+02  0.10865622957E+02  0.17911405366E+03  0.21939775304E+03  0.12500000000E+03 0.  0.
</event>
<event>
 5    0  0.5597833E-005  0.3711694E+03  0.7546771E-02  0.1054247E+00
         21   -1    0    0  502  501  0.00000000000E+00  0.00000000000E+00  0.10497893903E+04  0.10497893903E+04  0.00000000000E+00 0.  1.
         21   -1    0    0  501  502 -0.00000000000E+00 -0.00000000000E+00 -0.13123269956E+03  0.13123269956E+03  0.00000000000E+00 0.  1.
         25    1    1    2    0    0 -0.62832964828E+02 -0.25565630827E+03  0.56180352680E+03  0.63289519839E+03  0.12500000000E+03 0.  0.
         25    1    1    2    0    0  0.13315374895E+03  0.14135680089E+03  0.22391985586E+03  0.32167805002E+03  0.12500000000E+03 0.  0.
         25    1    1    2    0    0 -0.70320784119E+02  0.11429950738E+03  0.13283330812E+03  0.22644884149E+03  0.12500000000E+03 0.  0.
</event>
<event>
 5    0  0.5597833E-005  0.4030701E+03  0.7546771E-02  0.1042722E+00
         21   -1    0    0  502  501  0.00000000000E+00  0.00000000000E+00  0.71057559517E+03  0.71057559517E+03  0.00000000000E+00 0. -1.
         21   -1    0    0  501  502 -0.00000000000E+00 -0.00000000000E+00 -0.22863930851E+03  0.22863930851E+03  0.00000000000E+00 0. -1.
         25    1    1    2    0    0  0.11581871823E+03  0.14125457035E+03  0.13248595818E+03  0.25796193179E+03  0.12500000000E+03 0.  0.
         25    1    1    2    0    0  0.48662182583E+02 -0.80909878449E+02  0.42516165063E+03  0.45310246701E+03  0.12500000000E+03 0.  0.
         25    1    1    2    0    0 -0.16448090081E+03 -0.60344691898E+02 -0.75711322154E+02  0.22815050488E+03  0.12500000000E+03 0.  0.
</event>
<event>
 5    0  0.5597833E-005  0.6223774E+03  0.7546771E-02  0.9860038E-01
         21   -1    0    0  502  501  0.00000000000E+00  0.00000000000E+00  0.78004975158E+03  0.78004975158E+03  0.00000000000E+00 0. -1.
         21   -1    0    0  501  502 -0.00000000000E+00 -0.00000000000E+00 -0.49657548251E+03  0.49657548251E+03  0.00000000000E+00 0. -1.
         25    1    1    2    0    0 -0.33988355389E+02 -0.11893150446E+03 -0.15917803887E+03  0.23719729997E+03  0.12500000000E+03 0.  0.
         25    1    1    2    0    0 -0.17211459004E+02  0.32098482119E+03  0.63955858650E+03  0.72662760430E+03  0.12500000000E+03 0.  0.
         25    1    1    2    0    0  0.51199814393E+02 -0.20205331673E+03 -0.19690627856E+03  0.31280032982E+03  0.12500000000E+03 0.  0.
</event>
<event>
 5    0  0.5597833E-005  0.3852228E+03  0.7546771E-02  0.1049020E+00
         21   -1    0    0  502  501  0.00000000000E+00  0.00000000000E+00  0.26257181294E+03  0.26257181294E+03  0.00000000000E+00 0. -1.
         21   -1    0    0  501  502 -0.00000000000E+00 -0.00000000000E+00 -0.56516593221E+03  0.56516593221E+03  0.00000000000E+00 0. -1.
         25    1    1    2    0    0  0.58209041239E+02  0.89970996549E+02  0.20927876191E+02  0.16597002351E+03  0.12500000000E+03 0.  0.
         25    1    1    2    0    0  0.11842590545E+03  0.16448931996E+03 -0.17855595403E+03  0.29763847228E+03  0.12500000000E+03 0.  0.
         25    1    1    2    0    0 -0.17663494668E+03 -0.25446031651E+03 -0.14496604142E+03  0.36412924935E+03  0.12500000000E+03 0.  0.
</event>
<event>
 5    0  0.5597833E-005  0.3312352E+03  0.7546771E-02  0.1070592E+00
         21   -1    0    0  502  501  0.00000000000E+00  0.00000000000E+00  0.65709195051E+03  0.65709195051E+03  0.00000000000E+00 0. -1.
         21   -1    0    0  501  502 -0.00000000000E+00 -0.00000000000E+00 -0.16697319129E+03  0.16697319129E+03  0.00000000000E+00 0. -1.
         25    1    1    2    0    0  0.16242225406E+03  0.64589436394E+02  0.14198084100E+03  0.25755842661E+03  0.12500000000E+03 0.  0.
         25    1    1    2    0    0 -0.15713667408E+03 -0.70593383861E+02  0.38152544290E+03  0.43687758442E+03  0.12500000000E+03 0.  0.
         25    1    1    2    0    0 -0.52855799764E+01  0.60039474675E+01 -0.33387524686E+02  0.12962913078E+03  0.12500000000E+03 0.  0.
</event>
<event>
 5    0  0.5597833E-005  0.2479883E+03  0.7546771E-02  0.1114583E+00
         21   -1    0    0  502  501  0.00000000000E+00  0.00000000000E+00  0.11721375021E+04  0.11721375021E+04  0.00000000000E+00 0.  1.
         21   -1    0    0  501  502 -0.00000000000E+00 -0.00000000000E+00 -0.52466713823E+02  0.52466713823E+02  0.00000000000E+00 0.  1.
         25    1    1    2    0    0 -0.52371736947E+02 -0.38914506466E+02  0.56047662619E+03  0.57794133452E+03  0.12500000000E+03 0.  0.
         25    1    1    2    0    0 -0.59015705236E+01  0.11234810893E+03  0.27487655268E+03  0.32224066367E+03  0.12500000000E+03 0.  0.
         25    1    1    2    0    0  0.58273307471E+02 -0.73433602462E+02  0.28431760943E+03  0.32442221774E+03  0.12500000000E+03 0.  0.
</event>
<event>
 5    0  0.5597833E-005  0.2687121E+03  0.7546771E-02  0.1102019E+00
         21   -1    0    0  502  501  0.00000000000E+00  0.00000000000E+00  0.33266951281E+02  0.33266951281E+02  0.00000000000E+00 0. -1.
         21   -1    0    0  501  502 -0.00000000000E+00 -0.00000000000E+00 -0.21705082549E+04  0.21705082549E+04  0.00000000000E+00 0. -1.
         25    1    1    2    0    0 -0.47725188332E+02 -0.71083557699E+02 -0.43536158632E+03  0.46097209961E+03  0.12500000000E+03 0.  0.
         25    1    1    2    0    0 -0.60986728396E+02  0.10270331238E+03 -0.49780427675E+03  0.52697386023E+03  0.12500000000E+03 0.  0.
         25    1    1    2    0    0  0.10871191673E+03 -0.31619754679E+02 -0.12040754406E+04  0.12158292464E+04  0.12500000000E+03 0.  0.
</event>
<event>
 5    0  0.5597833E-005  0.3983722E+03  0.7546771E-02  0.1044345E+00
         21   -1    0    0  502  501  0.00000000000E+00  0.00000000000E+00  0.14229934011E+03  0.14229934011E+03  0.00000000000E+00 0. -1.
         21   -1    0    0  501  502 -0.00000000000E+00 -0.00000000000E+00 -0.11152574992E+04  0.11152574992E+04  0.00000000000E+00 0. -1.
         25    1    1    2    0    0  0.54839644893E+02 -0.30101613011E+03 -0.34401344733E+03  0.47706220683E+03  0.12500000000E+03 0.  0.
         25    1    1    2    0    0 -0.38478414093E+01  0.30137266839E+03 -0.46627040353E+03  0.56909874393E+03  0.12500000000E+03 0.  0.
         25    1    1    2    0    0 -0.50991803484E+02 -0.35653827586E+00 -0.16267430822E+03  0.21139588855E+03  0.12500000000E+03 0.  0.
</event>
<event>
 5    0  0.5644816E-005  0.4510155E+03  0.7546771E-02  0.1027420E+00
         21   -1    0    0  502  501  0.00000000000E+00  0.00000000000E+00  0.38375075417E+03  0.38375075417E+03  0.00000000000E+00 0.  1.
         21   -1    0    0  501  502 -0.00000000000E+00 -0.00000000000E+00 -0.53007061130E+03  0.53007061130E+03  0.00000000000E+00 0.  1.
         25    1    1    2    0    0  0.71652414619E+02  0.91228028175E+02  0.26280659835E+03  0.31328729591E+03  0.12500000000E+03 0.  0.
         25    1    1    2    0    0 -0.74708814625E+02 -0.21217910122E+03 -0.18560938587E+03  0.31729674140E+03  0.12500000000E+03 0.  0.
         25    1    1    2    0    0  0.30564000058E+01  0.12095107305E+03 -0.22351706961E+03  0.28323732816E+03  0.12500000000E+03 0.  0.
</event>
<event>
 5    0  0.5597833E-005  0.3575655E+03  0.7546771E-02  0.1059552E+00
         21   -1    0    0  502  501  0.00000000000E+00  0.00000000000E+00  0.89448682583E+02  0.89448682583E+02  0.00000000000E+00 0. -1.
         21   -1    0    0  501  502 -0.00000000000E+00 -0.00000000000E+00 -0.14293454978E+04  0.14293454978E+04  0.00000000000E+00 0. -1.
         25    1    1    2    0    0 -0.53267281822E+02  0.23428692257E+02 -0.91492598364E+03  0.92525718720E+03  0.12500000000E+03 0.  0.
         25    1    1    2    0    0  0.93441980012E+01  0.10998211234E+03 -0.35625224639E+03  0.39334977072E+03  0.12500000000E+03 0.  0.
         25    1    1    2    0    0  0.43923083821E+02 -0.13341080460E+03 -0.68718585154E+02  0.20018722242E+03  0.12500000000E+03 0.  0.
</event>
<event>
 5    0  0.5597833E-005  0.6176400E+03  0.7546771E-02  0.9869470E-01
         21   -1    0    0  502  501  0.00000000000E+00  0.00000000000E+00  0.12836113419E+04  0.12836113419E+04  0.00000000000E+00 0.  1.
         21   -1    0    0  501  502 -0.00000000000E+00 -0.00000000000E+00 -0.29719215361E+03  0.29719215361E+03  0.00000000000E+00 0.  1.
         25    1    1    2    0    0  0.12458446710E+03 -0.22585777446E+03 -0.19409823097E+03  0.34616780178E+03  0.12500000000E+03 0.  0.
         25    1    1    2    0    0 -0.78918803798E+02  0.11641019071E+03  0.56879350546E+03  0.59910813878E+03  0.12500000000E+03 0.  0.
         25    1    1    2    0    0 -0.45665663298E+02  0.10944758375E+03  0.61172391375E+03  0.63552755491E+03  0.12500000000E+03 0.  0.
</event>
<event>
 5    0  0.5597833E-005  0.2889650E+03  0.7546771E-02  0.1090891E+00
         21   -1    0    0  502  501  0.00000000000E+00  0.00000000000E+00  0.55358355660E+03  0.55358355660E+03  0.00000000000E+00 0.  1.
         21   -1    0    0  501  502 -0.00000000000E+00 -0.00000000000E+00 -0.15083678267E+03  0.15083678267E+03  0.00000000000E+00 0.  1.
         25    1    1    2    0    0 -0.20893636005E+03 -0.22920017873E+02  0.17425428199E+03  0.30028200839E+03  0.12500000000E+03 0.  0.
         25    1    1    2    0    0  0.10569005047E+03  0.11669044748E+02  0.74409198255E+02  0.18018957283E+03  0.12500000000E+03 0.  0.
         25    1    1    2    0    0  0.10324630958E+03  0.11250973125E+02  0.15408329369E+03  0.22394875805E+03  0.12500000000E+03 0.  0.
</event>
<event>
 5    0  0.5597833E-005  0.2435526E+03  0.7546771E-02  0.1117449E+00
         21   -1    0    0  502  501  0.00000000000E+00  0.00000000000E+00  0.27433090861E+03  0.27433090861E+03  0.00000000000E+00 0.  1.
         21   -1    0    0  501  502 -0.00000000000E+00 -0.00000000000E+00 -0.21622747105E+03  0.21622747105E+03  0.00000000000E+00 0.  1.
         25    1    1    2    0    0  0.57851024401E+02 -0.24370041993E+02 -0.66633430349E+02  0.15493758102E+03  0.12500000000E+03 0.  0.
         25    1    1    2    0    0 -0.35653684309E+02 -0.65814714313E+02  0.10289764118E+03  0.17836952202E+03  0.12500000000E+03 0.  0.
         25    1    1    2    0    0 -0.22197340092E+02  0.90184756306E+02  0.21839226728E+02  0.15725127663E+03  0.12500000000E+03 0.  0.
</event>
<event>
 5    0  0.5597833E-005  0.2822984E+03  0.7546771E-02  0.1094440E+00
         21   -1    0    0  502  501  0.00000000000E+00  0.00000000000E+00  0.98063307103E+02  0.98063307103E+02  0.00000000000E+00 0.  1.
         21   -1    0    0  501  502 -0.00000000000E+00 -0.00000000000E+00 -0.81266258563E+03  0.81266258563E+03  0.00000000000E+00 0.  1.
         25    1    1    2    0    0  0.18411927958E+03 -0.26759811410E+02 -0.28329645690E+03  0.36124490184E+03  0.12500000000E+03 0.  0.
         25    1    1    2    0    0 -0.16869061090E+03  0.17880203361E+01 -0.23750511737E+03  0.31700693998E+03  0.12500000000E+03 0.  0.
         25    1    1    2    0    0 -0.15428668679E+02  0.24971791074E+02 -0.19379770426E+03  0.23247405091E+03  0.12500000000E+03 0.  0.
</event>
<event>
 5    0  0.5597833E-005  0.4093157E+03  0.7546771E-02  0.1040601E+00
         21   -1    0    0  502  501  0.00000000000E+00  0.00000000000E+00  0.13189874833E+04  0.13189874833E+04  0.00000000000E+00 0. -1.
         21   -1    0    0  501  502 -0.00000000000E+00 -0.00000000000E+00 -0.12702119705E+03  0.12702119705E+03  0.00000000000E+00 0. -1.
         25    1    1    2    0    0 -0.26290857866E+02  0.13063577138E+03  0.20274694249E+03  0.27292533166E+03  0.12500000000E+03 0.  0.
         25    1    1    2    0    0  0.18133750292E+03 -0.22048248042E+03  0.87011461280E+03  0.92424036567E+03  0.12500000000E+03 0.  0.
         25    1    1    2    0    0 -0.15504664505E+03  0.89846709035E+02  0.11910473100E+03  0.24884298305E+03  0.12500000000E+03 0.  0.
</event>
<event>
 5    0  0.5597833E-005  0.3509105E+03  0.7546771E-02  0.1062242E+00
         21   -1    0    0  502  501  0.00000000000E+00  0.00000000000E+00  0.73283196558E+02  0.73283196558E+02  0.00000000000E+00 0. -1.
         21   -1    0    0  501  502 -0.00000000000E+00 -0.00000000000E+00 -0.16803056572E+04  0.16803056572E+04  0.00000000000E+00 0. -1.
         25    1    1    2    0    0  0.52267765732E+02  0.23801055608E+03 -0.10376629161E+04  0.10731962876E+04  0.12500000000E+03 0.  0.
         25    1    1    2    0    0 -0.55517935449E+01 -0.75505300289E+02 -0.33522840776E+03  0.36569790559E+03  0.12500000000E+03 0.  0.
         25    1    1    2    0    0 -0.46715972187E+02 -0.16250525579E+03 -0.23413113677E+03  0.31469466062E+03  0.12500000000E+03 0.  0.
</event>
<event>
 5    0  0.5597833E-005  0.2802984E+03  0.7546771E-02  0.1095526E+00
         21   -1    0    0  502  501  0.00000000000E+00  0.00000000000E+00  0.11536970991E+03  0.11536970991E+03  0.00000000000E+00 0. -1.
         21   -1    0    0  501  502 -0.00000000000E+00 -0.00000000000E+00 -0.68100349661E+03  0.68100349661E+03  0.00000000000E+00 0. -1.
         25    1    1    2    0    0 -0.18630073734E+02  0.26012803855E+02 -0.18084535349E+03  0.22215712343E+03  0.12500000000E+03 0.  0.
         25    1    1    2    0    0 -0.35809073426E+02 -0.44385963363E+02  0.27028089830E+02  0.14002828687E+03  0.12500000000E+03 0.  0.
         25    1    1    2    0    0  0.54439147160E+02  0.18373159508E+02 -0.41181652304E+03  0.43418779622E+03  0.12500000000E+03 0.  0.
</event>
<event>
 5    0  0.5597833E-005  0.2716445E+03  0.7546771E-02  0.1100342E+00
         21   -1    0    0  502  501  0.00000000000E+00  0.00000000000E+00  0.41809602417E+03  0.41809602417E+03  0.00000000000E+00 0.  1.
         21   -1    0    0  501  502 -0.00000000000E+00 -0.00000000000E+00 -0.17649234804E+03  0.17649234804E+03  0.00000000000E+00 0.  1.
         25    1    1    2    0    0  0.56576854660E+02  0.41449776416E+01 -0.57825853790E+02  0.14895284720E+03  0.12500000000E+03 0.  0.
         25    1    1    2    0    0 -0.10832917352E+03  0.47620734514E+02  0.99732363198E+02  0.19893337694E+03  0.12500000000E+03 0.  0.
         25    1    1    2    0    0  0.51752318861E+02 -0.51765712155E+02  0.19969716672E+03  0.24670214807E+03  0.12500000000E+03 0.  0.
</event>
<event>
 5    0  0.5597833E-005  0.3788773E+03  0.7546771E-02  0.1051349E+00
         21   -1    0    0  502  501  0.00000000000E+00  0.00000000000E+00  0.98201650817E+03  0.98201650817E+03  0.00000000000E+00 0. -1.
         21   -1    0    0  501  502 -0.00000000000E+00 -0.00000000000E+00 -0.14617678892E+03  0.14617678892E+03  0.00000000000E+00 0. -1.
         25    1    1    2    0    0  0.13656955451E+03 -0.87783746342E+02  0.12759882360E+03  0.24137872550E+03  0.12500000000E+03 0.  0.
         25    1    1    2    0    0 -0.25849832693E+03  0.16259078973E+03  0.54115094648E+03  0.63381897795E+03  0.12500000000E+03 0.  0.
         25    1    1    2    0    0  0.12192877243E+03 -0.74807043389E+02  0.16708994918E+03  0.25299559364E+03  0.12500000000E+03 0.  0.
</event>
<event>
 5    0  0.5597833E-005  0.3816204E+03  0.7546771E-02  0.1050336E+00
         21   -1    0    0  502  501  0.00000000000E+00  0.00000000000E+00  0.78085254615E+03  0.78085254615E+03  0.00000000000E+00 0.  1.
         21   -1    0    0  501  502 -0.00000000000E+00 -0.00000000000E+00 -0.18650653804E+03  0.18650653804E+03  0.00000000000E+00 0.  1.
         25    1    1    2    0    0 -0.18955699945E+03 -0.17432649778E+03  0.47036970067E+03  0.55063076483E+03  0.12500000000E+03 0.  0.
         25    1    1    2    0    0  0.11819151651E+03  0.14676298534E+03  0.21275915988E+01  0.22613742522E+03  0.12500000000E+03 0.  0.
         25    1    1    2    0    0  0.71365482943E+02  0.27563512447E+02  0.12184871585E+03  0.19059089414E+03  0.12500000000E+03 0.  0.
</event>
<event>
 5    0  0.5597833E-005  0.3731186E+03  0.7546771E-02  0.1053507E+00
         21   -1    0    0  502  501  0.00000000000E+00  0.00000000000E+00  0.17898752670E+03  0.17898752670E+03  0.00000000000E+00 0. -1.
         21   -1    0    0  501  502 -0.00000000000E+00 -0.00000000000E+00 -0.77780569459E+03  0.77780569459E+03  0.00000000000E+00 0. -1.
         25    1    1    2    0    0  0.16812596936E+03 -0.32674190828E+02 -0.50369597427E+03  0.54650579028E+03  0.12500000000E+03 0.  0.
         25    1    1    2    0    0 -0.64187219525E+02 -0.99086449384E+02  0.17185579320E+02  0.17279602929E+03  0.12500000000E+03 0.  0.
         25    1    1    2    0    0 -0.10393874984E+03  0.13176064021E+03 -0.11230777295E+03  0.23749140172E+03  0.12500000000E+03 0.  0.
</event>
<event>
 5    0  0.5597833E-005  0.4279889E+03  0.7546771E-02  0.1034497E+00
         21   -1    0    0  502  501  0.00000000000E+00  0.00000000000E+00  0.25792691355E+03  0.25792691355E+03  0.00000000000E+00 0.  1.
         21   -1    0    0  501  502 -0.00000000000E+00 -0.00000000000E+00 -0.71017997809E+03  0.71017997809E+03  0.00000000000E+00 0.  1.
         25    1    1    2    0    0 -0.22291756023E+02 -0.22383081138E+03  0.11894148129E+03  0.28349467452E+03  0.12500000000E+03 0.  0.
         25    1    1    2    0    0 -0.33058531609E+02  0.50633998660E+02 -0.12496234967E+03  0.18680807575E+03  0.12500000000E+03 0.  0.
         25    1    1    2    0    0  0.55350287632E+02  0.17319681272E+03 -0.44623219616E+03  0.49780414137E+03  0.12500000000E+03 0.  0.
</event>
<event>
 5    0  0.5597833E-005  0.2680799E+03  0.7546771E-02  0.1102384E+00
         21   -1    0    0  502  501  0.00000000000E+00  0.00000000000E+00  0.12560673481E+04  0.12560673481E+04  0.00000000000E+00 0.  1.
         21   -1    0    0  501  502 -0.00000000000E+00 -0.00000000000E+00 -0.57215747619E+02  0.57215747619E+02  0.00000000000E+00 0.  1.
         25    1    1    2    0    0  0.13792797873E+03 -0.31183076783E+02  0.29274349930E+03  0.34831059125E+03  0.12500000000E+03 0.  0.
         25    1    1    2    0    0 -0.82864599599E+02  0.14109160732E+02  0.70728616156E+03  0.72314889519E+03  0.12500000000E+03 0.  0.
         25    1    1    2    0    0 -0.55063379133E+02  0.17073916051E+02  0.19882193963E+03  0.24182360929E+03  0.12500000000E+03 0.  0.
</event>
<event>
 5    0  0.5597833E-005  0.3003501E+03  0.7546771E-02  0.1085066E+00
         21   -1    0    0  502  501  0.00000000000E+00  0.00000000000E+00  0.16995714419E+04  0.16995714419E+04  0.00000000000E+00 0. -1.
         21   -1    0    0  501  502 -0.00000000000E+00 -0.00000000000E+00 -0.53078204834E+02  0.53078204834E+02  0.00000000000E+00 0. -1.
         25    1    1    2    0    0  0.16113763111E+03  0.95867371562E+02  0.61983655306E+03  0.65952880270E+03  0.12500000000E+03 0.  0.
         25    1    1    2    0    0  0.33676183822E+02 -0.49720114950E+02  0.34932170027E+03  0.37584148982E+03  0.12500000000E+03 0.  0.
         25    1    1    2    0    0 -0.19481381494E+03 -0.46147256612E+02  0.67733498372E+03  0.71727935419E+03  0.12500000000E+03 0.  0.
</event>
<event>
 5    0  0.5597833E-005  0.2768109E+03  0.7546771E-02  0.1097444E+00
         21   -1    0    0  502  501  0.00000000000E+00  0.00000000000E+00  0.57417050517E+03  0.57417050517E+03  0.00000000000E+00 0. -1.
         21   -1    0    0  501  502 -0.00000000000E+00 -0.00000000000E+00 -0.13345208224E+03  0.13345208224E+03  0.00000000000E+00 0. -1.
         25    1    1    2    0    0  0.14587244115E+03  0.82990299088E+00  0.10314233428E+03  0.21804311259E+03  0.12500000000E+03 0.  0.
         25    1    1    2    0    0 -0.17311177888E+03  0.22308609318E+02  0.26371938200E+03  0.34005628134E+03  0.12500000000E+03 0.  0.
         25    1    1    2    0    0  0.27239337730E+02 -0.23138512309E+02  0.73856706640E+02  0.14952319348E+03  0.12500000000E+03 0.  0.
</event>
<event>
 5    0  0.5597833E-005  0.3471552E+03  0.7546771E-02  0.1063789E+00
         21   -1    0    0  502  501  0.00000000000E+00  0.00000000000E+00  0.34135336692E+03  0.34135336692E+03  0.00000000000E+00 0.  1.
         21   -1    0    0  501  502 -0.00000000000E+00 -0.00000000000E+00 -0.35305569256E+03  0.35305569256E+03  0.00000000000E+00 0.  1.
         25    1    1    2    0    0 -0.15714744861E+03  0.11738750071E+03 -0.14954959069E+03  0.27652346375E+03  0.12500000000E+03 0.  0.
         25    1    1    2    0    0  0.10182075116E+03 -0.10189762462E+03  0.19145162962E+03  0.27023937122E+03  0.12500000000E+03 0.  0.
         25    1    1    2    0    0  0.55326697448E+02 -0.15489876086E+02 -0.53604364578E+02  0.14764622451E+03  0.12500000000E+03 0.  0.
</event>
<event>
 5    0  0.5597833E-005  0.2967143E+03  0.7546771E-02  0.1086895E+00
         21   -1    0    0  502  501  0.00000000000E+00  0.00000000000E+00  0.94027841595E+03  0.94027841595E+03  0.00000000000E+00 0. -1.
         21   -1    0    0  501  502 -0.00000000000E+00 -0.00000000000E+00 -0.93631167240E+02  0.93631167240E+02  0.00000000000E+00 0. -1.
         25    1    1    2    0    0  0.63720412158E+02 -0.74992426530E+02  0.29072104890E+03  0.33140290167E+03  0.12500000000E+03 0.  0.
         25    1    1    2    0    0 -0.70215039708E+02 -0.10453474036E+02  0.19481781584E+02  0.14506538779E+03  0.12500000000E+03 0.  0.
         25    1    1    2    0    0  0.64946275494E+01  0.85445900566E+02  0.53644441823E+03  0.55744129374E+03  0.12500000000E+03 0.  0.
</event>
<event>
 5    0  0.5597833E-005  0.2635729E+03  0.7546771E-02  0.1105015E+00
         21   -1    0    0  502  501  0.00000000000E+00  0.00000000000E+00  0.30483380281E+03  0.30483380281E+03  0.00000000000E+00 0. -1.
         21   -1    0    0  501  502 -0.00000000000E+00 -0.00000000000E+00 -0.22789690263E+03  0.22789690263E+03  0.00000000000E+00 0. -1.
         25    1    1    2    0    0 -0.80575233128E+02 -0.57176442201E+02 -0.20588244262E+02  0.16065612201E+03  0.12500000000E+03 0.  0.
         25    1    1    2    0    0 -0.51086822784E+02 -0.51564460488E+02  0.62891012745E+02  0.15763577174E+03  0.12500000000E+03 0.  0.
         25    1    1    2    0    0  0.13166205591E+03  0.10874090269E+03  0.34634131696E+02  0.21443881170E+03  0.12500000000E+03 0.  0.
</event>
<event>
 5    0  0.5597833E-005  0.4270900E+03  0.7546771E-02  0.1034783E+00
         21   -1    0    0  502  501  0.00000000000E+00  0.00000000000E+00  0.44874336871E+03  0.44874336871E+03  0.00000000000E+00 0.  1.
         21   -1    0    0  501  502 -0.00000000000E+00 -0.00000000000E+00 -0.40648154745E+03  0.40648154745E+03  0.00000000000E+00 0.  1.
         25    1    1    2    0    0  0.31337090073E+02 -0.69535085628E+02 -0.81822602525E+02  0.16774110895E+03  0.12500000000E+03 0.  0.
         25    1    1    2    0    0  0.73373745930E+02 -0.10725646899E+03 -0.20938983847E+03  0.27632727188E+03  0.12500000000E+03 0.  0.
         25    1    1    2    0    0 -0.10471083600E+03  0.17679155461E+03  0.33347426225E+03  0.41115653533E+03  0.12500000000E+03 0.  0.
</event>
<event>
 5    0  0.5597833E-005  0.2401073E+03  0.7546771E-02  0.1119721E+00
         21   -1    0    0  502  501  0.00000000000E+00  0.00000000000E+00  0.14093129004E+03  0.14093129004E+03  0.00000000000E+00 0. -1.
         21   -1    0    0  501  502 -0.00000000000E+00 -0.00000000000E+00 -0.40907529579E+03  0.40907529579E+03  0.00000000000E+00 0. -1.
         25    1    1    2    0    0 -0.19600985750E+02 -0.43008329880E+02  0.28641256501E+02  0.13667200392E+03  0.12500000000E+03 0.  0.
         25    1    1    2    0    0 -0.13809734476E+02 -0.39082521469E+02 -0.16587505187E+03  0.21179632925E+03  0.12500000000E+03 0.  0.
         25    1    1    2    0    0  0.33410720225E+02  0.82090851348E+02 -0.13091021038E+03  0.20153825266E+03  0.12500000000E+03 0.  0.
</event>
<event>
 5    0  0.5597833E-005  0.4691155E+03  0.7546771E-02  0.1022170E+00
         21   -1    0    0  502  501  0.00000000000E+00  0.00000000000E+00  0.45818242607E+03  0.45818242607E+03  0.00000000000E+00 0.  1.
         21   -1    0    0  501  502 -0.00000000000E+00 -0.00000000000E+00 -0.48030955553E+03  0.48030955553E+03  0.00000000000E+00 0.  1.
         25    1    1    2    0    0  0.18475016934E+03 -0.24543231672E+03  0.48482883126E+02  0.33517941034E+03  0.12500000000E+03 0.  0.
         25    1    1    2    0    0 -0.27800666690E+03  0.29919958329E+03 -0.92150552350E+02  0.43694944991E+03  0.12500000000E+03 0.  0.
         25    1    1    2    0    0  0.93256497562E+02 -0.53767266569E+02  0.21540539766E+02  0.16636312135E+03  0.12500000000E+03 0.  0.
</event>
<event>
 5    0  0.5597833E-005  0.2774001E+03  0.7546771E-02  0.1097117E+00
         21   -1    0    0  502  501  0.00000000000E+00  0.00000000000E+00  0.29401711302E+03  0.29401711302E+03  0.00000000000E+00 0.  1.
         21   -1    0    0  501  502 -0.00000000000E+00 -0.00000000000E+00 -0.26172228167E+03  0.26172228167E+03  0.00000000000E+00 0.  1.
         25    1    1    2    0    0  0.14854696677E+03  0.39786128528E+02  0.12126890116E+03  0.23233657428E+03  0.12500000000E+03 0.  0.
         25    1    1    2    0    0 -0.49944209427E+02  0.26811942714E+02 -0.25990724405E+02  0.13969188266E+03  0.12500000000E+03 0.  0.
         25    1    1    2    0    0 -0.98602757340E+02 -0.66598071241E+02 -0.62983345409E+02  0.18371093774E+03  0.12500000000E+03 0.  0.
</event>
<event>
 5    0  0.5597833E-005  0.6206623E+03  0.7546771E-02  0.9863442E-01
         21   -1    0    0  502  501  0.00000000000E+00  0.00000000000E+00  0.45668800013E+03  0.45668800013E+03  0.00000000000E+00 0.  1.
         21   -1    0    0  501  502 -0.00000000000E+00 -0.00000000000E+00 -0.84351166382E+03  0.84351166382E+03  0.00000000000E+00 0.  1.
         25    1    1    2    0    0 -0.26561727845E+03  0.34087179804E+03  0.14763410243E+02  0.45009896644E+03  0.12500000000E+03 0.  0.
         25    1    1    2    0    0  0.29768921878E+02 -0.71694850362E+02  0.13057301923E+03  0.19672481701E+03  0.12500000000E+03 0.  0.
         25    1    1    2    0    0  0.23584835657E+03 -0.26917694767E+03 -0.53216009316E+03  0.65337588049E+03  0.12500000000E+03 0.  0.
</event>
<event>
 5    0  0.5597833E-005  0.5700645E+03  0.7546771E-02  0.9969536E-01
         21   -1    0    0  502  501  0.00000000000E+00  0.00000000000E+00  0.20101566956E+04  0.20101566956E+04  0.00000000000E+00 0.  1.
         21   -1    0    0  501  502 -0.00000000000E+00 -0.00000000000E+00 -0.16166579123E+03  0.16166579123E+03  0.00000000000E+00 0.  1.
         25    1    1    2    0    0  0.10313072071E+02  0.18324167954E+03  0.84794436746E+02  0.23769511791E+03  0.12500000000E+03 0.  0.
         25    1    1    2    0    0  0.24674080803E+03 -0.25083613410E+03  0.14777885808E+04  0.15242322270E+04  0.12500000000E+03 0.  0.
         25    1    1    2    0    0 -0.25705388010E+03  0.67594454558E+02  0.28590788684E+03  0.40989514186E+03  0.12500000000E+03 0.  0.
</event>
<event>
 5    0  0.5597833E-005  0.2471712E+03  0.7546771E-02  0.1115106E+00
         21   -1    0    0  502  501  0.00000000000E+00  0.00000000000E+00  0.64171442040E+03  0.64171442040E+03  0.00000000000E+00 0.  1.
         21   -1    0    0  501  502 -0.00000000000E+00 -0.00000000000E+00 -0.95203737495E+02  0.95203737495E+02  0.00000000000E+00 0.  1.
         25    1    1    2    0    0  0.13551666511E+03 -0.32394520265E+01  0.31852242123E+03  0.36804455355E+03  0.12500000000E+03 0.  0.
         25    1    1    2    0    0 -0.77060310116E+02  0.20623144994E+02  0.14226424589E+03  0.20549384702E+03  0.12500000000E+03 0.  0.
         25    1    1    2    0    0 -0.58456354996E+02 -0.17383692968E+02  0.85724015784E+02  0.16337975732E+03  0.12500000000E+03 0.  0.
</event>
<event>
 5    0  0.5597833E-005  0.2800507E+03  0.7546771E-02  0.1095661E+00
         21   -1    0    0  502  501  0.00000000000E+00  0.00000000000E+00  0.27363596228E+03  0.27363596228E+03  0.00000000000E+00 0. -1.
         21   -1    0    0  501  502 -0.00000000000E+00 -0.00000000000E+00 -0.28661584765E+03  0.28661584765E+03  0.00000000000E+00 0. -1.
         25    1    1    2    0    0  0.71776800503E+01 -0.27817226178E+02 -0.63223683660E+01  0.12841452217E+03  0.12500000000E+03 0.  0.
         25    1    1    2    0    0  0.16813172390E+03  0.41844296372E+02  0.19300125388E+02  0.21451507304E+03  0.12500000000E+03 0.  0.
         25    1    1    2    0    0 -0.17530940395E+03 -0.14027070194E+02 -0.25957642394E+02  0.21732221472E+03  0.12500000000E+03 0.  0.
</event>
<event>
 5    0  0.5597833E-005  0.3921513E+03  0.7546771E-02  0.1046532E+00
         21   -1    0    0  502  501  0.00000000000E+00  0.00000000000E+00  0.13916015979E+03  0.13916015979E+03  0.00000000000E+00 0.  1.
         21   -1    0    0  501  502 -0.00000000000E+00 -0.00000000000E+00 -0.11050768637E+04  0.11050768637E+04  0.00000000000E+00 0.  1.
         25    1    1    2    0    0 -0.47734359973E+02 -0.14592826277E+03 -0.38973607543E+03  0.43714166524E+03  0.12500000000E+03 0.  0.
         25    1    1    2    0    0  0.10022640325E+03  0.21234828899E+03 -0.59805638721E+03  0.65454837104E+03  0.12500000000E+03 0.  0.
         25    1    1    2    0    0 -0.52492043275E+02 -0.66420026225E+02  0.21875758716E+02  0.15254698722E+03  0.12500000000E+03 0.  0.
</event>
<event>
 5    0  0.5597833E-005  0.2857503E+03  0.7546771E-02  0.1092589E+00
         21   -1    0    0  502  501  0.00000000000E+00  0.00000000000E+00  0.66296568892E+02  0.66296568892E+02  0.00000000000E+00 0.  1.
         21   -1    0    0  501  502 -0.00000000000E+00 -0.00000000000E+00 -0.12316358033E+04  0.12316358033E+04  0.00000000000E+00 0.  1.
         25    1    1    2    0    0 -0.27963314879E+02  0.46256666784E+02 -0.77812378512E+02  0.15684831032E+03  0.12500000000E+03 0.  0.
         25    1    1    2    0    0  0.15177845698E+02 -0.13995024259E+03 -0.56320757107E+03  0.59383853489E+03  0.12500000000E+03 0.  0.
         25    1    1    2    0    0  0.12785469181E+02  0.93693575805E+02 -0.52431928486E+03  0.54724552702E+03  0.12500000000E+03 0.  0.
</event>
<event>
 5    0  0.5597833E-005  0.5379651E+03  0.7546771E-02  0.1004319E+00
         21   -1    0    0  502  501  0.00000000000E+00  0.00000000000E+00  0.35944848944E+03  0.35944848944E+03  0.00000000000E+00 0. -1.
         21   -1    0    0  501  502 -0.00000000000E+00 -0.00000000000E+00 -0.80514014369E+03  0.80514014369E+03  0.00000000000E+00 0. -1.
         25    1    1    2    0    0 -0.25358277886E+03  0.30797616670E+02  0.10916833121E+03  0.30462344537E+03  0.12500000000E+03 0.  0.
         25    1    1    2    0    0  0.41121781736E+03  0.60061458168E+02 -0.40112779145E+03  0.59096190837E+03  0.12500000000E+03 0.  0.
         25    1    1    2    0    0 -0.15763503850E+03 -0.90859074838E+02 -0.15373219402E+03  0.26900327938E+03  0.12500000000E+03 0.  0.
</event>
<event>
 5    0  0.5597833E-005  0.2428922E+03  0.7546771E-02  0.1117881E+00
         21   -1    0    0  502  501  0.00000000000E+00  0.00000000000E+00  0.14537324126E+03  0.14537324126E+03  0.00000000000E+00 0.  1.
         21   -1    0    0  501  502 -0.00000000000E+00 -0.00000000000E+00 -0.40582868860E+03  0.40582868860E+03  0.00000000000E+00 0.  1.
         25    1    1    2    0    0 -0.43163840205E+01  0.88057365849E+02 -0.21652338330E+02  0.15448804033E+03  0.12500000000E+03 0.  0.
         25    1    1    2    0    0  0.41414454855E+02 -0.61785297994E+02 -0.21802335085E+03  0.26209113231E+03  0.12500000000E+03 0.  0.
         25    1    1    2    0    0 -0.37098070835E+02 -0.26272067855E+02 -0.20779758157E+02  0.13462275721E+03  0.12500000000E+03 0.  0.
</event>
<event>
 5    0  0.5597833E-005  0.2558934E+03  0.7546771E-02  0.1109636E+00
         21   -1    0    0  502  501  0.00000000000E+00  0.00000000000E+00  0.29258185411E+03  0.29258185411E+03  0.00000000000E+00 0.  1.
         21   -1    0    0  501  502 -0.00000000000E+00 -0.00000000000E+00 -0.22380546860E+03  0.22380546860E+03  0.00000000000E+00 0.  1.
         25    1    1    2    0    0 -0.38709641593E+02  0.84086200190E+02 -0.44681000133E+02  0.16183422749E+03  0.12500000000E+03 0.  0.
         25    1    1    2    0    0  0.21415793009E+02  0.35468598647E+02  0.12335671839E+03  0.18043984497E+03  0.12500000000E+03 0.  0.
         25    1    1    2    0    0  0.17293848584E+02 -0.11955479884E+03 -0.98993327545E+01  0.17411325025E+03  0.12500000000E+03 0.  0.
</event>
<event>
 5    0  0.5597833E-005  0.3127652E+03  0.7546771E-02  0.1079028E+00
         21   -1    0    0  502  501  0.00000000000E+00  0.00000000000E+00  0.13232438173E+03  0.13232438173E+03  0.00000000000E+00 0. -1.
         21   -1    0    0  501  502 -0.00000000000E+00 -0.00000000000E+00 -0.73925957789E+03  0.73925957789E+03  0.00000000000E+00 0. -1.
         25    1    1    2    0    0  0.37819344761E+02  0.15989389364E+03 -0.63683665141E+02  0.21604853452E+03  0.12500000000E+03 0.  0.
         25    1    1    2    0    0 -0.93428945652E+02 -0.53053288169E+02 -0.39220214355E+03  0.42543053567E+03  0.12500000000E+03 0.  0.
         25    1    1    2    0    0  0.55609600891E+02 -0.10684060547E+03 -0.15104938747E+03  0.23010488944E+03  0.12500000000E+03 0.  0.
</event>
<event>
 5    0  0.5597833E-005  0.2602909E+03  0.7546771E-02  0.1106969E+00
         21   -1    0    0  502  501  0.00000000000E+00  0.00000000000E+00  0.72560591089E+02  0.72560591089E+02  0.00000000000E+00 0.  1.
         21   -1    0    0  501  502 -0.00000000000E+00 -0.00000000000E+00 -0.93372125178E+03  0.93372125178E+03  0.00000000000E+00 0.  1.
         25    1    1    2    0    0 -0.48247620147E+02 -0.61823914183E+02 -0.53950966007E+03  0.55932611464E+03  0.12500000000E+03 0.  0.
         25    1    1    2    0    0  0.97909352369E+02 -0.75053237718E+01 -0.16036932968E+03  0.22580056038E+03  0.12500000000E+03 0.  0.
         25    1    1    2    0    0 -0.49661732222E+02  0.69329237955E+02 -0.16128167095E+03  0.22115516785E+03  0.12500000000E+03 0.  0.
</event>
<event>
 5    0  0.5597833E-005  0.4003195E+03  0.7546771E-02  0.1043669E+00
         21   -1    0    0  502  501  0.00000000000E+00  0.00000000000E+00  0.11101380443E+04  0.11101380443E+04  0.00000000000E+00 0. -1.
         21   -1    0    0  501  502 -0.00000000000E+00 -0.00000000000E+00 -0.14435655425E+03  0.14435655425E+03  0.00000000000E+00 0. -1.
         25    1    1    2    0    0 -0.11972743349E+03 -0.29760947889E+03  0.48450938988E+03  0.59437396405E+03  0.12500000000E+03 0.  0.
         25    1    1    2    0    0  0.71104147487E+02  0.19455851382E+03  0.41108423635E+03  0.47699482646E+03  0.12500000000E+03 0.  0.
         25    1    1    2    0    0  0.48623286005E+02  0.10305096507E+03  0.70187863806E+02  0.18312580804E+03  0.12500000000E+03 0.  0.
</event>
<event>
 5    0  0.5597833E-005  0.3022293E+03  0.7546771E-02  0.1084132E+00
         21   -1    0    0  502  501  0.00000000000E+00  0.00000000000E+00  0.12396052478E+03  0.12396052478E+03  0.00000000000E+00 0.  1.
         21   -1    0    0  501  502 -0.00000000000E+00 -0.00000000000E+00 -0.73686792217E+03  0.73686792217E+03  0.00000000000E+00 0.  1.
         25    1    1    2    0    0  0.15527107160E+03  0.56381654800E+02 -0.15694644653E+03  0.25989456276E+03  0.12500000000E+03 0.  0.
         25    1    1    2    0    0 -0.64059140901E+02  0.47898172180E+02 -0.36362106098E+03  0.39273793352E+03  0.12500000000E+03 0.  0.
         25    1    1    2    0    0 -0.91211930700E+02 -0.10427982698E+03 -0.92339889869E+02  0.20819595068E+03  0.12500000000E+03 0.  0.
</event>
<event>
 5    0  0.5597833E-005  0.3190773E+03  0.7546771E-02  0.1076075E+00
         21   -1    0    0  502  501  0.00000000000E+00  0.00000000000E+00  0.10260359727E+03  0.10260359727E+03  0.00000000000E+00 0. -1.
         21   -1    0    0  501  502 -0.00000000000E+00 -0.00000000000E+00 -0.99226853692E+03  0.99226853692E+03  0.00000000000E+00 0. -1.
         25    1    1    2    0    0  0.22329351862E+03  0.20679599129E+02 -0.30833800816E+03  0.40122932165E+03  0.12500000000E+03 0.  0.
         25    1    1    2    0    0 -0.37239682601E+02 -0.55137753451E+02 -0.30427584498E+03  0.33561250820E+03  0.12500000000E+03 0.  0.
         25    1    1    2    0    0 -0.18605383602E+03  0.34458154322E+02 -0.27705108650E+03  0.35803030434E+03  0.12500000000E+03 0.  0.
</event>
<event>
 5    0  0.5597833E-005  0.2670919E+03  0.7546771E-02  0.1102956E+00
         21   -1    0    0  502  501  0.00000000000E+00  0.00000000000E+00  0.33493104476E+03  0.33493104476E+03  0.00000000000E+00 0. -1.
         21   -1    0    0  501  502 -0.00000000000E+00 -0.00000000000E+00 -0.21299339098E+03  0.21299339098E+03  0.00000000000E+00 0. -1.
         25    1    1    2    0    0  0.94386545130E+02  0.97460125414E+02 -0.67222002052E+02  0.19634432385E+03  0.12500000000E+03 0.  0.
         25    1    1    2    0    0 -0.16267956771E+02 -0.74114212981E+02  0.10722562415E+03  0.18132814856E+03  0.12500000000E+03 0.  0.
         25    1    1    2    0    0 -0.78118588359E+02 -0.23345912433E+02  0.81934031670E+02  0.17025196334E+03  0.12500000000E+03 0.  0.
</event>
<event>
 5    0  0.5597833E-005  0.2902193E+03  0.7546771E-02  0.1090235E+00
         21   -1    0    0  502  501  0.00000000000E+00  0.00000000000E+00  0.68375060702E+03  0.68375060702E+03  0.00000000000E+00 0. -1.
         21   -1    0    0  501  502 -0.00000000000E+00 -0.00000000000E+00 -0.12318413412E+03  0.12318413412E+03  0.00000000000E+00 0. -1.
         25    1    1    2    0    0 -0.11442320035E+03  0.11010239233E+03  0.37236037229E+03  0.42366549591E+03  0.12500000000E+03 0.  0.
         25    1    1    2    0    0  0.13588805504E+03 -0.86025457336E+02  0.99986203415E+02  0.22691007841E+03  0.12500000000E+03 0.  0.
         25    1    1    2    0    0 -0.21464854688E+02 -0.24076934993E+02  0.88219897190E+02  0.15635916681E+03  0.12500000000E+03 0.  0.
</event>
<event>
 5    0  0.5597833E-005  0.3095440E+03  0.7546771E-02  0.1080565E+00
         21   -1    0    0  502  501  0.00000000000E+00  0.00000000000E+00  0.15046078178E+03  0.15046078178E+03  0.00000000000E+00 0.  1.
         21   -1    0    0  501  502 -0.00000000000E+00 -0.00000000000E+00 -0.63682681272E+03  0.63682681272E+03  0.00000000000E+00 0.  1.
         25    1    1    2    0    0  0.36548444507E+01 -0.17042475726E+03 -0.40320430677E+03  0.45525450989E+03  0.12500000000E+03 0.  0.
         25    1    1    2    0    0 -0.74293083185E+01  0.25600841737E+02 -0.14015654484E+02  0.12857696641E+03  0.12500000000E+03 0.  0.
         25    1    1    2    0    0  0.37744638678E+01  0.14482391552E+03 -0.69146069683E+02  0.20345611821E+03  0.12500000000E+03 0.  0.
</event>
<event>
 5    0  0.5597833E-005  0.4078911E+03  0.7546771E-02  0.1041081E+00
         21   -1    0    0  502  501  0.00000000000E+00  0.00000000000E+00  0.20572966489E+03  0.20572966489E+03  0.00000000000E+00 0.  1.
         21   -1    0    0  501  502 -0.00000000000E+00 -0.00000000000E+00 -0.80870749525E+03  0.80870749525E+03  0.00000000000E+00 0.  1.
         25    1    1    2    0    0  0.25906228548E+02 -0.11771432310E+03 -0.44077389126E+03  0.47374509787E+03  0.12500000000E+03 0.  0.
         25    1    1    2    0    0  0.16077099214E+03  0.17407707047E+03 -0.19459421618E+02  0.26861460770E+03  0.12500000000E+03 0.  0.
         25    1    1    2    0    0 -0.18667722069E+03 -0.56362747372E+02 -0.14274451749E+03  0.27207745457E+03  0.12500000000E+03 0.  0.
</event>
<event>
 5    0  0.5597833E-005  0.3732987E+03  0.7546771E-02  0.1053439E+00
         21   -1    0    0  502  501  0.00000000000E+00  0.00000000000E+00  0.95570050781E+02  0.95570050781E+02  0.00000000000E+00 0. -1.
         21   -1    0    0  501  502 -0.00000000000E+00 -0.00000000000E+00 -0.14581129924E+04  0.14581129924E+04  0.00000000000E+00 0. -1.
         25    1    1    2    0    0  0.10919266183E+03 -0.18148420036E+03 -0.71925145814E+03  0.76013631173E+03  0.12500000000E+03 0.  0.
         25    1    1    2    0    0  0.54371343197E+01  0.97562246471E+01 -0.49411991853E+03  0.50980804253E+03  0.12500000000E+03 0.  0.
         25    1    1    2    0    0 -0.11462979615E+03  0.17172797571E+03 -0.14917156499E+03  0.28373868896E+03  0.12500000000E+03 0.  0.
</event>
<event>
 5    0  0.5597833E-005  0.3927060E+03  0.7546771E-02  0.1046335E+00
         21   -1    0    0  502  501  0.00000000000E+00  0.00000000000E+00  0.18071551828E+03  0.18071551828E+03  0.00000000000E+00 0. -1.
         21   -1    0    0  501  502 -0.00000000000E+00 -0.00000000000E+00 -0.85337462998E+03  0.85337462998E+03  0.00000000000E+00 0. -1.
         25    1    1    2    0    0 -0.22485137649E+03 -0.11230389566E+02 -0.62118582745E+03  0.67244412064E+03  0.12500000000E+03 0.  0.
         25    1    1    2    0    0  0.38750274569E+02  0.10333307238E+02 -0.39714375909E+02  0.13715171407E+03  0.12500000000E+03 0.  0.
         25    1    1    2    0    0  0.18610110192E+03  0.89708232765E+00 -0.11758908346E+02  0.22449431356E+03  0.12500000000E+03 0.  0.
</event>
<event>
 5    0  0.5597833E-005  0.3050290E+03  0.7546771E-02  0.1082753E+00
         21   -1    0    0  502  501  0.00000000000E+00  0.00000000000E+00  0.48867695136E+03  0.48867695136E+03  0.00000000000E+00 0. -1.
         21   -1    0    0  501  502 -0.00000000000E+00 -0.00000000000E+00 -0.19039714261E+03  0.19039714261E+03  0.00000000000E+00 0. -1.
         25    1    1    2    0    0 -0.80613579435E+01 -0.48418522062E+02 -0.11140309357E+03  0.17448492206E+03  0.12500000000E+03 0.  0.
         25    1    1    2    0    0 -0.27525042108E+02 -0.38683170483E+02  0.23257955772E+03  0.26827647361E+03  0.12500000000E+03 0.  0.
         25    1    1    2    0    0  0.35586400052E+02  0.87101692545E+02  0.17710334459E+03  0.23631269830E+03  0.12500000000E+03 0.  0.
</event>
<event>
 5    0  0.6057611E-005  0.3419490E+03  0.7546771E-02  0.1065969E+00
         21   -1    0    0  502  501  0.00000000000E+00  0.00000000000E+00  0.52530928203E+03  0.52530928203E+03  0.00000000000E+00 0.  1.
         21   -1    0    0  501  502 -0.00000000000E+00 -0.00000000000E+00 -0.22259096899E+03  0.22259096899E+03  0.00000000000E+00 0.  1.
         25    1    1    2    0    0  0.29197767648E+01 -0.57432751076E+02  0.29661040073E+03  0.32697060390E+03  0.12500000000E+03 0.  0.
         25    1    1    2    0    0 -0.30640151529E+02  0.18972439023E+03 -0.36010283162E+02  0.23206874763E+03  0.12500000000E+03 0.  0.
         25    1    1    2    0    0  0.27720374765E+02 -0.13229163915E+03  0.42118195471E+02  0.18886089949E+03  0.12500000000E+03 0.  0.
</event>
<event>
 5    0  0.5597833E-005  0.3509188E+03  0.7546771E-02  0.1062239E+00
         21   -1    0    0  502  501  0.00000000000E+00  0.00000000000E+00  0.16305462295E+03  0.16305462295E+03  0.00000000000E+00 0. -1.
         21   -1    0    0  501  502 -0.00000000000E+00 -0.00000000000E+00 -0.75523171249E+03  0.75523171249E+03  0.00000000000E+00 0. -1.
         25    1    1    2    0    0  0.15309673177E+03 -0.17179014561E+03 -0.74732222442E+02  0.27232401378E+03  0.12500000000E+03 0.  0.
         25    1    1    2    0    0 -0.17388691527E+03  0.10818656011E+03 -0.37343923770E+03  0.44387256656E+03  0.12500000000E+03 0.  0.
         25    1    1    2    0    0  0.20790183497E+02  0.63603585501E+02 -0.14400562939E+03  0.20208975510E+03  0.12500000000E+03 0.  0.
</event>
<event>
 5    0  0.5597833E-005  0.2920953E+03  0.7546771E-02  0.1089260E+00
         21   -1    0    0  502  501  0.00000000000E+00  0.00000000000E+00  0.93940615911E+02  0.93940615911E+02  0.00000000000E+00 0.  1.
         21   -1    0    0  501  502 -0.00000000000E+00 -0.00000000000E+00 -0.90822949972E+03  0.90822949972E+03  0.00000000000E+00 0.  1.
         25    1    1    2    0    0 -0.13353553787E+03  0.55214483008E+02 -0.52974639269E+03  0.56314884318E+03  0.12500000000E+03 0.  0.
         25    1    1    2    0    0  0.58758455910E+02 -0.10856964542E+03 -0.11921863633E+03  0.21231581970E+03  0.12500000000E+03 0.  0.
         25    1    1    2    0    0  0.74777081959E+02  0.53355162412E+02 -0.16532385479E+03  0.22670545275E+03  0.12500000000E+03 0.  0.
</event>
<event>
 5    0  0.5597833E-005  0.8673542E+03  0.7546771E-02  0.9467336E-01
         21   -1    0    0  502  501  0.00000000000E+00  0.00000000000E+00  0.28608101759E+04  0.28608101759E+04  0.00000000000E+00 0.  1.
         21   -1    0    0  501  502 -0.00000000000E+00 -0.00000000000E+00 -0.26296859847E+03  0.26296859847E+03  0.00000000000E+00 0.  1.
         25    1    1    2    0    0  0.37843901188E+02  0.14124546044E+03  0.44282246135E+02  0.19740404827E+03  0.12500000000E+03 0.  0.
         25    1    1    2    0    0 -0.71278425947E+02 -0.18648792293E+03  0.27089461074E+04  0.27191675881E+04  0.12500000000E+03 0.  0.
         25    1    1    2    0    0  0.33434524759E+02  0.45242462497E+02 -0.15538677609E+03  0.20720713801E+03  0.12500000000E+03 0.  0.
</event>
<event>
 5    0  0.5597833E-005  0.5112180E+03  0.7546771E-02  0.1010892E+00
         21   -1    0    0  502  501  0.00000000000E+00  0.00000000000E+00  0.46921692419E+03  0.46921692419E+03  0.00000000000E+00 0. -1.
         21   -1    0    0  501  502 -0.00000000000E+00 -0.00000000000E+00 -0.55697873121E+03  0.55697873121E+03  0.00000000000E+00 0. -1.
         25    1    1    2    0    0  0.80801077476E+02 -0.30863826469E+03  0.19995978181E+03  0.39673077382E+03  0.12500000000E+03 0.  0.
         25    1    1    2    0    0 -0.21042670430E+03  0.27601494749E+03 -0.24079854443E+03  0.44053670462E+03  0.12500000000E+03 0.  0.
         25    1    1    2    0    0  0.12962562682E+03  0.32623317194E+02 -0.46923044405E+02  0.18892817696E+03  0.12500000000E+03 0.  0.
</event>
<event>
 5    0  0.5597833E-005  0.3839326E+03  0.7546771E-02  0.1049490E+00
         21   -1    0    0  502  501  0.00000000000E+00  0.00000000000E+00  0.58569224122E+03  0.58569224122E+03  0.00000000000E+00 0. -1.
         21   -1    0    0  501  502 -0.00000000000E+00 -0.00000000000E+00 -0.25167523593E+03  0.25167523593E+03  0.00000000000E+00 0. -1.
         25    1    1    2    0    0  0.10744881695E+03  0.13746624086E+03 -0.61919286550E+02  0.22338579563E+03  0.12500000000E+03 0.  0.
         25    1    1    2    0    0  0.49356305011E+02 -0.18609510790E+03  0.93501193316E+02  0.24786066081E+03  0.12500000000E+03 0.  0.
         25    1    1    2    0    0 -0.15680512196E+03  0.48628867036E+02  0.30243509852E+03  0.36612102070E+03  0.12500000000E+03 0.  0.
</event>
<event>
 5    0  0.5597833E-005  0.4626544E+03  0.7546771E-02  0.1024014E+00
         21   -1    0    0  502  501  0.00000000000E+00  0.00000000000E+00  0.54781679256E+03  0.54781679256E+03  0.00000000000E+00 0. -1.
         21   -1    0    0  501  502 -0.00000000000E+00 -0.00000000000E+00 -0.39073116074E+03  0.39073116074E+03  0.00000000000E+00 0. -1.
         25    1    1    2    0    0  0.23626040662E+03 -0.10764377366E+03  0.36008929747E+03  0.46118918449E+03  0.12500000000E+03 0.  0.
         25    1    1    2    0    0 -0.19544903527E+03  0.13185817397E+03 -0.45415582166E+02  0.27069259047E+03  0.12500000000E+03 0.  0.
         25    1    1    2    0    0 -0.40811371349E+02 -0.24214400318E+02 -0.15758808348E+03  0.20666617834E+03  0.12500000000E+03 0.  0.
</event>
<event>
 5    0  0.5597833E-005  0.4584970E+03  0.7546771E-02  0.1025218E+00
         21   -1    0    0  502  501  0.00000000000E+00  0.00000000000E+00  0.30086896941E+03  0.30086896941E+03  0.00000000000E+00 0.  1.
         21   -1    0    0  501  502 -0.00000000000E+00 -0.00000000000E+00 -0.69870773185E+03  0.69870773185E+03  0.00000000000E+00 0.  1.
         25    1    1    2    0    0  0.11056772479E+03 -0.21424674549E+02 -0.17451703296E+03  0.24241582712E+03  0.12500000000E+03 0.  0.
         25    1    1    2    0    0 -0.27107122135E+03  0.11454796478E+03 -0.37047859825E+03  0.48936717814E+03  0.12500000000E+03 0.  0.
         25    1    1    2    0    0  0.16050349656E+03 -0.93123290229E+02  0.14715686877E+03  0.26779369600E+03  0.12500000000E+03 0.  0.
</event>
<event>
 5    0  0.6409373E-005  0.3739067E+03  0.7546771E-02  0.1053209E+00
         21   -1    0    0  502  501  0.00000000000E+00  0.00000000000E+00  0.19063091805E+03  0.19063091805E+03  0.00000000000E+00 0.  1.
         21   -1    0    0  501  502 -0.00000000000E+00 -0.00000000000E+00 -0.73338688833E+03  0.73338688833E+03  0.00000000000E+00 0.  1.
         25    1    1    2    0    0  0.19143008623E+03 -0.95771316010E+02 -0.10247834294E+03  0.26822459555E+03  0.12500000000E+03 0.  0.
         25    1    1    2    0    0 -0.10106830406E+03  0.13298237638E+03 -0.23631910338E+02  0.20995852376E+03  0.12500000000E+03 0.  0.
         25    1    1    2    0    0 -0.90361782173E+02 -0.37211060373E+02 -0.41664571701E+03  0.44583468707E+03  0.12500000000E+03 0.  0.
</event>
<event>
 5    0  0.5597833E-005  0.2486416E+03  0.7546771E-02  0.1114166E+00
         21   -1    0    0  502  501  0.00000000000E+00  0.00000000000E+00  0.17487537261E+04  0.17487537261E+04  0.00000000000E+00 0. -1.
         21   -1    0    0  501  502 -0.00000000000E+00 -0.00000000000E+00 -0.35352416472E+02  0.35352416472E+02  0.00000000000E+00 0. -1.
         25    1    1    2    0    0  0.40425951499E+00  0.59526392817E+02  0.59559913441E+03  0.61147925867E+03  0.12500000000E+03 0.  0.
         25    1    1    2    0    0 -0.70901425053E+02  0.53955429498E+02  0.69815841883E+03  0.71483451108E+03  0.12500000000E+03 0.  0.
         25    1    1    2    0    0  0.70497165538E+02 -0.11348182231E+03  0.41964375640E+03  0.45779237284E+03  0.12500000000E+03 0.  0.
</event>
<event>
 5    0  0.5597833E-005  0.4247046E+03  0.7546771E-02  0.1035546E+00
         21   -1    0    0  502  501  0.00000000000E+00  0.00000000000E+00  0.20251588550E+03  0.20251588550E+03  0.00000000000E+00 0. -1.
         21   -1    0    0  501  502 -0.00000000000E+00 -0.00000000000E+00 -0.89066581016E+03  0.89066581016E+03  0.00000000000E+00 0. -1.
         25    1    1    2    0    0 -0.86944248280E+02  0.16678185866E+02 -0.79209516306E+02  0.17244306790E+03  0.12500000000E+03 0.  0.
         25    1    1    2    0    0 -0.56251773416E+02  0.13233234469E+03  0.67766951572E+02  0.20222134207E+03  0.12500000000E+03 0.  0.
         25    1    1    2    0    0  0.14319602170E+03 -0.14901053056E+03 -0.67670735993E+03  0.71851728569E+03  0.12500000000E+03 0.  0.
</event>
<event>
 5    0  0.5597833E-005  0.3373640E+03  0.7546771E-02  0.1067924E+00
         21   -1    0    0  502  501  0.00000000000E+00  0.00000000000E+00  0.58572798346E+02  0.58572798346E+02  0.00000000000E+00 0. -1.
         21   -1    0    0  501  502 -0.00000000000E+00 -0.00000000000E+00 -0.19431286284E+04  0.19431286284E+04  0.00000000000E+00 0. -1.
         25    1    1    2    0    0  0.27459722461E+02  0.63497253412E+02 -0.68017557279E+03  0.69501780364E+03  0.12500000000E+03 0.  0.
         25    1    1    2    0    0  0.37356179655E+02 -0.96375913921E+01 -0.11318568530E+04  0.11393916373E+04  0.12500000000E+03 0.  0.
         25    1    1    2    0    0 -0.64815902116E+02 -0.53859662020E+02 -0.72523404204E+02  0.16729198581E+03  0.12500000000E+03 0.  0.
</event>
<event>
 5    0  0.5597833E-005  0.2689837E+03  0.7546771E-02  0.1101863E+00
         21   -1    0    0  502  501  0.00000000000E+00  0.00000000000E+00  0.36364928322E+03  0.36364928322E+03  0.00000000000E+00 0. -1.
         21   -1    0    0  501  502 -0.00000000000E+00 -0.00000000000E+00 -0.19896162146E+03  0.19896162146E+03  0.00000000000E+00 0. -1.
         25    1    1    2    0    0 -0.47637224159E+02  0.78545675724E+02  0.24001527312E+02  0.15697070304E+03  0.12500000000E+03 0.  0.
         25    1    1    2    0    0 -0.27715680375E+02 -0.41626668043E+02  0.20226954801E+03  0.24297923467E+03  0.12500000000E+03 0.  0.
         25    1    1    2    0    0  0.75352904534E+02 -0.36919007681E+02 -0.61583413557E+02  0.16266096697E+03  0.12500000000E+03 0.  0.
</event>
<event>
 5    0  0.5597833E-005  0.3517811E+03  0.7546771E-02  0.1061886E+00
         21   -1    0    0  502  501  0.00000000000E+00  0.00000000000E+00  0.73585334846E+03  0.73585334846E+03  0.00000000000E+00 0.  1.
         21   -1    0    0  501  502 -0.00000000000E+00 -0.00000000000E+00 -0.16817204102E+03  0.16817204102E+03  0.00000000000E+00 0.  1.
         25    1    1    2    0    0  0.16374337946E+03 -0.54445862682E+02  0.24969140788E+03  0.32824845080E+03  0.12500000000E+03 0.  0.
         25    1    1    2    0    0  0.67204961244E+02 -0.85548726557E+02  0.44451701524E+02  0.17156935973E+03  0.12500000000E+03 0.  0.
         25    1    1    2    0    0 -0.23094834071E+03  0.13999458924E+03  0.27353819804E+03  0.40420757895E+03  0.12500000000E+03 0.  0.
</event>
<event>
 5    0  0.5708552E-005  0.2721107E+03  0.7546771E-02  0.1100078E+00
         21   -1    0    0  502  501  0.00000000000E+00  0.00000000000E+00  0.14258887183E+03  0.14258887183E+03  0.00000000000E+00 0.  1.
         21   -1    0    0  501  502 -0.00000000000E+00 -0.00000000000E+00 -0.51928469466E+03  0.51928469466E+03  0.00000000000E+00 0.  1.
         25    1    1    2    0    0 -0.97859016512E+02  0.11363967783E+02 -0.21203343499E+03  0.26512016979E+03  0.12500000000E+03 0.  0.
         25    1    1    2    0    0  0.11281824891E+03  0.87234392666E+02 -0.39553013819E+02  0.19371948135E+03  0.12500000000E+03 0.  0.
         25    1    1    2    0    0 -0.14959232401E+02 -0.98598360449E+02 -0.12510937402E+03  0.20303391535E+03  0.12500000000E+03 0.  0.
</event>
<event>
 5    0  0.5597833E-005  0.3789927E+03  0.7546771E-02  0.1051307E+00
         21   -1    0    0  502  501  0.00000000000E+00  0.00000000000E+00  0.97482338050E+03  0.97482338050E+03  0.00000000000E+00 0.  1.
         21   -1    0    0  501  502 -0.00000000000E+00 -0.00000000000E+00 -0.14734509540E+03  0.14734509540E+03  0.00000000000E+00 0.  1.
         25    1    1    2    0    0 -0.39905199320E+01  0.92638520771E+02  0.18589766937E+03  0.24244744432E+03  0.12500000000E+03 0.  0.
         25    1    1    2    0    0  0.18012157296E+02  0.25987942056E+02 -0.70498568784E+02  0.14695189398E+03  0.12500000000E+03 0.  0.
         25    1    1    2    0    0 -0.14021637364E+02 -0.11862646283E+03  0.71207918452E+03  0.73276913761E+03  0.12500000000E+03 0.  0.
</event>
<event>
 5    0  0.5597833E-005  0.2186174E+03  0.7546771E-02  0.1134918E+00
         21   -1    0    0  502  501  0.00000000000E+00  0.00000000000E+00  0.72241725014E+03  0.72241725014E+03  0.00000000000E+00 0.  1.
         21   -1    0    0  501  502 -0.00000000000E+00 -0.00000000000E+00 -0.66157825761E+02  0.66157825761E+02  0.00000000000E+00 0.  1.
         25    1    1    2    0    0  0.27988884483E+02 -0.10426068521E+02  0.34702045740E+03  0.37005442629E+03  0.12500000000E+03 0.  0.
         25    1    1    2    0    0  0.35806748741E+02 -0.12453291795E+01  0.20716977674E+03  0.24459760934E+03  0.12500000000E+03 0.  0.
         25    1    1    2    0    0 -0.63795633224E+02  0.11671397700E+02  0.10206919024E+03  0.17392304028E+03  0.12500000000E+03 0.  0.
</event>
<event>
 5    0  0.5597833E-005  0.2896068E+03  0.7546771E-02  0.1090555E+00
         21   -1    0    0  502  501  0.00000000000E+00  0.00000000000E+00  0.22878786621E+03  0.22878786621E+03  0.00000000000E+00 0. -1.
         21   -1    0    0  501  502 -0.00000000000E+00 -0.00000000000E+00 -0.36659334815E+03  0.36659334815E+03  0.00000000000E+00 0. -1.
         25    1    1    2    0    0 -0.30866629887E+02 -0.16144648052E+03  0.24323272247E+02  0.20792868125E+03  0.12500000000E+03 0.  0.
         25    1    1    2    0    0 -0.39984735261E+02  0.87334877565E+02 -0.16163506253E+03  0.22578098532E+03  0.12500000000E+03 0.  0.
         25    1    1    2    0    0  0.70851365148E+02  0.74111602952E+02 -0.49369166210E+00  0.16167154780E+03  0.12500000000E+03 0.  0.
</event>
<event>
 5    0  0.5597833E-005  0.4755232E+03  0.7546771E-02  0.1020373E+00
         21   -1    0    0  502  501  0.00000000000E+00  0.00000000000E+00  0.32140777720E+03  0.32140777720E+03  0.00000000000E+00 0.  1.
         21   -1    0    0  501  502 -0.00000000000E+00 -0.00000000000E+00 -0.70353726357E+03  0.70353726357E+03  0.00000000000E+00 0.  1.
         25    1    1    2    0    0 -0.27863531115E+03  0.37323910963E+02 -0.17170389529E+03  0.35233214246E+03  0.12500000000E+03 0.  0.
         25    1    1    2    0    0  0.31783681687E+03  0.93058905197E+02 -0.30294704893E+03  0.46592071907E+03  0.12500000000E+03 0.  0.
         25    1    1    2    0    0 -0.39201505721E+02 -0.13038281616E+03  0.92521457844E+02  0.20669217925E+03  0.12500000000E+03 0.  0.
</event>
<event>
 5    0  0.5597833E-005  0.3779423E+03  0.7546771E-02  0.1051697E+00
         21   -1    0    0  502  501  0.00000000000E+00  0.00000000000E+00  0.47585215345E+02  0.47585215345E+02  0.00000000000E+00 0. -1.
         21   -1    0    0  501  502 -0.00000000000E+00 -0.00000000000E+00 -0.30017814031E+04  0.30017814031E+04  0.00000000000E+00 0. -1.
         25    1    1    2    0    0 -0.23840815195E+03 -0.18377614326E+03 -0.11137766330E+04  0.11604893390E+04  0.12500000000E+03 0.  0.
         25    1    1    2    0    0  0.88152107047E+02 -0.52701922235E+01 -0.64000780845E+03  0.65805285789E+03  0.12500000000E+03 0.  0.
         25    1    1    2    0    0  0.15025604490E+03  0.18904633548E+03 -0.12004117463E+04  0.12308244216E+04  0.12500000000E+03 0.  0.
</event>
<event>
 5    0  0.5597833E-005  0.2836167E+03  0.7546771E-02  0.1093730E+00
         21   -1    0    0  502  501  0.00000000000E+00  0.00000000000E+00  0.15004308608E+03  0.15004308608E+03  0.00000000000E+00 0. -1.
         21   -1    0    0  501  502 -0.00000000000E+00 -0.00000000000E+00 -0.53610222327E+03  0.53610222327E+03  0.00000000000E+00 0. -1.
         25    1    1    2    0    0  0.77698912888E+02  0.15307177682E+03 -0.16805771732E+03  0.27080710160E+03  0.12500000000E+03 0.  0.
         25    1    1    2    0    0  0.15451594935E+02 -0.15102459457E+03 -0.13679969094E+03  0.23955445183E+03  0.12500000000E+03 0.  0.
         25    1    1    2    0    0 -0.93150507823E+02 -0.20471822525E+01 -0.81201728936E+02  0.17578375592E+03  0.12500000000E+03 0.  0.
</event>
<event>
 5    0  0.5597833E-005  0.3368686E+03  0.7546771E-02  0.1068138E+00
         21   -1    0    0  502  501  0.00000000000E+00  0.00000000000E+00  0.13969647070E+04  0.13969647070E+04  0.00000000000E+00 0. -1.
         21   -1    0    0  501  502 -0.00000000000E+00 -0.00000000000E+00 -0.81233596359E+02  0.81233596359E+02  0.00000000000E+00 0. -1.
         25    1    1    2    0    0  0.38699380409E+02  0.15344871541E+03  0.77928936692E+03  0.80496028952E+03  0.12500000000E+03 0.  0.
         25    1    1    2    0    0  0.11056872688E+03 -0.64960378779E+02  0.33284057155E+03  0.37795917801E+03  0.12500000000E+03 0.  0.
         25    1    1    2    0    0 -0.14926810729E+03 -0.88488336632E+02  0.20360117214E+03  0.29527883580E+03  0.12500000000E+03 0.  0.
</event>
<event>
 5    0  0.5597833E-005  0.4796171E+03  0.7546771E-02  0.1019240E+00
         21   -1    0    0  502  501  0.00000000000E+00  0.00000000000E+00  0.27107612170E+03  0.27107612170E+03  0.00000000000E+00 0.  1.
         21   -1    0    0  501  502 -0.00000000000E+00 -0.00000000000E+00 -0.84859013846E+03  0.84859013846E+03  0.00000000000E+00 0.  1.
         25    1    1    2    0    0  0.14200632363E+03  0.97823115825E+02  0.63800730810E+00  0.21298019860E+03  0.12500000000E+03 0.  0.
         25    1    1    2    0    0 -0.16556440907E+03 -0.35039742284E+03 -0.27080050106E+03  0.48902744183E+03  0.12500000000E+03 0.  0.
         25    1    1    2    0    0  0.23558085444E+02  0.25257430701E+03 -0.30735152300E+03  0.41765861974E+03  0.12500000000E+03 0.  0.
</event>
<event>
 5    0  0.5628375E-005  0.2640745E+03  0.7546771E-02  0.1104720E+00
         21   -1    0    0  502  501  0.00000000000E+00  0.00000000000E+00  0.51964053070E+03  0.51964053070E+03  0.00000000000E+00 0. -1.
         21   -1    0    0  501  502 -0.00000000000E+00 -0.00000000000E+00 -0.13419923912E+03  0.13419923912E+03  0.00000000000E+00 0. -1.
         25    1    1    2    0    0 -0.19943048091E+02  0.94934289293E+02  0.15977246091E+03  0.22486103201E+03  0.12500000000E+03 0.  0.
         25    1    1    2    0    0  0.85082476446E+02  0.64395793189E+01  0.20399759426E+03  0.25400888655E+03  0.12500000000E+03 0.  0.
         25    1    1    2    0    0 -0.65139428355E+02 -0.10137386861E+03  0.21671236404E+02  0.17496985126E+03  0.12500000000E+03 0.  0.
</event>
<event>
 5    0  0.5597833E-005  0.3400776E+03  0.7546771E-02  0.1066763E+00
         21   -1    0    0  502  501  0.00000000000E+00  0.00000000000E+00  0.30753209811E+03  0.30753209811E+03  0.00000000000E+00 0. -1.
         21   -1    0    0  501  502 -0.00000000000E+00 -0.00000000000E+00 -0.37606735474E+03  0.37606735474E+03  0.00000000000E+00 0. -1.
         25    1    1    2    0    0 -0.14740997132E+03  0.15139771708E+03  0.57442060970E+02  0.25214194167E+03  0.12500000000E+03 0.  0.
         25    1    1    2    0    0 -0.53022790932E+02 -0.99409823491E+02 -0.28471341655E+02  0.17067321600E+03  0.12500000000E+03 0.  0.
         25    1    1    2    0    0  0.20043276225E+03 -0.51987893592E+02 -0.97505975945E+02  0.26078429517E+03  0.12500000000E+03 0.  0.
</event>
<event>
 5    0  0.6903651E-005  0.2883681E+03  0.7546771E-02  0.1091204E+00
         21   -1    0    0  502  501  0.00000000000E+00  0.00000000000E+00  0.41220090255E+03  0.41220090255E+03  0.00000000000E+00 0. -1.
         21   -1    0    0  501  502 -0.00000000000E+00 -0.00000000000E+00 -0.20173703639E+03  0.20173703639E+03  0.00000000000E+00 0. -1.
         25    1    1    2    0    0 -0.55788728434E+02  0.76331981152E+01 -0.55207802392E+02  0.14779563383E+03  0.12500000000E+03 0.  0.
         25    1    1    2    0    0 -0.66917411039E+02 -0.41378697891E+01  0.25354554641E+03  0.29052608484E+03  0.12500000000E+03 0.  0.
         25    1    1    2    0    0  0.12270613947E+03 -0.34953283262E+01  0.12126122142E+02  0.17561622027E+03  0.12500000000E+03 0.  0.
</event>
<event>
 5    0  0.5597833E-005  0.2873585E+03  0.7546771E-02  0.1091736E+00
         21   -1    0    0  502  501  0.00000000000E+00  0.00000000000E+00  0.39605063197E+03  0.39605063197E+03  0.00000000000E+00 0.  1.
         21   -1    0    0  501  502 -0.00000000000E+00 -0.00000000000E+00 -0.20849588283E+03  0.20849588283E+03  0.00000000000E+00 0.  1.
         25    1    1    2    0    0 -0.26866883997E+02  0.46680649025E+02  0.10731392332E+03  0.17332683170E+03  0.12500000000E+03 0.  0.
         25    1    1    2    0    0  0.16046523524E+03 -0.55657025991E+01  0.12449795260E+03  0.23854728874E+03  0.12500000000E+03 0.  0.
         25    1    1    2    0    0 -0.13359835124E+03 -0.41114946426E+02 -0.44257126780E+02  0.19267239435E+03  0.12500000000E+03 0.  0.
</event>
<event>
 5    0  0.5597833E-005  0.2816931E+03  0.7546771E-02  0.1094768E+00
         21   -1    0    0  502  501  0.00000000000E+00  0.00000000000E+00  0.25940151431E+03  0.25940151431E+03  0.00000000000E+00 0. -1.
         21   -1    0    0  501  502 -0.00000000000E+00 -0.00000000000E+00 -0.30590029366E+03  0.30590029366E+03  0.00000000000E+00 0. -1.
         25    1    1    2    0    0  0.55952959639E+02  0.14622971385E+03  0.10695881985E+03  0.22711022004E+03  0.12500000000E+03 0.  0.
         25    1    1    2    0    0 -0.56681941372E+02 -0.61779906643E+02 -0.76196637602E+02  0.16870248049E+03  0.12500000000E+03 0.  0.
         25    1    1    2    0    0  0.72898173282E+00 -0.84449807203E+02 -0.77260961599E+02  0.16948910743E+03  0.12500000000E+03 0.  0.
</event>
<event>
 5    0  0.5597833E-005  0.5908922E+03  0.7546771E-02  0.9924484E-01
         21   -1    0    0  502  501  0.00000000000E+00  0.00000000000E+00  0.29021596207E+03  0.29021596207E+03  0.00000000000E+00 0.  1.
         21   -1    0    0  501  502 -0.00000000000E+00 -0.00000000000E+00 -0.12030818949E+04  0.12030818949E+04  0.00000000000E+00 0.  1.
         25    1    1    2    0    0  0.14911427560E+02 -0.14812480781E+03  0.17950415920E+03  0.26459412792E+03  0.12500000000E+03 0.  0.
         25    1    1    2    0    0 -0.21883051477E+03  0.93513281481E+02 -0.81606956283E+03  0.85920082599E+03  0.12500000000E+03 0.  0.
         25    1    1    2    0    0  0.20391908720E+03  0.54611526330E+02 -0.27630052919E+03  0.36950290306E+03  0.12500000000E+03 0.  0.
</event>
<event>
 5    0  0.5628974E-005  0.3231312E+03  0.7546771E-02  0.1074217E+00
         21   -1    0    0  502  501  0.00000000000E+00  0.00000000000E+00  0.51845185478E+03  0.51845185478E+03  0.00000000000E+00 0.  1.
         21   -1    0    0  501  502 -0.00000000000E+00 -0.00000000000E+00 -0.20139527631E+03  0.20139527631E+03  0.00000000000E+00 0.  1.
         25    1    1    2    0    0  0.15435073420E+03 -0.18435897192E+03  0.14639632043E+03  0.30800854259E+03  0.12500000000E+03 0.  0.
         25    1    1    2    0    0 -0.12125668882E+03  0.52349038875E+02  0.41895145952E+02  0.18661138687E+03  0.12500000000E+03 0.  0.
         25    1    1    2    0    0 -0.33094045384E+02  0.13200993304E+03  0.12876511210E+03  0.22522720163E+03  0.12500000000E+03 0.  0.
</event>
<event>
 5    0  0.5597833E-005  0.2100020E+03  0.7546771E-02  0.1141564E+00
         21   -1    0    0  502  501  0.00000000000E+00  0.00000000000E+00  0.52758563181E+03  0.52758563181E+03  0.00000000000E+00 0.  1.
         21   -1    0    0  501  502 -0.00000000000E+00 -0.00000000000E+00 -0.83589938779E+02  0.83589938779E+02  0.00000000000E+00 0.  1.
         25    1    1    2    0    0 -0.49759850630E+02  0.50849044646E+01  0.10224369310E+03  0.16905819047E+03  0.12500000000E+03 0.  0.
         25    1    1    2    0    0  0.83915240781E+01 -0.49920063160E+02  0.12092354283E+03  0.18113512523E+03  0.12500000000E+03 0.  0.
         25    1    1    2    0    0  0.41368326552E+02  0.44835158695E+02  0.22082845711E+03  0.26098225489E+03  0.12500000000E+03 0.  0.
</event>
<event>
 5    0  0.5597833E-005  0.2900209E+03  0.7546771E-02  0.1090338E+00
         21   -1    0    0  502  501  0.00000000000E+00  0.00000000000E+00  0.17265749770E+04  0.17265749770E+04  0.00000000000E+00 0.  1.
         21   -1    0    0  501  502 -0.00000000000E+00 -0.00000000000E+00 -0.48716155352E+02  0.48716155352E+02  0.00000000000E+00 0.  1.
         25    1    1    2    0    0 -0.54529035541E+02  0.31840688522E+02  0.57881129188E+03  0.59551218021E+03  0.12500000000E+03 0.  0.
         25    1    1    2    0    0  0.63836719494E+02 -0.45283592590E+02  0.11323317983E+03  0.18593677293E+03  0.12500000000E+03 0.  0.
         25    1    1    2    0    0 -0.93076839527E+01  0.13442904069E+02  0.98581434991E+03  0.99384217919E+03  0.12500000000E+03 0.  0.
</event>
<event>
 5    0  0.5597833E-005  0.4043779E+03  0.7546771E-02  0.1042274E+00
         21   -1    0    0  502  501  0.00000000000E+00  0.00000000000E+00  0.44431671704E+03  0.44431671704E+03  0.00000000000E+00 0. -1.
         21   -1    0    0  501  502 -0.00000000000E+00 -0.00000000000E+00 -0.36802911886E+03  0.36802911886E+03  0.00000000000E+00 0. -1.
         25    1    1    2    0    0 -0.15321895581E+03 -0.49376487643E+02 -0.11435295528E+03  0.23369998787E+03  0.12500000000E+03 0.  0.
         25    1    1    2    0    0  0.99981916888E+02  0.69953078433E+02 -0.13788035216E+03  0.22254394712E+03  0.12500000000E+03 0.  0.
         25    1    1    2    0    0  0.53237038919E+02 -0.20576590790E+02  0.32852090562E+03  0.35610190091E+03  0.12500000000E+03 0.  0.
</event>
<event>
 5    0  0.5597833E-005  0.2148877E+03  0.7546771E-02  0.1137753E+00
         21   -1    0    0  502  501  0.00000000000E+00  0.00000000000E+00  0.10326193875E+03  0.10326193875E+03  0.00000000000E+00 0. -1.
         21   -1    0    0  501  502 -0.00000000000E+00 -0.00000000000E+00 -0.44718041078E+03  0.44718041078E+03  0.00000000000E+00 0. -1.
         25    1    1    2    0    0  0.20083502527E+02  0.17908146122E+02 -0.16396302062E+03  0.20792527721E+03  0.12500000000E+03 0.  0.
         25    1    1    2    0    0 -0.14816947709E+01 -0.50308695650E+02 -0.16216614217E+03  0.21084595785E+03  0.12500000000E+03 0.  0.
         25    1    1    2    0    0 -0.18601807756E+02  0.32400549528E+02 -0.17789309245E+02  0.13167111447E+03  0.12500000000E+03 0.  0.
</event>
<event>
 5    0  0.5597833E-005  0.2385449E+03  0.7546771E-02  0.1120766E+00
         21   -1    0    0  502  501  0.00000000000E+00  0.00000000000E+00  0.33496425900E+02  0.33496425900E+02  0.00000000000E+00 0.  1.
         21   -1    0    0  501  502 -0.00000000000E+00 -0.00000000000E+00 -0.16987979916E+04  0.16987979916E+04  0.00000000000E+00 0.  1.
         25    1    1    2    0    0  0.77482436413E+02 -0.62788093841E+02 -0.54719687286E+03  0.57008358190E+03  0.12500000000E+03 0.  0.
         25    1    1    2    0    0  0.73208043528E+01 -0.40739793714E+02 -0.39953532288E+03  0.42067421979E+03  0.12500000000E+03 0.  0.
         25    1    1    2    0    0 -0.84803240766E+02  0.10352788756E+03 -0.71856936998E+03  0.74153661583E+03  0.12500000000E+03 0.  0.
</event>
<event>
 5    0  0.5597833E-005  0.3745835E+03  0.7546771E-02  0.1052954E+00
         21   -1    0    0  502  501  0.00000000000E+00  0.00000000000E+00  0.19297681251E+03  0.19297681251E+03  0.00000000000E+00 0.  1.
         21   -1    0    0  501  502 -0.00000000000E+00 -0.00000000000E+00 -0.72709662662E+03  0.72709662662E+03  0.00000000000E+00 0.  1.
         25    1    1    2    0    0  0.30485894362E+02  0.13567233649E+03  0.21739091150E+02  0.18823910520E+03  0.12500000000E+03 0.  0.
         25    1    1    2    0    0 -0.57010655357E+02  0.64288563155E+02 -0.44456289390E+03  0.46972800726E+03  0.12500000000E+03 0.  0.
         25    1    1    2    0    0  0.26524760995E+02 -0.19996089964E+03 -0.11129601136E+03  0.26210632666E+03  0.12500000000E+03 0.  0.
</event>
<event>
 5    0  0.5597833E-005  0.2550633E+03  0.7546771E-02  0.1110146E+00
         21   -1    0    0  502  501  0.00000000000E+00  0.00000000000E+00  0.53998173011E+02  0.53998173011E+02  0.00000000000E+00 0.  1.
         21   -1    0    0  501  502 -0.00000000000E+00 -0.00000000000E+00 -0.12048053127E+04  0.12048053127E+04  0.00000000000E+00 0.  1.
         25    1    1    2    0    0  0.98692842031E+02 -0.29829442931E+02 -0.54828461310E+03  0.57172641158E+03  0.12500000000E+03 0.  0.
         25    1    1    2    0    0  0.27046261005E+02 -0.23555989428E+02 -0.15230702547E+03  0.20027185244E+03  0.12500000000E+03 0.  0.
         25    1    1    2    0    0 -0.12573910304E+03  0.53385432359E+02 -0.45021550113E+03  0.48680522170E+03  0.12500000000E+03 0.  0.
</event>
<event>
 5    0  0.5597833E-005  0.2380568E+03  0.7546771E-02  0.1121094E+00
         21   -1    0    0  502  501  0.00000000000E+00  0.00000000000E+00  0.68274331595E+02  0.68274331595E+02  0.00000000000E+00 0.  1.
         21   -1    0    0  501  502 -0.00000000000E+00 -0.00000000000E+00 -0.83004873047E+03  0.83004873047E+03  0.00000000000E+00 0.  1.
         25    1    1    2    0    0 -0.47918624381E+02 -0.10924276053E+03 -0.31163070463E+03  0.35632691642E+03  0.12500000000E+03 0.  0.
         25    1    1    2    0    0 -0.18876237836E+02  0.35697813102E+02 -0.27638845402E+03  0.30601670499E+03  0.12500000000E+03 0.  0.
         25    1    1    2    0    0  0.66794862217E+02  0.73544947431E+02 -0.17375524022E+03  0.23597944066E+03  0.12500000000E+03 0.  0.
</event>
<event>
 5    0  0.5597833E-005  0.3355926E+03  0.7546771E-02  0.1068689E+00
         21   -1    0    0  502  501  0.00000000000E+00  0.00000000000E+00  0.55913480320E+03  0.55913480320E+03  0.00000000000E+00 0.  1.
         21   -1    0    0  501  502 -0.00000000000E+00 -0.00000000000E+00 -0.20142263347E+03  0.20142263347E+03  0.00000000000E+00 0.  1.
         25    1    1    2    0    0 -0.58221226275E+02 -0.18527090618E+03  0.10275205566E+03  0.25278054674E+03  0.12500000000E+03 0.  0.
         25    1    1    2    0    0  0.48290008630E+02  0.25291249013E+03  0.11623526081E+03  0.30892116867E+03  0.12500000000E+03 0.  0.
         25    1    1    2    0    0  0.99312176451E+01 -0.67641583954E+02  0.13872485326E+03  0.19885572126E+03  0.12500000000E+03 0.  0.
</event>
<event>
 5    0  0.5597833E-005  0.3271018E+03  0.7546771E-02  0.1072426E+00
         21   -1    0    0  502  501  0.00000000000E+00  0.00000000000E+00  0.10621164439E+03  0.10621164439E+03  0.00000000000E+00 0.  1.
         21   -1    0    0  501  502 -0.00000000000E+00 -0.00000000000E+00 -0.10073809664E+04  0.10073809664E+04  0.00000000000E+00 0.  1.
         25    1    1    2    0    0 -0.90868902755E+02  0.19298577856E+03 -0.43199246569E+03  0.49773804218E+03  0.12500000000E+03 0.  0.
         25    1    1    2    0    0 -0.65451107798E+00 -0.35110970469E+01 -0.27953705224E+03  0.30623311344E+03  0.12500000000E+03 0.  0.
         25    1    1    2    0    0  0.91523413833E+02 -0.18947468152E+03 -0.18963980407E+03  0.30962145517E+03  0.12500000000E+03 0.  0.
</event>
<event>
 5    0  0.5597833E-005  0.3124367E+03  0.7546771E-02  0.1079184E+00
         21   -1    0    0  502  501  0.00000000000E+00  0.00000000000E+00  0.11597057913E+04  0.11597057913E+04  0.00000000000E+00 0.  1.
         21   -1    0    0  501  502 -0.00000000000E+00 -0.00000000000E+00 -0.84173669087E+02  0.84173669087E+02  0.00000000000E+00 0.  1.
         25    1    1    2    0    0 -0.14242484630E+03  0.69805027222E+02  0.13406331673E+03  0.24239544460E+03  0.12500000000E+03 0.  0.
         25    1    1    2    0    0  0.49147281451E+02 -0.48722133174E+02  0.21488622060E+03  0.25805113706E+03  0.12500000000E+03 0.  0.
         25    1    1    2    0    0  0.93277564847E+02 -0.21082894048E+02  0.72658258491E+03  0.74343287876E+03  0.12500000000E+03 0.  0.
</event>
<event>
 5    0  0.5597833E-005  0.2968464E+03  0.7546771E-02  0.1086828E+00
         21   -1    0    0  502  501  0.00000000000E+00  0.00000000000E+00  0.53063946662E+03  0.53063946662E+03  0.00000000000E+00 0. -1.
         21   -1    0    0  501  502 -0.00000000000E+00 -0.00000000000E+00 -0.16605958257E+03  0.16605958257E+03  0.00000000000E+00 0.  1.
         25    1    1    2    0    0  0.54662551486E+02 -0.26552162231E+02 -0.40805363486E+02  0.14485540909E+03  0.12500000000E+03 0.  0.
         25    1    1    2    0    0 -0.23810182518E+02 -0.11123526770E+03  0.27426666170E+03  0.32216053652E+03  0.12500000000E+03 0.  0.
         25    1    1    2    0    0 -0.30852368967E+02  0.13778742993E+03  0.13111858585E+03  0.22968310358E+03  0.12500000000E+03 0.  0.
</event>
<event>
 5    0  0.5597833E-005  0.3154411E+03  0.7546771E-02  0.1077767E+00
         21   -1    0    0  502  501  0.00000000000E+00  0.00000000000E+00  0.67827637095E+02  0.67827637095E+02  0.00000000000E+00 0. -1.
         21   -1    0    0  501  502 -0.00000000000E+00 -0.00000000000E+00 -0.14669995554E+04  0.14669995554E+04  0.00000000000E+00 0. -1.
         25    1    1    2    0    0  0.34939574582E+02 -0.62619541839E+02 -0.86887407470E+03  0.88074351464E+03  0.12500000000E+03 0.  0.
         25    1    1    2    0    0  0.36255201811E+00  0.15651488078E+03 -0.18183407289E+03  0.27052850019E+03  0.12500000000E+03 0.  0.
         25    1    1    2    0    0 -0.35302126600E+02 -0.93895338939E+02 -0.34846377070E+03  0.38355517766E+03  0.12500000000E+03 0.  0.
</event>
<event>
 5    0  0.5597833E-005  0.2732163E+03  0.7546771E-02  0.1099453E+00
         21   -1    0    0  502  501  0.00000000000E+00  0.00000000000E+00  0.76000524749E+02  0.76000524749E+02  0.00000000000E+00 0. -1.
         21   -1    0    0  501  502 -0.00000000000E+00 -0.00000000000E+00 -0.98219272555E+03  0.98219272555E+03  0.00000000000E+00 0. -1.
         25    1    1    2    0    0 -0.17354853281E+02  0.16968082866E+02 -0.43386097142E+03  0.45216086661E+03  0.12500000000E+03 0.  0.
         25    1    1    2    0    0  0.10370105674E+03 -0.10511318501E+03 -0.31797123399E+03  0.37220074755E+03  0.12500000000E+03 0.  0.
         25    1    1    2    0    0 -0.86346203461E+02  0.88145102143E+02 -0.15435999539E+03  0.23383163614E+03  0.12500000000E+03 0.  0.
</event>
<event>
 5    0  0.5597833E-005  0.4144106E+03  0.7546771E-02  0.1038901E+00
         21   -1    0    0  502  501  0.00000000000E+00  0.00000000000E+00  0.98189961073E+02  0.98189961073E+02  0.00000000000E+00 0.  1.
         21   -1    0    0  501  502 -0.00000000000E+00 -0.00000000000E+00 -0.17490190813E+04  0.17490190813E+04  0.00000000000E+00 0.  1.
         25    1    1    2    0    0 -0.12586880803E+03 -0.88736718117E+02 -0.47787034413E+03  0.51739948567E+03  0.12500000000E+03 0.  0.
         25    1    1    2    0    0  0.78152433126E+02 -0.15896437007E+03 -0.13742000530E+03  0.25668410861E+03  0.12500000000E+03 0.  0.
         25    1    1    2    0    0  0.47716374900E+02  0.24770108819E+03 -0.10355387708E+04  0.10731254481E+04  0.12500000000E+03 0.  0.
</event>
<event>
 5    0  0.5836362E-005  0.2502659E+03  0.7546771E-02  0.1113137E+00
         21   -1    0    0  502  501  0.00000000000E+00  0.00000000000E+00  0.44560705939E+03  0.44560705939E+03  0.00000000000E+00 0.  1.
         21   -1    0    0  501  502 -0.00000000000E+00 -0.00000000000E+00 -0.14055664504E+03  0.14055664504E+03  0.00000000000E+00 0.  1.
         25    1    1    2    0    0  0.40142262121E+02 -0.73018413932E+02  0.11708426264E+03  0.19046473306E+03  0.12500000000E+03 0.  0.
         25    1    1    2    0    0 -0.12377856004E+02  0.40237005032E+01  0.21377050251E+03  0.24797626747E+03  0.12500000000E+03 0.  0.
         25    1    1    2    0    0 -0.27764406117E+02  0.68994713429E+02 -0.25804350795E+02  0.14772270390E+03  0.12500000000E+03 0.  0.
</event>
<event>
 5    0  0.5597833E-005  0.5413914E+03  0.7546771E-02  0.1003506E+00
         21   -1    0    0  502  501  0.00000000000E+00  0.00000000000E+00  0.26444390971E+03  0.26444390971E+03  0.00000000000E+00 0. -1.
         21   -1    0    0  501  502 -0.00000000000E+00 -0.00000000000E+00 -0.11083811510E+04  0.11083811510E+04  0.00000000000E+00 0. -1.
         25    1    1    2    0    0 -0.25253112978E+02 -0.50180482963E+02  0.12831899460E+02  0.13764250154E+03  0.12500000000E+03 0.  0.
         25    1    1    2    0    0 -0.17501256002E+03 -0.23254276995E+03 -0.80266673294E+03  0.86290464143E+03  0.12500000000E+03 0.  0.
         25    1    1    2    0    0  0.20026567300E+03  0.28272325291E+03 -0.54102407822E+02  0.37227791776E+03  0.12500000000E+03 0.  0.
</event>
<event>
 5    0  0.5597833E-005  0.3735571E+03  0.7546771E-02  0.1053341E+00
         21   -1    0    0  502  501  0.00000000000E+00  0.00000000000E+00  0.31213840603E+03  0.31213840603E+03  0.00000000000E+00 0.  1.
         21   -1    0    0  501  502 -0.00000000000E+00 -0.00000000000E+00 -0.44706100287E+03  0.44706100287E+03  0.00000000000E+00 0.  1.
         25    1    1    2    0    0  0.16434723976E+03  0.32188446442E+02 -0.12263626241E+03  0.24230304199E+03  0.12500000000E+03 0.  0.
         25    1    1    2    0    0 -0.53761186987E+02 -0.19813061159E+03  0.94736430981E+02  0.25835246434E+03  0.12500000000E+03 0.  0.
         25    1    1    2    0    0 -0.11058605277E+03  0.16594216515E+03 -0.10702276541E+03  0.25854390257E+03  0.12500000000E+03 0.  0.
</event>
<event>
 5    0  0.5597833E-005  0.3044389E+03  0.7546771E-02  0.1083042E+00
         21   -1    0    0  502  501  0.00000000000E+00  0.00000000000E+00  0.17441535409E+03  0.17441535409E+03  0.00000000000E+00 0.  1.
         21   -1    0    0  501  502 -0.00000000000E+00 -0.00000000000E+00 -0.53139257266E+03  0.53139257266E+03  0.00000000000E+00 0.  1.
         25    1    1    2    0    0  0.61132904611E+02  0.83625979211E+02 -0.11853303311E+02  0.16277603394E+03  0.12500000000E+03 0.  0.
         25    1    1    2    0    0  0.72651578624E+02 -0.15561837343E+03 -0.23805183958E+03  0.31904389722E+03  0.12500000000E+03 0.  0.
         25    1    1    2    0    0 -0.13378448323E+03  0.71992394224E+02 -0.10707207568E+03  0.22398799560E+03  0.12500000000E+03 0.  0.
</event>
<event>
 5    0  0.5597833E-005  0.3854637E+03  0.7546771E-02  0.1048933E+00
         21   -1    0    0  502  501  0.00000000000E+00  0.00000000000E+00  0.19913039988E+03  0.19913039988E+03  0.00000000000E+00 0. -1.
         21   -1    0    0  501  502 -0.00000000000E+00 -0.00000000000E+00 -0.74615564499E+03  0.74615564499E+03  0.00000000000E+00 0. -1.
         25    1    1    2    0    0 -0.81580778920E+02  0.45746248704E+02 -0.15537093717E+03  0.22025728337E+03  0.12500000000E+03 0.  0.
         25    1    1    2    0    0  0.11117038055E+03  0.21807028641E+03 -0.32218946508E+03  0.42349091458E+03  0.12500000000E+03 0.  0.
         25    1    1    2    0    0 -0.29589601630E+02 -0.26381653512E+03 -0.69464842867E+02  0.30153784691E+03  0.12500000000E+03 0.  0.
</event>
<event>
 5    0  0.5597833E-005  0.2635100E+03  0.7546771E-02  0.1105053E+00
         21   -1    0    0  502  501  0.00000000000E+00  0.00000000000E+00  0.13255650263E+04  0.13255650263E+04  0.00000000000E+00 0.  1.
         21   -1    0    0  501  502 -0.00000000000E+00 -0.00000000000E+00 -0.52383340957E+02  0.52383340957E+02  0.00000000000E+00 0.  1.
         25    1    1    2    0    0  0.81770911245E+02 -0.13359267325E+03  0.57648293169E+03  0.61032045255E+03  0.12500000000E+03 0.  0.
         25    1    1    2    0    0 -0.88050093681E+01  0.23527396379E+02  0.18582947386E+03  0.22536339527E+03  0.12500000000E+03 0.  0.
         25    1    1    2    0    0 -0.72965901877E+02  0.11006527687E+03  0.51086927974E+03  0.54226451939E+03  0.12500000000E+03 0.  0.
</event>
<event>
 5    0  0.5597833E-005  0.2088856E+03  0.7546771E-02  0.1142452E+00
         21   -1    0    0  502  501  0.00000000000E+00  0.00000000000E+00  0.52659017769E+03  0.52659017769E+03  0.00000000000E+00 0.  1.
         21   -1    0    0  501  502 -0.00000000000E+00 -0.00000000000E+00 -0.82859891020E+02  0.82859891020E+02  0.00000000000E+00 0.  1.
         25    1    1    2    0    0  0.26391362825E+02 -0.26348344016E+02  0.13871604150E+03  0.19041501893E+03  0.12500000000E+03 0.  0.
         25    1    1    2    0    0 -0.47484822631E+02  0.63763359136E+02  0.20671193614E+03  0.25431358377E+03  0.12500000000E+03 0.  0.
         25    1    1    2    0    0  0.21093459807E+02 -0.37415015120E+02  0.98302309030E+02  0.16472146601E+03  0.12500000000E+03 0.  0.
</event>
<event>
 5    0  0.5597833E-005  0.2814611E+03  0.7546771E-02  0.1094894E+00
         21   -1    0    0  502  501  0.00000000000E+00  0.00000000000E+00  0.30849319565E+03  0.30849319565E+03  0.00000000000E+00 0.  1.
         21   -1    0    0  501  502 -0.00000000000E+00 -0.00000000000E+00 -0.25679780435E+03  0.25679780435E+03  0.00000000000E+00 0.  1.
         25    1    1    2    0    0  0.12196144768E+03 -0.10605342978E+03  0.49641179061E+02  0.21026452708E+03  0.12500000000E+03 0.  0.
         25    1    1    2    0    0 -0.92385104471E+02 -0.32951310048E+02  0.35551141006E+02  0.16281793510E+03  0.12500000000E+03 0.  0.
         25    1    1    2    0    0 -0.29576343212E+02  0.13900473983E+03 -0.33496928768E+02  0.19220853782E+03  0.12500000000E+03 0.  0.
</event>
<event>
 5    0  0.5597833E-005  0.2631281E+03  0.7546771E-02  0.1105278E+00
         21   -1    0    0  502  501  0.00000000000E+00  0.00000000000E+00  0.45703477915E+02  0.45703477915E+02  0.00000000000E+00 0.  1.
         21   -1    0    0  501  502 -0.00000000000E+00 -0.00000000000E+00 -0.15149048241E+04  0.15149048241E+04  0.00000000000E+00 0.  1.
         25    1    1    2    0    0 -0.63233530180E+02 -0.70105117516E+02 -0.61539825568E+03  0.63502222003E+03  0.12500000000E+03 0.  0.
         25    1    1    2    0    0  0.13622171272E+03 -0.16775695081E+01 -0.34055269237E+03  0.38750523291E+03  0.12500000000E+03 0.  0.
         25    1    1    2    0    0 -0.72988182545E+02  0.71782687024E+02 -0.51325039816E+03  0.53808084909E+03  0.12500000000E+03 0.  0.
</event>
<event>
 5    0  0.5597833E-005  0.2553017E+03  0.7546771E-02  0.1109999E+00
         21   -1    0    0  502  501  0.00000000000E+00  0.00000000000E+00  0.14459729242E+03  0.14459729242E+03  0.00000000000E+00 0.  1.
         21   -1    0    0  501  502 -0.00000000000E+00 -0.00000000000E+00 -0.45076210721E+03  0.45076210721E+03  0.00000000000E+00 0.  1.
         25    1    1    2    0    0 -0.93650281542E+02 -0.36314000024E+02 -0.66748670124E+02  0.17369360033E+03  0.12500000000E+03 0.  0.
         25    1    1    2    0    0  0.94696844973E+02  0.11925473387E+03 -0.13158693025E+03  0.23691623880E+03  0.12500000000E+03 0.  0.
         25    1    1    2    0    0 -0.10465634309E+01 -0.82940733843E+02 -0.10782921441E+03  0.18474956050E+03  0.12500000000E+03 0.  0.
</event>
<event>
 5    0  0.5597833E-005  0.2266103E+03  0.7546771E-02  0.1129049E+00
         21   -1    0    0  502  501  0.00000000000E+00  0.00000000000E+00  0.25506587607E+02  0.25506587607E+02  0.00000000000E+00 0. -1.
         21   -1    0    0  501  502 -0.00000000000E+00 -0.00000000000E+00 -0.20132929957E+04  0.20132929957E+04  0.00000000000E+00 0. -1.
         25    1    1    2    0    0 -0.26583712819E+02  0.47949578402E+02 -0.92448421974E+03  0.93450624845E+03  0.12500000000E+03 0.  0.
         25    1    1    2    0    0  0.89253769827E+02 -0.30733311495E+02 -0.52604382580E+03  0.54886963709E+03  0.12500000000E+03 0.  0.
         25    1    1    2    0    0 -0.62670057007E+02 -0.17216266908E+02 -0.53725836251E+03  0.55542369771E+03  0.12500000000E+03 0.  0.
</event>
<event>
 5    0  0.5597833E-005  0.2662121E+03  0.7546771E-02  0.1103467E+00
         21   -1    0    0  502  501  0.00000000000E+00  0.00000000000E+00  0.97073653686E+02  0.97073653686E+02  0.00000000000E+00 0.  1.
         21   -1    0    0  501  502 -0.00000000000E+00 -0.00000000000E+00 -0.73005275378E+03  0.73005275378E+03  0.00000000000E+00 0.  1.
         25    1    1    2    0    0  0.31304703413E+02  0.98468507447E+02 -0.21602244714E+03  0.27012354411E+03  0.12500000000E+03 0.  0.
         25    1    1    2    0    0  0.78227055141E+02 -0.10293029851E+03 -0.31281065942E+03  0.36081799727E+03  0.12500000000E+03 0.  0.
         25    1    1    2    0    0 -0.10953175855E+03  0.44617910657E+01 -0.10414599353E+03  0.19618486608E+03  0.12500000000E+03 0.  0.
</event>
<event>
 5    0  0.5597833E-005  0.7048444E+03  0.7546771E-02  0.9708983E-01
         21   -1    0    0  502  501  0.00000000000E+00  0.00000000000E+00  0.41312673945E+03  0.41312673945E+03  0.00000000000E+00 0. -1.
         21   -1    0    0  501  502 -0.00000000000E+00 -0.00000000000E+00 -0.12025501720E+04  0.12025501720E+04  0.00000000000E+00 0. -1.
         25    1    1    2    0    0 -0.11296336535E+03 -0.44116045275E+02 -0.33699888669E+03  0.37934179442E+03  0.12500000000E+03 0.  0.
         25    1    1    2    0    0  0.33811402904E+03 -0.43576166742E+03 -0.67776345034E+02  0.56958577965E+03  0.12500000000E+03 0.  0.
         25    1    1    2    0    0 -0.22515066369E+03  0.47987771270E+03 -0.38464820081E+03  0.66674933737E+03  0.12500000000E+03 0.  0.
</event>
<event>
 5    0  0.5597833E-005  0.3065032E+03  0.7546771E-02  0.1082034E+00
         21   -1    0    0  502  501  0.00000000000E+00  0.00000000000E+00  0.32404112178E+03  0.32404112178E+03  0.00000000000E+00 0.  1.
         21   -1    0    0  501  502 -0.00000000000E+00 -0.00000000000E+00 -0.28991442601E+03  0.28991442601E+03  0.00000000000E+00 0.  1.
         25    1    1    2    0    0  0.13944401777E+02  0.11674053884E+03  0.76339905043E+02  0.18781794603E+03  0.12500000000E+03 0.  0.
         25    1    1    2    0    0  0.38190376176E+02 -0.81330470288E+02 -0.17508027169E+03  0.23313354920E+03  0.12500000000E+03 0.  0.
         25    1    1    2    0    0 -0.52134777953E+02 -0.35410068548E+02  0.13286706242E+03  0.19300405255E+03  0.12500000000E+03 0.  0.
</event>
<event>
 5    0  0.5597833E-005  0.4035400E+03  0.7546771E-02  0.1042561E+00
         21   -1    0    0  502  501  0.00000000000E+00  0.00000000000E+00  0.25000574242E+03  0.25000574242E+03  0.00000000000E+00 0.  1.
         21   -1    0    0  501  502 -0.00000000000E+00 -0.00000000000E+00 -0.65136326380E+03  0.65136326380E+03  0.00000000000E+00 0.  1.
         25    1    1    2    0    0  0.19314495684E+03 -0.24848871203E+02 -0.24945857276E+03  0.34026022436E+03  0.12500000000E+03 0.  0.
         25    1    1    2    0    0 -0.89747265370E+02 -0.15993932763E+03 -0.21312930399E+03  0.30770807656E+03  0.12500000000E+03 0.  0.
         25    1    1    2    0    0 -0.10339769147E+03  0.18478819884E+03  0.61230355371E+02  0.25340070531E+03  0.12500000000E+03 0.  0.
</event>
<event>
 5    0  0.5597833E-005  0.3632948E+03  0.7546771E-02  0.1057287E+00
         21   -1    0    0  502  501  0.00000000000E+00  0.00000000000E+00  0.13991463320E+03  0.13991463320E+03  0.00000000000E+00 0.  1.
         21   -1    0    0  501  502 -0.00000000000E+00 -0.00000000000E+00 -0.94331156732E+03  0.94331156732E+03  0.00000000000E+00 0.  1.
         25    1    1    2    0    0 -0.15621729197E+03 -0.24938640599E+02 -0.74414138352E+02  0.21491449949E+03  0.12500000000E+03 0.  0.
         25    1    1    2    0    0  0.22480629425E+03 -0.84116131421E+02 -0.55914566727E+03  0.62119422947E+03  0.12500000000E+03 0.  0.
         25    1    1    2    0    0 -0.68589002274E+02  0.10905477202E+03 -0.16983712850E+03  0.24711747156E+03  0.12500000000E+03 0.  0.
</event>
<event>
 5    0  0.5597833E-005  0.2546612E+03  0.7546771E-02  0.1110394E+00
         21   -1    0    0  502  501  0.00000000000E+00  0.00000000000E+00  0.37964662917E+03  0.37964662917E+03  0.00000000000E+00 0. -1.
         21   -1    0    0  501  502 -0.00000000000E+00 -0.00000000000E+00 -0.17082282415E+03  0.17082282415E+03  0.00000000000E+00 0. -1.
         25    1    1    2    0    0 -0.61949346910E+02 -0.82371919357E+02  0.29903120788E+02  0.16474844859E+03  0.12500000000E+03 0.  0.
         25    1    1    2    0    0  0.12332388105E+03  0.19974644637E+01  0.12715157942E+03  0.21680704244E+03  0.12500000000E+03 0.  0.
         25    1    1    2    0    0 -0.61374534141E+02  0.80374454894E+02  0.51769104814E+02  0.16891396228E+03  0.12500000000E+03 0.  0.
</event>
<event>
 5    0  0.6230349E-005  0.2887651E+03  0.7546771E-02  0.1090996E+00
         21   -1    0    0  502  501  0.00000000000E+00  0.00000000000E+00  0.68370627967E+03  0.68370627967E+03  0.00000000000E+00 0.  1.
         21   -1    0    0  501  502 -0.00000000000E+00 -0.00000000000E+00 -0.12196065112E+03  0.12196065112E+03  0.00000000000E+00 0.  1.
         25    1    1    2    0    0 -0.70949800074E+02 -0.39353276930E+02  0.39204957946E+02  0.15409277486E+03  0.12500000000E+03 0.  0.
         25    1    1    2    0    0  0.13139746348E+03  0.12949828959E+03  0.27849121465E+03  0.35667556274E+03  0.12500000000E+03 0.  0.
         25    1    1    2    0    0 -0.60447663404E+02 -0.90145012664E+02  0.24404945595E+03  0.29489859319E+03  0.12500000000E+03 0.  0.
</event>
<event>
 5    0  0.5597833E-005  0.6299934E+03  0.7546771E-02  0.9845062E-01
         21   -1    0    0  502  501  0.00000000000E+00  0.00000000000E+00  0.19419139210E+03  0.19419139210E+03  0.00000000000E+00 0.  1.
         21   -1    0    0  501  502 -0.00000000000E+00 -0.00000000000E+00 -0.20438170120E+04  0.20438170120E+04  0.00000000000E+00 0.  1.
         25    1    1    2    0    0 -0.35712120449E+03 -0.16194923225E+03 -0.39760505638E+03  0.57225683865E+03  0.12500000000E+03 0.  0.
         25    1    1    2    0    0  0.48616077380E+03  0.21020253521E+03 -0.13454983715E+04  0.14513883944E+04  0.12500000000E+03 0.  0.
         25    1    1    2    0    0 -0.12903956931E+03 -0.48253302957E+02 -0.10652219205E+03  0.21436317103E+03  0.12500000000E+03 0.  0.
</event>
<event>
 5    0  0.5597833E-005  0.2345449E+03  0.7546771E-02  0.1123481E+00
         21   -1    0    0  502  501  0.00000000000E+00  0.00000000000E+00  0.16926133621E+03  0.16926133621E+03  0.00000000000E+00 0.  1.
         21   -1    0    0  501  502 -0.00000000000E+00 -0.00000000000E+00 -0.32500802265E+03  0.32500802265E+03  0.00000000000E+00 0.  1.
         25    1    1    2    0    0 -0.21573284489E+02 -0.72118345969E+02 -0.15734547623E+03  0.21459045020E+03  0.12500000000E+03 0.  0.
         25    1    1    2    0    0  0.24854175279E+02  0.19824181186E+02 -0.44616939835E+02  0.13647856795E+03  0.12500000000E+03 0.  0.
         25    1    1    2    0    0 -0.32808907893E+01  0.52294164783E+02  0.46215729628E+02  0.14320034071E+03  0.12500000000E+03 0.  0.
</event>
<event>
 5    0  0.5597833E-005  0.3040986E+03  0.7546771E-02  0.1083210E+00
         21   -1    0    0  502  501  0.00000000000E+00  0.00000000000E+00  0.11796858158E+03  0.11796858158E+03  0.00000000000E+00 0.  1.
         21   -1    0    0  501  502 -0.00000000000E+00 -0.00000000000E+00 -0.78390331506E+03  0.78390331506E+03  0.00000000000E+00 0.  1.
         25    1    1    2    0    0 -0.62253102590E+02  0.87846758440E+02 -0.14670312320E+03  0.22076980796E+03  0.12500000000E+03 0.  0.
         25    1    1    2    0    0  0.66942293154E+02  0.56520827165E+01 -0.50468436539E+03  0.52425616384E+03  0.12500000000E+03 0.  0.
         25    1    1    2    0    0 -0.46891905639E+01 -0.93498841156E+02 -0.14547244900E+02  0.15684592484E+03  0.12500000000E+03 0.  0.
</event>
<event>
 5    0  0.5597833E-005  0.2470810E+03  0.7546771E-02  0.1115164E+00
         21   -1    0    0  502  501  0.00000000000E+00  0.00000000000E+00  0.17872373095E+03  0.17872373095E+03  0.00000000000E+00 0.  1.
         21   -1    0    0  501  502 -0.00000000000E+00 -0.00000000000E+00 -0.34158315615E+03  0.34158315615E+03  0.00000000000E+00 0.  1.
         25    1    1    2    0    0 -0.94639030464E+02  0.12343826116E+02 -0.71688215652E+02  0.17283841122E+03  0.12500000000E+03 0.  0.
         25    1    1    2    0    0  0.10344495281E+03  0.60633955220E+02 -0.10375941176E+03  0.20191173893E+03  0.12500000000E+03 0.  0.
         25    1    1    2    0    0 -0.88059223474E+01 -0.72977781336E+02  0.12588202210E+02  0.14555673695E+03  0.12500000000E+03 0.  0.
</event>
<event>
 5    0  0.5597833E-005  0.2569366E+03  0.7546771E-02  0.1108998E+00
         21   -1    0    0  502  501  0.00000000000E+00  0.00000000000E+00  0.20641691160E+02  0.20641691160E+02  0.00000000000E+00 0.  1.
         21   -1    0    0  501  502 -0.00000000000E+00 -0.00000000000E+00 -0.31982074324E+04  0.31982074324E+04  0.00000000000E+00 0.  1.
         25    1    1    2    0    0  0.64385482628E+02  0.46826095850E+02 -0.13433057401E+04  0.13514560611E+04  0.12500000000E+03 0.  0.
         25    1    1    2    0    0  0.63759635640E+02 -0.23867624289E+01 -0.46355809483E+03  0.48433675790E+03  0.12500000000E+03 0.  0.
         25    1    1    2    0    0 -0.12814511827E+03 -0.44439333421E+02 -0.13707019063E+04  0.13830563045E+04  0.12500000000E+03 0.  0.
</event>
<event>
 5    0  0.5597833E-005  0.3610885E+03  0.7546771E-02  0.1058154E+00
         21   -1    0    0  502  501  0.00000000000E+00  0.00000000000E+00  0.12723463938E+03  0.12723463938E+03  0.00000000000E+00 0. -1.
         21   -1    0    0  501  502 -0.00000000000E+00 -0.00000000000E+00 -0.10247594494E+04  0.10247594494E+04  0.00000000000E+00 0. -1.
         25    1    1    2    0    0  0.11251457765E+02 -0.76680451529E+02 -0.29272703353E+03  0.32759823429E+03  0.12500000000E+03 0.  0.
         25    1    1    2    0    0 -0.23949472861E+03  0.56610165187E+02 -0.19282524262E+03  0.33670314823E+03  0.12500000000E+03 0.  0.
         25    1    1    2    0    0  0.22824327084E+03  0.20070286342E+02 -0.41197253383E+03  0.48769270623E+03  0.12500000000E+03 0.  0.
</event>
<event>
 5    0  0.5597833E-005  0.3182181E+03  0.7546771E-02  0.1076472E+00
         21   -1    0    0  502  501  0.00000000000E+00  0.00000000000E+00  0.36209855887E+03  0.36209855887E+03  0.00000000000E+00 0. -1.
         21   -1    0    0  501  502 -0.00000000000E+00 -0.00000000000E+00 -0.27965522214E+03  0.27965522214E+03  0.00000000000E+00 0. -1.
         25    1    1    2    0    0  0.21313626040E+03 -0.51908645805E+02  0.11355854642E+03  0.27684312611E+03  0.12500000000E+03 0.  0.
         25    1    1    2    0    0 -0.15968890768E+03  0.50471916361E+02 -0.75026640312E+02  0.22204044301E+03  0.12500000000E+03 0.  0.
         25    1    1    2    0    0 -0.53447352725E+02  0.14367294436E+01  0.43911430622E+02  0.14287021188E+03  0.12500000000E+03 0.  0.
</event>
<event>
 5    0  0.5597833E-005  0.3226616E+03  0.7546771E-02  0.1074431E+00
         21   -1    0    0  502  501  0.00000000000E+00  0.00000000000E+00  0.13308423815E+04  0.13308423815E+04  0.00000000000E+00 0.  1.
         21   -1    0    0  501  502 -0.00000000000E+00 -0.00000000000E+00 -0.78229011318E+02  0.78229011318E+02  0.00000000000E+00 0.  1.
         25    1    1    2    0    0  0.13171526726E+03  0.78646842473E+02  0.56994110303E+03  0.60331757672E+03  0.12500000000E+03 0.  0.
         25    1    1    2    0    0 -0.76586915441E+02 -0.19333144399E+03  0.31990780739E+03  0.40150791783E+03  0.12500000000E+03 0.  0.
         25    1    1    2    0    0 -0.55128351814E+02  0.11468460151E+03  0.36276445975E+03  0.40424589826E+03  0.12500000000E+03 0.  0.
</event>
<event>
 5    0  0.5597833E-005  0.4548603E+03  0.7546771E-02  0.1026283E+00
         21   -1    0    0  502  501  0.00000000000E+00  0.00000000000E+00  0.16132626665E+03  0.16132626665E+03  0.00000000000E+00 0. -1.
         21   -1    0    0  501  502 -0.00000000000E+00 -0.00000000000E+00 -0.12824809333E+04  0.12824809333E+04  0.00000000000E+00 0. -1.
         25    1    1    2    0    0  0.60282214204E+02  0.11260562752E+03 -0.61517226984E+03  0.64060588062E+03  0.12500000000E+03 0.  0.
         25    1    1    2    0    0 -0.37946405786E+02 -0.30055153145E+03 -0.10787392047E+03  0.34501150051E+03  0.12500000000E+03 0.  0.
         25    1    1    2    0    0 -0.22335808418E+02  0.18794590393E+03 -0.39810847632E+03  0.45818981881E+03  0.12500000000E+03 0.  0.
</event>
<event>
 5    0  0.5597833E-005  0.3595976E+03  0.7546771E-02  0.1058743E+00
         21   -1    0    0  502  501  0.00000000000E+00  0.00000000000E+00  0.50503279365E+03  0.50503279365E+03  0.00000000000E+00 0. -1.
         21   -1    0    0  501  502 -0.00000000000E+00 -0.00000000000E+00 -0.25604361243E+03  0.25604361243E+03  0.00000000000E+00 0. -1.
         25    1    1    2    0    0 -0.14992723385E+03  0.18685091572E+02  0.49049318416E+02  0.20213397472E+03  0.12500000000E+03 0.  0.
         25    1    1    2    0    0  0.39915335177E+02 -0.21602006780E+03  0.41865072798E+02  0.25619443396E+03  0.12500000000E+03 0.  0.
         25    1    1    2    0    0  0.11001189868E+03  0.19733497622E+03  0.15807479001E+03  0.30274799740E+03  0.12500000000E+03 0.  0.
</event>
<event>
 5    0  0.6017805E-005  0.3196125E+03  0.7546771E-02  0.1075828E+00
         21   -1    0    0  502  501  0.00000000000E+00  0.00000000000E+00  0.30843179138E+03  0.30843179138E+03  0.00000000000E+00 0. -1.
         21   -1    0    0  501  502 -0.00000000000E+00 -0.00000000000E+00 -0.33119848753E+03  0.33119848753E+03  0.00000000000E+00 0. -1.
         25    1    1    2    0    0  0.15296374634E+03  0.12858724996E+03  0.37244660386E+02  0.23863099814E+03  0.12500000000E+03 0.  0.
         25    1    1    2    0    0 -0.65422673765E+02 -0.14506214853E+03  0.54419428388E+02  0.20954624159E+03  0.12500000000E+03 0.  0.
         25    1    1    2    0    0 -0.87541072576E+02  0.16474898573E+02 -0.11443078493E+03  0.19145303918E+03  0.12500000000E+03 0.  0.
</event>
<event>
 5    0  0.5597833E-005  0.3787428E+03  0.7546771E-02  0.1051399E+00
         21   -1    0    0  502  501  0.00000000000E+00  0.00000000000E+00  0.19367374641E+04  0.19367374641E+04  0.00000000000E+00 0. -1.
         21   -1    0    0  501  502 -0.00000000000E+00 -0.00000000000E+00 -0.74065854269E+02  0.74065854269E+02  0.00000000000E+00 0. -1.
         25    1    1    2    0    0 -0.26111979260E+02  0.13977269339E+03  0.11356975751E+03  0.22077438959E+03  0.12500000000E+03 0.  0.
         25    1    1    2    0    0 -0.65532704168E+02  0.30136168406E+02  0.83876733007E+03  0.85109244971E+03  0.12500000000E+03 0.  0.
         25    1    1    2    0    0  0.91644683428E+02 -0.16990886180E+03  0.91033452223E+03  0.93893647904E+03  0.12500000000E+03 0.  0.
</event>
<event>
 5    0  0.5597833E-005  0.2998921E+03  0.7546771E-02  0.1085295E+00
         21   -1    0    0  502  501  0.00000000000E+00  0.00000000000E+00  0.36174282088E+03  0.36174282088E+03  0.00000000000E+00 0.  1.
         21   -1    0    0  501  502 -0.00000000000E+00 -0.00000000000E+00 -0.24861655277E+03  0.24861655277E+03  0.00000000000E+00 0.  1.
         25    1    1    2    0    0  0.10528487883E+03  0.59435142142E+02  0.64735981371E+02  0.18556182020E+03  0.12500000000E+03 0.  0.
         25    1    1    2    0    0 -0.23839003290E+02  0.19914364584E+02 -0.12725589171E+03  0.18106336451E+03  0.12500000000E+03 0.  0.
         25    1    1    2    0    0 -0.81445875537E+02 -0.79349506726E+02  0.17564617844E+03  0.24373418895E+03  0.12500000000E+03 0.  0.
</event>
<event>
 5    0  0.5597833E-005  0.8750506E+03  0.7546771E-02  0.9457318E-01
         21   -1    0    0  502  501  0.00000000000E+00  0.00000000000E+00  0.13679778862E+04  0.13679778862E+04  0.00000000000E+00 0. -1.
         21   -1    0    0  501  502 -0.00000000000E+00 -0.00000000000E+00 -0.55974115826E+03  0.55974115826E+03  0.00000000000E+00 0. -1.
         25    1    1    2    0    0 -0.40581022186E+03 -0.41599597450E+03 -0.28325790764E+03  0.65847902716E+03  0.12500000000E+03 0.  0.
         25    1    1    2    0    0  0.21894263444E+03  0.25432067577E+03  0.73710274918E+03  0.81948785601E+03  0.12500000000E+03 0.  0.
         25    1    1    2    0    0  0.18686758742E+03  0.16167529873E+03  0.35439188638E+03  0.44975216128E+03  0.12500000000E+03 0.  0.
</event>
<event>
 5    0  0.5597833E-005  0.3054192E+03  0.7546771E-02  0.1082563E+00
         21   -1    0    0  502  501  0.00000000000E+00  0.00000000000E+00  0.15176803272E+04  0.15176803272E+04  0.00000000000E+00 0. -1.
         21   -1    0    0  501  502 -0.00000000000E+00 -0.00000000000E+00 -0.61462819410E+02  0.61462819410E+02  0.00000000000E+00 0. -1.
         25    1    1    2    0    0 -0.21529877886E+03  0.60502694419E+02  0.82060800369E+03  0.85967240035E+03  0.12500000000E+03 0.  0.
         25    1    1    2    0    0  0.89263418264E+02 -0.23748631561E+02  0.27593189087E+03  0.31669443276E+03  0.12500000000E+03 0.  0.
         25    1    1    2    0    0  0.12603536060E+03 -0.36754062857E+02  0.35967761327E+03  0.40277631354E+03  0.12500000000E+03 0.  0.
</event>
<event>
 5    0  0.6799800E-005  0.3089534E+03  0.7546771E-02  0.1080849E+00
         21   -1    0    0  502  501  0.00000000000E+00  0.00000000000E+00  0.52552406037E+03  0.52552406037E+03  0.00000000000E+00 0.  1.
         21   -1    0    0  501  502 -0.00000000000E+00 -0.00000000000E+00 -0.18163244966E+03  0.18163244966E+03  0.00000000000E+00 0.  1.
         25    1    1    2    0    0  0.19590255487E+03  0.76667780223E+02  0.23894779702E+03  0.34201872643E+03  0.12500000000E+03 0.  0.
         25    1    1    2    0    0 -0.54685330122E+02 -0.77514443625E+02  0.19628006321E+02  0.15814307741E+03  0.12500000000E+03 0.  0.
         25    1    1    2    0    0 -0.14121722474E+03  0.84666340212E+00  0.85315807371E+02  0.20699470619E+03  0.12500000000E+03 0.  0.
</event>
<event>
 5    0  0.5597833E-005  0.2261590E+03  0.7546771E-02  0.1129373E+00
         21   -1    0    0  502  501  0.00000000000E+00  0.00000000000E+00  0.82019416185E+03  0.82019416185E+03  0.00000000000E+00 0.  1.
         21   -1    0    0  501  502 -0.00000000000E+00 -0.00000000000E+00 -0.62360710877E+02  0.62360710877E+02  0.00000000000E+00 0.  1.
         25    1    1    2    0    0 -0.27501143654E+02 -0.40886638500E+02  0.29169293315E+03  0.32115073931E+03  0.12500000000E+03 0.  0.
         25    1    1    2    0    0  0.53658944434E+02  0.75603562112E+02  0.13960340259E+03  0.20906767071E+03  0.12500000000E+03 0.  0.
         25    1    1    2    0    0 -0.26157800780E+02 -0.34716923612E+02  0.32653711523E+03  0.35233646270E+03  0.12500000000E+03 0.  0.
</event>
<event>
 5    0  0.6035186E-005  0.4966960E+03  0.7546771E-02  0.1014645E+00
         21   -1    0    0  502  501  0.00000000000E+00  0.00000000000E+00  0.23977843885E+03  0.23977843885E+03  0.00000000000E+00 0.  1.
         21   -1    0    0  501  502 -0.00000000000E+00 -0.00000000000E+00 -0.10288953978E+04  0.10288953978E+04  0.00000000000E+00 0.  1.
         25    1    1    2    0    0 -0.90451720877E+02  0.18091677794E+03 -0.53394832383E+03  0.58449825224E+03  0.12500000000E+03 0.  0.
         25    1    1    2    0    0 -0.13397963726E+03 -0.18818483085E+02  0.10578517018E+03  0.21241511419E+03  0.12500000000E+03 0.  0.
         25    1    1    2    0    0  0.22443135814E+03 -0.16209829485E+03 -0.36095380533E+03  0.47176047025E+03  0.12500000000E+03 0.  0.
</event>
<event>
 5    0  0.5597833E-005  0.4119455E+03  0.7546771E-02  0.1039720E+00
         21   -1    0    0  502  501  0.00000000000E+00  0.00000000000E+00  0.54830099077E+03  0.54830099077E+03  0.00000000000E+00 0. -1.
         21   -1    0    0  501  502 -0.00000000000E+00 -0.00000000000E+00 -0.30949985688E+03  0.30949985688E+03  0.00000000000E+00 0. -1.
         25    1    1    2    0    0  0.27429859382E+03  0.20720700506E+03  0.20300029419E+03  0.41834026935E+03  0.12500000000E+03 0.  0.
         25    1    1    2    0    0 -0.17914068084E+03 -0.13487947169E+03  0.63106144563E+02  0.26436951582E+03  0.12500000000E+03 0.  0.
         25    1    1    2    0    0 -0.95157912976E+02 -0.72327533377E+02 -0.27305304862E+02  0.17509106248E+03  0.12500000000E+03 0.  0.
</event>
<event>
 5    0  0.5597833E-005  0.2070078E+03  0.7546771E-02  0.1143958E+00
         21   -1    0    0  502  501  0.00000000000E+00  0.00000000000E+00  0.70539912509E+03  0.70539912509E+03  0.00000000000E+00 0. -1.
         21   -1    0    0  501  502 -0.00000000000E+00 -0.00000000000E+00 -0.60748907095E+02  0.60748907095E+02  0.00000000000E+00 0. -1.
         25    1    1    2    0    0  0.40467044064E+02 -0.33388629416E+02  0.11778717213E+03  0.17958619142E+03  0.12500000000E+03 0.  0.
         25    1    1    2    0    0 -0.11580730511E+02  0.27062374988E+01  0.27203606039E+03  0.29961651355E+03  0.12500000000E+03 0.  0.
         25    1    1    2    0    0 -0.28886313553E+02  0.30682391917E+02  0.25482698547E+03  0.28694532721E+03  0.12500000000E+03 0.  0.
</event>
<event>
 5    0  0.5597833E-005  0.2426241E+03  0.7546771E-02  0.1118057E+00
         21   -1    0    0  502  501  0.00000000000E+00  0.00000000000E+00  0.53620008910E+03  0.53620008910E+03  0.00000000000E+00 0.  1.
         21   -1    0    0  501  502 -0.00000000000E+00 -0.00000000000E+00 -0.10978450323E+03  0.10978450323E+03  0.00000000000E+00 0.  1.
         25    1    1    2    0    0  0.62363817951E+02 -0.88082095120E+02  0.23798478279E+03  0.28967129321E+03  0.12500000000E+03 0.  0.
         25    1    1    2    0    0 -0.65191043198E+02  0.10539991973E+03  0.11550067170E+03  0.21053365611E+03  0.12500000000E+03 0.  0.
         25    1    1    2    0    0  0.28272252469E+01 -0.17317824611E+02  0.72930131383E+02  0.14577964301E+03  0.12500000000E+03 0.  0.
</event>
<event>
 5    0  0.5597833E-005  0.4025700E+03  0.7546771E-02  0.1042893E+00
         21   -1    0    0  502  501  0.00000000000E+00  0.00000000000E+00  0.22625012930E+04  0.22625012930E+04  0.00000000000E+00 0.  1.
         21   -1    0    0  501  502 -0.00000000000E+00 -0.00000000000E+00 -0.71629854574E+02  0.71629854574E+02  0.00000000000E+00 0.  1.
         25    1    1    2    0    0  0.19034081159E+03  0.80926732481E+02  0.14615613979E+04  0.14814065885E+04  0.12500000000E+03 0.  0.
         25    1    1    2    0    0  0.70405618938E+02 -0.88495452469E+01  0.24675077066E+03  0.28556296757E+03  0.12500000000E+03 0.  0.
         25    1    1    2    0    0 -0.26074643053E+03 -0.72077187234E+02  0.48255926991E+03  0.56716159155E+03  0.12500000000E+03 0.  0.
</event>
<event>
 5    0  0.5600274E-005  0.2973021E+03  0.7546771E-02  0.1086597E+00
         21   -1    0    0  502  501  0.00000000000E+00  0.00000000000E+00  0.58918645710E+03  0.58918645710E+03  0.00000000000E+00 0.  1.
         21   -1    0    0  501  502 -0.00000000000E+00 -0.00000000000E+00 -0.15001789499E+03  0.15001789499E+03  0.00000000000E+00 0. -1.
         25    1    1    2    0    0 -0.63895342260E+02  0.13606053951E+03  0.37805494980E+03  0.42561206543E+03  0.12500000000E+03 0.  0.
         25    1    1    2    0    0  0.44290851599E+02 -0.12140227769E+03  0.43764351805E+02  0.18504191702E+03  0.12500000000E+03 0.  0.
         25    1    1    2    0    0  0.19604490661E+02 -0.14658261814E+02  0.17349260509E+02  0.12855036964E+03  0.12500000000E+03 0.  0.
</event>
<event>
 5    0  0.5597833E-005  0.4245335E+03  0.7546771E-02  0.1035601E+00
         21   -1    0    0  502  501  0.00000000000E+00  0.00000000000E+00  0.32400629171E+03  0.32400629171E+03  0.00000000000E+00 0.  1.
         21   -1    0    0  501  502 -0.00000000000E+00 -0.00000000000E+00 -0.55625059000E+03  0.55625059000E+03  0.00000000000E+00 0.  1.
         25    1    1    2    0    0 -0.24210076244E+03  0.12799367715E+03 -0.19113150218E+03  0.35658296607E+03  0.12500000000E+03 0.  0.
         25    1    1    2    0    0  0.29872032643E+03 -0.11813249656E+02 -0.91941455801E+02  0.33682579709E+03  0.12500000000E+03 0.  0.
         25    1    1    2    0    0 -0.56619563983E+02 -0.11618042749E+03  0.50828659694E+02  0.18684811855E+03  0.12500000000E+03 0.  0.
</event>
<event>
 5    0  0.5597833E-005  0.3482635E+03  0.7546771E-02  0.1063330E+00
         21   -1    0    0  502  501  0.00000000000E+00  0.00000000000E+00  0.13948993672E+04  0.13948993672E+04  0.00000000000E+00 0. -1.
         21   -1    0    0  501  502 -0.00000000000E+00 -0.00000000000E+00 -0.86950694904E+02  0.86950694904E+02  0.00000000000E+00 0.  1.
         25    1    1    2    0    0  0.10471215747E+03  0.15678895834E+03  0.28809295991E+03  0.36629218791E+03  0.12500000000E+03 0.  0.
         25    1    1    2    0    0 -0.12656190235E+03 -0.20265301382E+03  0.88347689132E+03  0.92371130589E+03  0.12500000000E+03 0.  0.
         25    1    1    2    0    0  0.21849744883E+02  0.45864055479E+02  0.13637882111E+03  0.19184656834E+03  0.12500000000E+03 0.  0.
</event>
<event>
 5    0  0.5597833E-005  0.2721982E+03  0.7546771E-02  0.1100028E+00
         21   -1    0    0  502  501  0.00000000000E+00  0.00000000000E+00  0.26290608266E+03  0.26290608266E+03  0.00000000000E+00 0. -1.
         21   -1    0    0  501  502 -0.00000000000E+00 -0.00000000000E+00 -0.28181876666E+03  0.28181876666E+03  0.00000000000E+00 0. -1.
         25    1    1    2    0    0 -0.50619574507E+02 -0.67496231500E+02 -0.53684324446E+02  0.16007838480E+03  0.12500000000E+03 0.  0.
         25    1    1    2    0    0  0.12146177773E+03 -0.14037508604E+01  0.11240066989E+03  0.20739779304E+03  0.12500000000E+03 0.  0.
         25    1    1    2    0    0 -0.70842203223E+02  0.68899982361E+02 -0.77629029447E+02  0.17724867147E+03  0.12500000000E+03 0.  0.
</event>
<event>
 5    0  0.5954286E-005  0.3521527E+03  0.7546771E-02  0.1061735E+00
         21   -1    0    0  502  501  0.00000000000E+00  0.00000000000E+00  0.63855865016E+03  0.63855865016E+03  0.00000000000E+00 0. -1.
         21   -1    0    0  501  502 -0.00000000000E+00 -0.00000000000E+00 -0.19420535696E+03  0.19420535696E+03  0.00000000000E+00 0. -1.
         25    1    1    2    0    0 -0.22050072397E+02  0.40690804529E+02 -0.87393324170E+02  0.15938801829E+03  0.12500000000E+03 0.  0.
         25    1    1    2    0    0  0.13353163521E+03  0.86075355515E+02  0.23821286178E+03  0.31242604236E+03  0.12500000000E+03 0.  0.
         25    1    1    2    0    0 -0.11148156281E+03 -0.12676616004E+03  0.29353375559E+03  0.36094994646E+03  0.12500000000E+03 0.  0.
</event>
<event>
 5    0  0.5597833E-005  0.2484069E+03  0.7546771E-02  0.1114316E+00
         21   -1    0    0  502  501  0.00000000000E+00  0.00000000000E+00  0.73313071622E+03  0.73313071622E+03  0.00000000000E+00 0.  1.
         21   -1    0    0  501  502 -0.00000000000E+00 -0.00000000000E+00 -0.84167786849E+02  0.84167786849E+02  0.00000000000E+00 0.  1.
         25    1    1    2    0    0  0.13414519240E+03  0.55646072060E+02  0.16957627284E+03  0.25587600569E+03  0.12500000000E+03 0.  0.
         25    1    1    2    0    0 -0.76186206563E+02 -0.45078492577E+02  0.27326129004E+03  0.31326209665E+03  0.12500000000E+03 0.  0.
         25    1    1    2    0    0 -0.57958985839E+02 -0.10567579483E+02  0.20612536650E+03  0.24816040073E+03  0.12500000000E+03 0.  0.
</event>
<event>
 5    0  0.5597833E-005  0.3878962E+03  0.7546771E-02  0.1048053E+00
         21   -1    0    0  502  501  0.00000000000E+00  0.00000000000E+00  0.12963237472E+04  0.12963237472E+04  0.00000000000E+00 0.  1.
         21   -1    0    0  501  502 -0.00000000000E+00 -0.00000000000E+00 -0.11606933835E+03  0.11606933835E+03  0.00000000000E+00 0.  1.
         25    1    1    2    0    0 -0.13409653018E+03 -0.15279651725E+03  0.35691861332E+03  0.42935364401E+03  0.12500000000E+03 0.  0.
         25    1    1    2    0    0  0.99648958828E+02  0.57867881873E+01  0.26124371071E+02  0.16208295616E+03  0.12500000000E+03 0.  0.
         25    1    1    2    0    0  0.34447571353E+02  0.14700972906E+03  0.79721142449E+03  0.82095648541E+03  0.12500000000E+03 0.  0.
</event>
<event>
 5    0  0.5597833E-005  0.5003361E+03  0.7546771E-02  0.1013691E+00
         21   -1    0    0  502  501  0.00000000000E+00  0.00000000000E+00  0.33996370166E+03  0.33996370166E+03  0.00000000000E+00 0. -1.
         21   -1    0    0  501  502 -0.00000000000E+00 -0.00000000000E+00 -0.73636145166E+03  0.73636145166E+03  0.00000000000E+00 0. -1.
         25    1    1    2    0    0 -0.24077263343E+02  0.88391841826E+02  0.21884396938E+03  0.26816136047E+03  0.12500000000E+03 0.  0.
         25    1    1    2    0    0  0.44825093469E+02 -0.11048617294E+02  0.37760747140E+02  0.13849994575E+03  0.12500000000E+03 0.  0.
         25    1    1    2    0    0 -0.20747830126E+02 -0.77343224532E+02 -0.65300246652E+03  0.66966384710E+03  0.12500000000E+03 0.  0.
</event>
<event>
 5    0  0.5597833E-005  0.2926183E+03  0.7546771E-02  0.1088990E+00
         21   -1    0    0  502  501  0.00000000000E+00  0.00000000000E+00  0.17554012275E+04  0.17554012275E+04  0.00000000000E+00 0. -1.
         21   -1    0    0  501  502 -0.00000000000E+00 -0.00000000000E+00 -0.48778304471E+02  0.48778304471E+02  0.00000000000E+00 0. -1.
         25    1    1    2    0    0  0.49288945306E+02 -0.58012412511E+01  0.55461902124E+03  0.57069283617E+03  0.12500000000E+03 0.  0.
         25    1    1    2    0    0 -0.20015221945E+03 -0.33462205865E+02  0.55780088919E+03  0.60658673094E+03  0.12500000000E+03 0.  0.
         25    1    1    2    0    0  0.15086327415E+03  0.39263447117E+02  0.59420301265E+03  0.62689996491E+03  0.12500000000E+03 0.  0.
</event>
<event>
 5    0  0.5597833E-005  0.3655455E+03  0.7546771E-02  0.1056409E+00
         21   -1    0    0  502  501  0.00000000000E+00  0.00000000000E+00  0.40400207602E+03  0.40400207602E+03  0.00000000000E+00 0.  1.
         21   -1    0    0  501  502 -0.00000000000E+00 -0.00000000000E+00 -0.33074963199E+03  0.33074963199E+03  0.00000000000E+00 0.  1.
         25    1    1    2    0    0  0.74499303211E+02  0.89593905607E+01  0.95283526839E+02  0.17416764150E+03  0.12500000000E+03 0.  0.
         25    1    1    2    0    0 -0.39651690481E+02  0.11717055183E+03  0.20510366257E+03  0.27017347608E+03  0.12500000000E+03 0.  0.
         25    1    1    2    0    0 -0.34847612731E+02 -0.12612994239E+03 -0.22713474538E+03  0.29041059044E+03  0.12500000000E+03 0.  0.
</event>
<event>
 5    0  0.5597833E-005  0.2586231E+03  0.7546771E-02  0.1107973E+00
         21   -1    0    0  502  501  0.00000000000E+00  0.00000000000E+00  0.97304181327E+03  0.97304181327E+03  0.00000000000E+00 0. -1.
         21   -1    0    0  501  502 -0.00000000000E+00 -0.00000000000E+00 -0.68738994533E+02  0.68738994533E+02  0.00000000000E+00 0. -1.
         25    1    1    2    0    0 -0.65199322597E+02 -0.25773019225E+02  0.16938141008E+03  0.22187893606E+03  0.12500000000E+03 0.  0.
         25    1    1    2    0    0  0.39863484076E+02 -0.28330356806E+02  0.63513651611E+03  0.64916492556E+03  0.12500000000E+03 0.  0.
         25    1    1    2    0    0  0.25335838522E+02  0.54103376031E+02  0.99784892553E+02  0.17073694619E+03  0.12500000000E+03 0.  0.
</event>
<event>
 5    0  0.5597833E-005  0.2564124E+03  0.7546771E-02  0.1109318E+00
         21   -1    0    0  502  501  0.00000000000E+00  0.00000000000E+00  0.12325601709E+03  0.12325601709E+03  0.00000000000E+00 0.  1.
         21   -1    0    0  501  502 -0.00000000000E+00 -0.00000000000E+00 -0.53342085627E+03  0.53342085627E+03  0.00000000000E+00 0.  1.
         25    1    1    2    0    0 -0.13428519484E+03 -0.17275011636E+02 -0.16815386651E+03  0.24946274753E+03  0.12500000000E+03 0.  0.
         25    1    1    2    0    0  0.14128372772E+03 -0.32735690149E+02 -0.15914923733E+03  0.24897027306E+03  0.12500000000E+03 0.  0.
         25    1    1    2    0    0 -0.69985328795E+01  0.50010701785E+02 -0.82861735338E+02  0.15824385277E+03  0.12500000000E+03 0.  0.
</event>
<event>
 5    0  0.5597833E-005  0.2637522E+03  0.7546771E-02  0.1104910E+00
         21   -1    0    0  502  501  0.00000000000E+00  0.00000000000E+00  0.65963015975E+03  0.65963015975E+03  0.00000000000E+00 0.  1.
         21   -1    0    0  501  502 -0.00000000000E+00 -0.00000000000E+00 -0.10546094735E+03  0.10546094735E+03  0.00000000000E+00 0.  1.
         25    1    1    2    0    0  0.58903756911E+00  0.13212516821E+03  0.11298690126E+03  0.21412250442E+03  0.12500000000E+03 0.  0.
         25    1    1    2    0    0 -0.50422828502E+02  0.77212567570E+01  0.16063540611E+03  0.20983520471E+03  0.12500000000E+03 0.  0.
         25    1    1    2    0    0  0.49833790933E+02 -0.13984642497E+03  0.28054690503E+03  0.34113339798E+03  0.12500000000E+03 0.  0.
</event>
<event>
 5    0  0.5597833E-005  0.2657764E+03  0.7546771E-02  0.1103721E+00
         21   -1    0    0  502  501  0.00000000000E+00  0.00000000000E+00  0.17479172064E+04  0.17479172064E+04  0.00000000000E+00 0. -1.
         21   -1    0    0  501  502 -0.00000000000E+00 -0.00000000000E+00 -0.40412162224E+02  0.40412162224E+02  0.00000000000E+00 0. -1.
         25    1    1    2    0    0  0.26861466024E+02  0.57238187402E+02  0.33101137147E+03  0.35943188019E+03  0.12500000000E+03 0.  0.
         25    1    1    2    0    0 -0.62903148990E+02  0.21848676575E+02  0.21492842097E+03  0.25739735228E+03  0.12500000000E+03 0.  0.
         25    1    1    2    0    0  0.36041682966E+02 -0.79086863977E+02  0.11615652517E+04  0.11715001361E+04  0.12500000000E+03 0.  0.
</event>
<event>
 5    0  0.5597833E-005  0.3720030E+03  0.7546771E-02  0.1053930E+00
         21   -1    0    0  502  501  0.00000000000E+00  0.00000000000E+00  0.20285707323E+04  0.20285707323E+04  0.00000000000E+00 0. -1.
         21   -1    0    0  501  502 -0.00000000000E+00 -0.00000000000E+00 -0.68218575165E+02  0.68218575165E+02  0.00000000000E+00 0. -1.
         25    1    1    2    0    0 -0.14777125804E+03 -0.40758842475E+02  0.51404447760E+03  0.55078521484E+03  0.12500000000E+03 0.  0.
         25    1    1    2    0    0  0.12570523362E+03 -0.18234246288E+03  0.44723744688E+03  0.51448703912E+03  0.12500000000E+03 0.  0.
         25    1    1    2    0    0  0.22066024414E+02  0.22310130535E+03  0.99907023263E+03  0.10315170535E+04  0.12500000000E+03 0.  0.
</event>
<event>
 5    0  0.5597833E-005  0.2722511E+03  0.7546771E-02  0.1099998E+00
         21   -1    0    0  502  501  0.00000000000E+00  0.00000000000E+00  0.40507570827E+03  0.40507570827E+03  0.00000000000E+00 0. -1.
         21   -1    0    0  501  502 -0.00000000000E+00 -0.00000000000E+00 -0.18297975949E+03  0.18297975949E+03  0.00000000000E+00 0. -1.
         25    1    1    2    0    0 -0.53160777843E+02  0.57943918074E+02 -0.21060408718E+02  0.14917140060E+03  0.12500000000E+03 0.  0.
         25    1    1    2    0    0  0.49048519350E+02  0.78732747094E+02  0.19104764700E+03  0.24643215321E+03  0.12500000000E+03 0.  0.
         25    1    1    2    0    0  0.41122584935E+01 -0.13667666517E+03  0.52108710507E+02  0.19245191395E+03  0.12500000000E+03 0.  0.
</event>
<event>
 5    0  0.5597833E-005  0.3139406E+03  0.7546771E-02  0.1078472E+00
         21   -1    0    0  502  501  0.00000000000E+00  0.00000000000E+00  0.12709340404E+03  0.12709340404E+03  0.00000000000E+00 0.  1.
         21   -1    0    0  501  502 -0.00000000000E+00 -0.00000000000E+00 -0.77548219662E+03  0.77548219662E+03  0.00000000000E+00 0.  1.
         25    1    1    2    0    0  0.59842754435E+02 -0.15773093268E+03 -0.75492965636E+02  0.22312415880E+03  0.12500000000E+03 0.  0.
         25    1    1    2    0    0 -0.13213563004E+03  0.87845365815E+02 -0.27645743596E+03  0.34238917465E+03  0.12500000000E+03 0.  0.
         25    1    1    2    0    0  0.72292875604E+02  0.69885566862E+02 -0.29643839099E+03  0.33706226720E+03  0.12500000000E+03 0.  0.
</event>
<event>
 5    0  0.5597833E-005  0.3521549E+03  0.7546771E-02  0.1061734E+00
         21   -1    0    0  502  501  0.00000000000E+00  0.00000000000E+00  0.27197660728E+03  0.27197660728E+03  0.00000000000E+00 0.  1.
         21   -1    0    0  501  502 -0.00000000000E+00 -0.00000000000E+00 -0.45596974182E+03  0.45596974182E+03  0.00000000000E+00 0.  1.
         25    1    1    2    0    0  0.37308427339E+02  0.20043554799E+03 -0.10331486320E+03  0.26050967085E+03  0.12500000000E+03 0.  0.
         25    1    1    2    0    0  0.93276664322E+02 -0.22132060965E+03 -0.89740128185E+02  0.28523961676E+03  0.12500000000E+03 0.  0.
         25    1    1    2    0    0 -0.13058509166E+03  0.20885061655E+02  0.90618568500E+01  0.18219706149E+03  0.12500000000E+03 0.  0.
</event>
<event>
 5    0  0.5597833E-005  0.3536015E+03  0.7546771E-02  0.1061146E+00
         21   -1    0    0  502  501  0.00000000000E+00  0.00000000000E+00  0.13858668696E+03  0.13858668696E+03  0.00000000000E+00 0. -1.
         21   -1    0    0  501  502 -0.00000000000E+00 -0.00000000000E+00 -0.90220796603E+03  0.90220796603E+03  0.00000000000E+00 0. -1.
         25    1    1    2    0    0 -0.16092191881E+02  0.11383430754E+03 -0.72217468274E+03  0.74187497640E+03  0.12500000000E+03 0.  0.
         25    1    1    2    0    0 -0.36829596271E+01 -0.15007133334E+02 -0.55699558158E+02  0.13771789652E+03  0.12500000000E+03 0.  0.
         25    1    1    2    0    0  0.19775151508E+02 -0.98827174206E+02  0.14252961836E+02  0.16120178008E+03  0.12500000000E+03 0.  0.
</event>
<event>
 5    0  0.5597833E-005  0.5263571E+03  0.7546771E-02  0.1007119E+00
         21   -1    0    0  502  501  0.00000000000E+00  0.00000000000E+00  0.20973153975E+03  0.20973153975E+03  0.00000000000E+00 0. -1.
         21   -1    0    0  501  502 -0.00000000000E+00 -0.00000000000E+00 -0.13209830856E+04  0.13209830856E+04  0.00000000000E+00 0. -1.
         25    1    1    2    0    0 -0.35161817262E+02 -0.51565111637E+02 -0.23207211626E+02  0.14162940656E+03  0.12500000000E+03 0.  0.
         25    1    1    2    0    0  0.42415658979E+03 -0.37181066117E+02 -0.51680142260E+03  0.68117542141E+03  0.12500000000E+03 0.  0.
         25    1    1    2    0    0 -0.38899477253E+03  0.88746177754E+02 -0.57124291160E+03  0.70790979735E+03  0.12500000000E+03 0.  0.
</event>
<event>
 5    0  0.5597833E-005  0.3587844E+03  0.7546771E-02  0.1059066E+00
         21   -1    0    0  502  501  0.00000000000E+00  0.00000000000E+00  0.48660211196E+03  0.48660211196E+03  0.00000000000E+00 0.  1.
         21   -1    0    0  501  502 -0.00000000000E+00 -0.00000000000E+00 -0.26454113371E+03  0.26454113371E+03  0.00000000000E+00 0.  1.
         25    1    1    2    0    0 -0.13098726256E+03  0.11938262290E+02 -0.13801723418E+03  0.22797794189E+03  0.12500000000E+03 0.  0.
         25    1    1    2    0    0  0.42897474956E+02 -0.11449064697E+03  0.90983344691E+02  0.19710725662E+03  0.12500000000E+03 0.  0.
         25    1    1    2    0    0  0.88089787602E+02  0.10255238468E+03  0.26909486774E+03  0.32605804717E+03  0.12500000000E+03 0.  0.
</event>
<event>
 5    0  0.5597833E-005  0.3807434E+03  0.7546771E-02  0.1050659E+00
         21   -1    0    0  502  501  0.00000000000E+00  0.00000000000E+00  0.14713254161E+03  0.14713254161E+03  0.00000000000E+00 0. -1.
         21   -1    0    0  501  502 -0.00000000000E+00 -0.00000000000E+00 -0.98527177216E+03  0.98527177216E+03  0.00000000000E+00 0. -1.
         25    1    1    2    0    0  0.50131165317E+02 -0.58675750733E+02 -0.56914805139E+02  0.15754450960E+03  0.12500000000E+03 0.  0.
         25    1    1    2    0    0  0.12669070195E+03  0.23930507923E+03 -0.45003840674E+03  0.53988611989E+03  0.12500000000E+03 0.  0.
         25    1    1    2    0    0 -0.17682186727E+03 -0.18062932850E+03 -0.33118601866E+03  0.43497368428E+03  0.12500000000E+03 0.  0.
</event>
<event>
 5    0  0.5597833E-005  0.3679620E+03  0.7546771E-02  0.1055475E+00
         21   -1    0    0  502  501  0.00000000000E+00  0.00000000000E+00  0.18006344908E+04  0.18006344908E+04  0.00000000000E+00 0.  1.
         21   -1    0    0  501  502 -0.00000000000E+00 -0.00000000000E+00 -0.75193524387E+02  0.75193524387E+02  0.00000000000E+00 0.  1.
         25    1    1    2    0    0 -0.13845573591E+03 -0.23799203244E+03  0.74947895384E+03  0.80817937400E+03  0.12500000000E+03 0.  0.
         25    1    1    2    0    0 -0.80422515442E+00 -0.51096191872E+01  0.25116003012E+03  0.28059421896E+03  0.12500000000E+03 0.  0.
         25    1    1    2    0    0  0.13925996106E+03  0.24310165162E+03  0.72480198249E+03  0.78705442226E+03  0.12500000000E+03 0.  0.
</event>
<event>
 5    0  0.5597833E-005  0.3346810E+03  0.7546771E-02  0.1069084E+00
         21   -1    0    0  502  501  0.00000000000E+00  0.00000000000E+00  0.15513400792E+03  0.15513400792E+03  0.00000000000E+00 0. -1.
         21   -1    0    0  501  502 -0.00000000000E+00 -0.00000000000E+00 -0.72202962874E+03  0.72202962874E+03  0.00000000000E+00 0. -1.
         25    1    1    2    0    0  0.14968888904E+03 -0.19573872509E+02 -0.14524706190E+03  0.24395001328E+03  0.12500000000E+03 0.  0.
         25    1    1    2    0    0 -0.12097867774E+03 -0.59385577605E+02 -0.44438010551E+03  0.48089621070E+03  0.12500000000E+03 0.  0.
         25    1    1    2    0    0 -0.28710211300E+02  0.78959450114E+02  0.22731546585E+02  0.15231741268E+03  0.12500000000E+03 0.  0.
</event>
<event>
 5    0  0.5597833E-005  0.2556029E+03  0.7546771E-02  0.1109814E+00
         21   -1    0    0  502  501  0.00000000000E+00  0.00000000000E+00  0.35366832056E+02  0.35366832056E+02  0.00000000000E+00 0. -1.
         21   -1    0    0  501  502 -0.00000000000E+00 -0.00000000000E+00 -0.18472908046E+04  0.18472908046E+04  0.00000000000E+00 0. -1.
         25    1    1    2    0    0  0.42680115667E+02 -0.82521755147E+02 -0.84514920195E+03  0.85937977979E+03  0.12500000000E+03 0.  0.
         25    1    1    2    0    0 -0.15537949483E+02  0.13856441316E+03 -0.43754797883E+03  0.47593566608E+03  0.12500000000E+03 0.  0.
         25    1    1    2    0    0 -0.27142166184E+02 -0.56042658008E+02 -0.52922679177E+03  0.54734219079E+03  0.12500000000E+03 0.  0.
</event>
<event>
 5    0  0.5597833E-005  0.6632767E+03  0.7546771E-02  0.9782180E-01
         21   -1    0    0  502  501  0.00000000000E+00  0.00000000000E+00  0.71481684293E+03  0.71481684293E+03  0.00000000000E+00 0. -1.
         21   -1    0    0  501  502 -0.00000000000E+00 -0.00000000000E+00 -0.61545274239E+03  0.61545274239E+03  0.00000000000E+00 0. -1.
         25    1    1    2    0    0  0.28679953119E+03 -0.47960086364E+03 -0.21257164689E+03  0.61080493167E+03  0.12500000000E+03 0.  0.
         25    1    1    2    0    0 -0.21033950430E+03  0.35694533429E+03  0.30276992887E+03  0.52815462563E+03  0.12500000000E+03 0.  0.
         25    1    1    2    0    0 -0.76460026892E+02  0.12265552935E+03  0.91658185566E+01  0.19131002802E+03  0.12500000000E+03 0.  0.
</event>
<event>
 5    0  0.5597833E-005  0.3804003E+03  0.7546771E-02  0.1050786E+00
         21   -1    0    0  502  501  0.00000000000E+00  0.00000000000E+00  0.70328851627E+03  0.70328851627E+03  0.00000000000E+00 0. -1.
         21   -1    0    0  501  502 -0.00000000000E+00 -0.00000000000E+00 -0.20575395971E+03  0.20575395971E+03  0.00000000000E+00 0. -1.
         25    1    1    2    0    0 -0.12603859545E+03 -0.14428122008E+03  0.45335002046E+03  0.50779330348E+03  0.12500000000E+03 0.  0.
         25    1    1    2    0    0  0.13745303930E+03  0.42733439571E+02 -0.70444966686E+02  0.20324118234E+03  0.12500000000E+03 0.  0.
         25    1    1    2    0    0 -0.11414443842E+02  0.10154778051E+03  0.11462950279E+03  0.19800799015E+03  0.12500000000E+03 0.  0.
</event>
<event>
 5    0  0.5597833E-005  0.3412656E+03  0.7546771E-02  0.1066258E+00
         21   -1    0    0  502  501  0.00000000000E+00  0.00000000000E+00  0.85271276986E+03  0.85271276986E+03  0.00000000000E+00 0. -1.
         21   -1    0    0  501  502 -0.00000000000E+00 -0.00000000000E+00 -0.13657843564E+03  0.13657843564E+03  0.00000000000E+00 0. -1.
         25    1    1    2    0    0  0.10294408365E+02 -0.43454388994E+02  0.38414888128E+03  0.40643526146E+03  0.12500000000E+03 0.  0.
         25    1    1    2    0    0  0.15109541715E+03 -0.16995226961E+02  0.31216034686E+03  0.36903623802E+03  0.12500000000E+03 0.  0.
         25    1    1    2    0    0 -0.16138982552E+03  0.60449615954E+02  0.19825106079E+02  0.21381970602E+03  0.12500000000E+03 0.  0.
</event>
<event>
 5    0  0.5597833E-005  0.2820283E+03  0.7546771E-02  0.1094586E+00
         21   -1    0    0  502  501  0.00000000000E+00  0.00000000000E+00  0.37607162022E+02  0.37607162022E+02  0.00000000000E+00 0.  1.
         21   -1    0    0  501  502 -0.00000000000E+00 -0.00000000000E+00 -0.21150219736E+04  0.21150219736E+04  0.00000000000E+00 0.  1.
         25    1    1    2    0    0  0.59513717054E+02  0.37582060514E+02 -0.49719219281E+03  0.51747402871E+03  0.12500000000E+03 0.  0.
         25    1    1    2    0    0 -0.75544128965E+02 -0.12070153694E+03 -0.37137669156E+03  0.41691896512E+03  0.12500000000E+03 0.  0.
         25    1    1    2    0    0  0.16030411911E+02  0.83119476426E+02 -0.12088459272E+04  0.12182361418E+04  0.12500000000E+03 0.  0.
</event>
<event>
 5    0  0.6481255E-005  0.2843126E+03  0.7546771E-02  0.1093357E+00
         21   -1    0    0  502  501  0.00000000000E+00  0.00000000000E+00  0.53885632774E+03  0.53885632774E+03  0.00000000000E+00 0.  1.
         21   -1    0    0  501  502 -0.00000000000E+00 -0.00000000000E+00 -0.15000969496E+03  0.15000969496E+03  0.00000000000E+00 0.  1.
         25    1    1    2    0    0 -0.20683748564E+01  0.45344931952E+02 -0.28013764415E+02  0.13590515820E+03  0.12500000000E+03 0.  0.
         25    1    1    2    0    0 -0.96139063853E+02 -0.42632509564E+02  0.33818453489E+03  0.37557160450E+03  0.12500000000E+03 0.  0.
         25    1    1    2    0    0  0.98207438709E+02 -0.27124223876E+01  0.78675862316E+02  0.17738926000E+03  0.12500000000E+03 0.  0.
</event>
<event>
 5    0  0.5597833E-005  0.3291896E+03  0.7546771E-02  0.1071496E+00
         21   -1    0    0  502  501  0.00000000000E+00  0.00000000000E+00  0.11961374265E+04  0.11961374265E+04  0.00000000000E+00 0.  1.
         21   -1    0    0  501  502 -0.00000000000E+00 -0.00000000000E+00 -0.90596457805E+02  0.90596457805E+02  0.00000000000E+00 0.  1.
         25    1    1    2    0    0  0.12742774115E+03  0.14805939209E+03  0.52483319529E+03  0.57378941754E+03  0.12500000000E+03 0.  0.
         25    1    1    2    0    0 -0.11606286828E+03  0.26419083717E+02  0.38639470708E+03  0.42319549506E+03  0.12500000000E+03 0.  0.
         25    1    1    2    0    0 -0.11364872867E+02 -0.17447847581E+03  0.19431306629E+03  0.28974897168E+03  0.12500000000E+03 0.  0.
</event>
<event>
 5    0  0.5597833E-005  0.3647663E+03  0.7546771E-02  0.1056712E+00
         21   -1    0    0  502  501  0.00000000000E+00  0.00000000000E+00  0.28509158409E+03  0.28509158409E+03  0.00000000000E+00 0.  1.
         21   -1    0    0  501  502 -0.00000000000E+00 -0.00000000000E+00 -0.46670768366E+03  0.46670768366E+03  0.00000000000E+00 0.  1.
         25    1    1    2    0    0 -0.16615534973E+03  0.45029476389E+02 -0.12463177693E+03  0.24656304226E+03  0.12500000000E+03 0.  0.
         25    1    1    2    0    0  0.23214739814E+03 -0.24356344896E+02 -0.17713591232E+03  0.31857146362E+03  0.12500000000E+03 0.  0.
         25    1    1    2    0    0 -0.65992048409E+02 -0.20673131493E+02  0.12015158968E+03  0.18666476186E+03  0.12500000000E+03 0.  0.
</event>
<event>
 5    0  0.5597833E-005  0.3187227E+03  0.7546771E-02  0.1076239E+00
         21   -1    0    0  502  501  0.00000000000E+00  0.00000000000E+00  0.45117833685E+03  0.45117833685E+03  0.00000000000E+00 0.  1.
         21   -1    0    0  501  502 -0.00000000000E+00 -0.00000000000E+00 -0.22515295752E+03  0.22515295752E+03  0.00000000000E+00 0.  1.
         25    1    1    2    0    0  0.13974855062E+03  0.48441455186E+02  0.19629491345E+03  0.27574068439E+03  0.12500000000E+03 0.  0.
         25    1    1    2    0    0  0.29838631583E+02 -0.44561392211E+02 -0.85271858914E+02  0.16053769505E+03  0.12500000000E+03 0.  0.
         25    1    1    2    0    0 -0.16958718220E+03 -0.38800629751E+01  0.11500232480E+03  0.24005291493E+03  0.12500000000E+03 0.  0.
</event>
<event>
 5    0  0.5597833E-005  0.2643973E+03  0.7546771E-02  0.1104530E+00
         21   -1    0    0  502  501  0.00000000000E+00  0.00000000000E+00  0.62866391755E+03  0.62866391755E+03  0.00000000000E+00 0. -1.
         21   -1    0    0  501  502 -0.00000000000E+00 -0.00000000000E+00 -0.11119763216E+03  0.11119763216E+03  0.00000000000E+00 0. -1.
         25    1    1    2    0    0 -0.12757884923E+03  0.48589424274E+02  0.19784986771E+03  0.27093701311E+03  0.12500000000E+03 0.  0.
         25    1    1    2    0    0  0.12949362065E+01  0.55160018844E+02  0.11269076137E+03  0.17711158132E+03  0.12500000000E+03 0.  0.
         25    1    1    2    0    0  0.12628391302E+03 -0.10374944312E+03  0.20692565629E+03  0.29181295528E+03  0.12500000000E+03 0.  0.
</event>
<event>
 5    0  0.5597833E-005  0.3175657E+03  0.7546771E-02  0.1076775E+00
         21   -1    0    0  502  501  0.00000000000E+00  0.00000000000E+00  0.11101283394E+03  0.11101283394E+03  0.00000000000E+00 0.  1.
         21   -1    0    0  501  502 -0.00000000000E+00 -0.00000000000E+00 -0.90843540115E+03  0.90843540115E+03  0.00000000000E+00 0.  1.
         25    1    1    2    0    0 -0.37713465975E+02  0.12867444540E+03 -0.33752857439E+03  0.38409628604E+03  0.12500000000E+03 0.  0.
         25    1    1    2    0    0 -0.25829565392E+02  0.84514793153E+02 -0.67544319858E+02  0.16732349463E+03  0.12500000000E+03 0.  0.
         25    1    1    2    0    0  0.63543031367E+02 -0.21318923856E+03 -0.39234967297E+03  0.46802845442E+03  0.12500000000E+03 0.  0.
</event>
<event>
 5    0  0.5597833E-005  0.2955849E+03  0.7546771E-02  0.1087469E+00
         21   -1    0    0  502  501  0.00000000000E+00  0.00000000000E+00  0.27905371998E+03  0.27905371998E+03  0.00000000000E+00 0. -1.
         21   -1    0    0  501  502 -0.00000000000E+00 -0.00000000000E+00 -0.31309530843E+03  0.31309530843E+03  0.00000000000E+00 0. -1.
         25    1    1    2    0    0  0.14530401705E+02  0.10485228761E+03 -0.97163115796E+02  0.19044895868E+03  0.12500000000E+03 0.  0.
         25    1    1    2    0    0  0.83006432955E+02 -0.10334442507E+03  0.13584068479E+03  0.22726158881E+03  0.12500000000E+03 0.  0.
         25    1    1    2    0    0 -0.97536834660E+02 -0.15078625390E+01 -0.72719157447E+02  0.17443848092E+03  0.12500000000E+03 0.  0.
</event>
<event>
 5    0  0.5597833E-005  0.3701941E+03  0.7546771E-02  0.1054619E+00
         21   -1    0    0  502  501  0.00000000000E+00  0.00000000000E+00  0.78142228266E+02  0.78142228266E+02  0.00000000000E+00 0.  1.
         21   -1    0    0  501  502 -0.00000000000E+00 -0.00000000000E+00 -0.17537722265E+04  0.17537722265E+04  0.00000000000E+00 0.  1.
         25    1    1    2    0    0  0.28648112783E+01 -0.27429572453E+03 -0.55122098810E+03  0.62826421938E+03  0.12500000000E+03 0.  0.
         25    1    1    2    0    0  0.17970426793E+02  0.17166429987E+03 -0.90803173600E+03  0.93270477734E+03  0.12500000000E+03 0.  0.
         25    1    1    2    0    0 -0.20835238072E+02  0.10263142466E+03 -0.21637727416E+03  0.27094545806E+03  0.12500000000E+03 0.  0.
</event>
<event>
 5    0  0.5597833E-005  0.2498542E+03  0.7546771E-02  0.1113397E+00
         21   -1    0    0  502  501  0.00000000000E+00  0.00000000000E+00  0.25652227845E+03  0.25652227845E+03  0.00000000000E+00 0.  1.
         21   -1    0    0  501  502 -0.00000000000E+00 -0.00000000000E+00 -0.24335948875E+03  0.24335948875E+03  0.00000000000E+00 0.  1.
         25    1    1    2    0    0  0.28769793957E+02 -0.38438415943E+02 -0.47709027832E+02  0.14214909145E+03  0.12500000000E+03 0.  0.
         25    1    1    2    0    0 -0.81023843669E+02 -0.80931542415E+02  0.50401267933E+02  0.17686171324E+03  0.12500000000E+03 0.  0.
         25    1    1    2    0    0  0.52254049712E+02  0.11936995836E+03  0.10470549592E+02  0.18087096251E+03  0.12500000000E+03 0.  0.
</event>
<event>
 5    0  0.5597833E-005  0.2642591E+03  0.7546771E-02  0.1104611E+00
         21   -1    0    0  502  501  0.00000000000E+00  0.00000000000E+00  0.94540499677E+02  0.94540499677E+02  0.00000000000E+00 0.  1.
         21   -1    0    0  501  502 -0.00000000000E+00 -0.00000000000E+00 -0.73865562972E+03  0.73865562972E+03  0.00000000000E+00 0.  1.
         25    1    1    2    0    0  0.79188205125E+02 -0.47612951946E+02 -0.17470377315E+03  0.23384647395E+03  0.12500000000E+03 0.  0.
         25    1    1    2    0    0  0.42893480042E+01 -0.74319665611E+02 -0.83815861573E+02  0.16790446645E+03  0.12500000000E+03 0.  0.
         25    1    1    2    0    0 -0.83477553129E+02  0.12193261756E+03 -0.38559549532E+03  0.43144518900E+03  0.12500000000E+03 0.  0.
</event>
<event>
 5    0  0.5597833E-005  0.2308388E+03  0.7546771E-02  0.1126051E+00
         21   -1    0    0  502  501  0.00000000000E+00  0.00000000000E+00  0.31230030304E+03  0.31230030304E+03  0.00000000000E+00 0. -1.
         21   -1    0    0  501  502 -0.00000000000E+00 -0.00000000000E+00 -0.17062599787E+03  0.17062599787E+03  0.00000000000E+00 0. -1.
         25    1    1    2    0    0 -0.19905436172E+02  0.18866612179E+02  0.13145274251E+02  0.12864670100E+03  0.12500000000E+03 0.  0.
         25    1    1    2    0    0  0.71163710727E+02 -0.93138442001E+02  0.38096773443E+02  0.17554317774E+03  0.12500000000E+03 0.  0.
         25    1    1    2    0    0 -0.51258274555E+02  0.74271829823E+02  0.90432257477E+02  0.17873642216E+03  0.12500000000E+03 0.  0.
</event>
<event>
 5    0  0.5597833E-005  0.4177081E+03  0.7546771E-02  0.1037815E+00
         21   -1    0    0  502  501  0.00000000000E+00  0.00000000000E+00  0.42130647064E+03  0.42130647064E+03  0.00000000000E+00 0. -1.
         21   -1    0    0  501  502 -0.00000000000E+00 -0.00000000000E+00 -0.41414055055E+03  0.41414055055E+03  0.00000000000E+00 0. -1.
         25    1    1    2    0    0 -0.33116666980E+03  0.31503642198E+02 -0.11385885078E+03  0.37316575480E+03  0.12500000000E+03 0.  0.
         25    1    1    2    0    0  0.27719397789E+03 -0.12931772968E+02  0.11293670084E+03  0.32462814192E+03  0.12500000000E+03 0.  0.
         25    1    1    2    0    0  0.53972691912E+02 -0.18571869230E+02  0.80880700307E+01  0.13765312447E+03  0.12500000000E+03 0.  0.
</event>
<event>
 5    0  0.5597833E-005  0.3540426E+03  0.7546771E-02  0.1060968E+00
         21   -1    0    0  502  501  0.00000000000E+00  0.00000000000E+00  0.16772319350E+03  0.16772319350E+03  0.00000000000E+00 0.  1.
         21   -1    0    0  501  502 -0.00000000000E+00 -0.00000000000E+00 -0.74733962801E+03  0.74733962801E+03  0.00000000000E+00 0.  1.
         25    1    1    2    0    0  0.14619157031E+03  0.61952587920E+02  0.74744372432E+01  0.20221514679E+03  0.12500000000E+03 0.  0.
         25    1    1    2    0    0  0.26423175590E+02 -0.73396342743E+02 -0.40948206535E+03  0.43518475293E+03  0.12500000000E+03 0.  0.
         25    1    1    2    0    0 -0.17261474590E+03  0.11443754824E+02 -0.17760880640E+03  0.27766292179E+03  0.12500000000E+03 0.  0.
</event>
<event>
 5    0  0.5597833E-005  0.3145961E+03  0.7546771E-02  0.1078164E+00
         21   -1    0    0  502  501  0.00000000000E+00  0.00000000000E+00  0.51340520156E+02  0.51340520156E+02  0.00000000000E+00 0.  1.
         21   -1    0    0  501  502 -0.00000000000E+00 -0.00000000000E+00 -0.19277309343E+04  0.19277309343E+04  0.00000000000E+00 0.  1.
         25    1    1    2    0    0 -0.83764341958E+02  0.10050546786E+03 -0.37958452233E+03  0.42050829201E+03  0.12500000000E+03 0.  0.
         25    1    1    2    0    0  0.11944298951E+03  0.10880438789E+02 -0.27633863482E+03  0.32614881999E+03  0.12500000000E+03 0.  0.
         25    1    1    2    0    0 -0.35678647547E+02 -0.11138590665E+03 -0.12204672570E+04  0.12324143424E+04  0.12500000000E+03 0.  0.
</event>
<event>
 5    0  0.5597833E-005  0.2630461E+03  0.7546771E-02  0.1105327E+00
         21   -1    0    0  502  501  0.00000000000E+00  0.00000000000E+00  0.85992781666E+03  0.85992781666E+03  0.00000000000E+00 0. -1.
         21   -1    0    0  501  502 -0.00000000000E+00 -0.00000000000E+00 -0.80464042765E+02  0.80464042765E+02  0.00000000000E+00 0. -1.
         25    1    1    2    0    0 -0.23331757193E+02  0.71126624941E+00  0.29704831907E+03  0.32312161898E+03  0.12500000000E+03 0.  0.
         25    1    1    2    0    0  0.44354723135E+02 -0.45547625945E+02  0.46007648415E+03  0.48097536211E+03  0.12500000000E+03 0.  0.
         25    1    1    2    0    0 -0.21022965941E+02  0.44836359696E+02  0.22338970679E+02  0.13629487833E+03  0.12500000000E+03 0.  0.
</event>
<event>
 5    0  0.5597833E-005  0.2916917E+03  0.7546771E-02  0.1089469E+00
         21   -1    0    0  502  501  0.00000000000E+00  0.00000000000E+00  0.15181717995E+04  0.15181717995E+04  0.00000000000E+00 0.  1.
         21   -1    0    0  501  502 -0.00000000000E+00 -0.00000000000E+00 -0.56043747507E+02  0.56043747507E+02  0.00000000000E+00 0.  1.
         25    1    1    2    0    0  0.16364815631E+02 -0.13919776884E+03  0.30783885666E+03  0.36060170231E+03  0.12500000000E+03 0.  0.
         25    1    1    2    0    0  0.68854822086E+02  0.16251507482E+03  0.77466822599E+03  0.80429347655E+03  0.12500000000E+03 0.  0.
         25    1    1    2    0    0 -0.85219637717E+02 -0.23317305985E+02  0.37962096934E+03  0.40932036814E+03  0.12500000000E+03 0.  0.
</event>
<event>
 5    0  0.5597833E-005  0.2924360E+03  0.7546771E-02  0.1089084E+00
         21   -1    0    0  502  501  0.00000000000E+00  0.00000000000E+00  0.44373949228E+03  0.44373949228E+03  0.00000000000E+00 0.  1.
         21   -1    0    0  501  502 -0.00000000000E+00 -0.00000000000E+00 -0.19272301155E+03  0.19272301155E+03  0.00000000000E+00 0.  1.
         25    1    1    2    0    0  0.91424998880E+02  0.11682746942E+03  0.40002812778E+02  0.19807173716E+03  0.12500000000E+03 0.  0.
         25    1    1    2    0    0 -0.14461319775E+03 -0.14870992137E+03  0.10923077220E+03  0.26567645600E+03  0.12500000000E+03 0.  0.
         25    1    1    2    0    0  0.53188198866E+02  0.31882451949E+02  0.10178289575E+03  0.17271431067E+03  0.12500000000E+03 0.  0.
</event>
<event>
 5    0  0.5597833E-005  0.2587257E+03  0.7546771E-02  0.1107911E+00
         21   -1    0    0  502  501  0.00000000000E+00  0.00000000000E+00  0.77779959476E+02  0.77779959476E+02  0.00000000000E+00 0.  1.
         21   -1    0    0  501  502 -0.00000000000E+00 -0.00000000000E+00 -0.86062014941E+03  0.86062014941E+03  0.00000000000E+00 0.  1.
         25    1    1    2    0    0 -0.82390756561E+02 -0.94927704785E+01 -0.24633209892E+03  0.28841437623E+03  0.12500000000E+03 0.  0.
         25    1    1    2    0    0 -0.20901666748E+02  0.11565369285E+03 -0.28179346469E+03  0.32991697908E+03  0.12500000000E+03 0.  0.
         25    1    1    2    0    0  0.10329242331E+03 -0.10616092237E+03 -0.25471462632E+03  0.32006875357E+03  0.12500000000E+03 0.  0.
</event>
<event>
 5    0  0.5597833E-005  0.3495128E+03  0.7546771E-02  0.1062815E+00
         21   -1    0    0  502  501  0.00000000000E+00  0.00000000000E+00  0.40553349695E+03  0.40553349695E+03  0.00000000000E+00 0. -1.
         21   -1    0    0  501  502 -0.00000000000E+00 -0.00000000000E+00 -0.30123076862E+03  0.30123076862E+03  0.00000000000E+00 0. -1.
         25    1    1    2    0    0 -0.15784645327E+03 -0.93443176083E+00  0.12108700279E+03  0.23495411939E+03  0.12500000000E+03 0.  0.
         25    1    1    2    0    0 -0.10685678478E+03  0.28333126140E+02 -0.54138278842E+02  0.17543400961E+03  0.12500000000E+03 0.  0.
         25    1    1    2    0    0  0.26470323805E+03 -0.27398694380E+02  0.37354004387E+02  0.29637613658E+03  0.12500000000E+03 0.  0.
</event>
<event>
 5    0  0.5597833E-005  0.4290685E+03  0.7546771E-02  0.1034155E+00
         21   -1    0    0  502  501  0.00000000000E+00  0.00000000000E+00  0.24782414433E+03  0.24782414433E+03  0.00000000000E+00 0. -1.
         21   -1    0    0  501  502 -0.00000000000E+00 -0.00000000000E+00 -0.74286453910E+03  0.74286453910E+03  0.00000000000E+00 0. -1.
         25    1    1    2    0    0 -0.31633901944E+02  0.27863052873E+03 -0.36834602650E+03  0.47952004184E+03  0.12500000000E+03 0.  0.
         25    1    1    2    0    0 -0.10089372254E+03 -0.24313759498E+02  0.23480556106E+02  0.16415553193E+03  0.12500000000E+03 0.  0.
         25    1    1    2    0    0  0.13252762448E+03 -0.25431676923E+03 -0.15017492438E+03  0.34701310966E+03  0.12500000000E+03 0.  0.
</event>
<event>
 5    0  0.5597833E-005  0.2388378E+03  0.7546771E-02  0.1120569E+00
         21   -1    0    0  502  501  0.00000000000E+00  0.00000000000E+00  0.56397374494E+03  0.56397374494E+03  0.00000000000E+00 0. -1.
         21   -1    0    0  501  502 -0.00000000000E+00 -0.00000000000E+00 -0.10114563673E+03  0.10114563673E+03  0.00000000000E+00 0. -1.
         25    1    1    2    0    0 -0.10316580481E+03  0.60150512256E+02  0.23334724015E+03  0.29040868081E+03  0.12500000000E+03 0.  0.
         25    1    1    2    0    0  0.10248071600E+03 -0.11772195873E+02  0.12037399939E+03  0.20188061194E+03  0.12500000000E+03 0.  0.
         25    1    1    2    0    0  0.68508880320E+00 -0.48378316383E+02  0.10910686867E+03  0.17283008891E+03  0.12500000000E+03 0.  0.
</event>
<event>
 5    0  0.5597833E-005  0.3645759E+03  0.7546771E-02  0.1056787E+00
         21   -1    0    0  502  501  0.00000000000E+00  0.00000000000E+00  0.22342855054E+04  0.22342855054E+04  0.00000000000E+00 0.  1.
         21   -1    0    0  501  502 -0.00000000000E+00 -0.00000000000E+00 -0.59489064799E+02  0.59489064799E+02  0.00000000000E+00 0.  1.
         25    1    1    2    0    0 -0.22156363890E+02 -0.21702042498E+03  0.87917782988E+03  0.91442190802E+03  0.12500000000E+03 0.  0.
         25    1    1    2    0    0  0.83440451693E+01 -0.60471611342E+02  0.65988353472E+03  0.67438692029E+03  0.12500000000E+03 0.  0.
         25    1    1    2    0    0  0.13812318721E+02  0.27749203632E+03  0.63573507598E+03  0.70496574186E+03  0.12500000000E+03 0.  0.
</event>
<event>
 5    0  0.5597833E-005  0.2588695E+03  0.7546771E-02  0.1107824E+00
         21   -1    0    0  502  501  0.00000000000E+00  0.00000000000E+00  0.24729792859E+03  0.24729792859E+03  0.00000000000E+00 0. -1.
         21   -1    0    0  501  502 -0.00000000000E+00 -0.00000000000E+00 -0.27098257926E+03  0.27098257926E+03  0.00000000000E+00 0. -1.
         25    1    1    2    0    0  0.29702390375E+01  0.20085886884E+02 -0.12220082539E+03  0.17598382567E+03  0.12500000000E+03 0.  0.
         25    1    1    2    0    0 -0.45420932411E+02  0.26953335910E+02 -0.43769575106E+02  0.14258442805E+03  0.12500000000E+03 0.  0.
         25    1    1    2    0    0  0.42450693374E+02 -0.47039222793E+02  0.14228574982E+03  0.19971225413E+03  0.12500000000E+03 0.  0.
</event>
<event>
 5    0  0.5597833E-005  0.2754068E+03  0.7546771E-02  0.1098224E+00
         21   -1    0    0  502  501  0.00000000000E+00  0.00000000000E+00  0.27644833266E+03  0.27644833266E+03  0.00000000000E+00 0.  1.
         21   -1    0    0  501  502 -0.00000000000E+00 -0.00000000000E+00 -0.27436926409E+03  0.27436926409E+03  0.00000000000E+00 0.  1.
         25    1    1    2    0    0 -0.11464057564E+03  0.90222132508E+02  0.29098574694E+02  0.19430445653E+03  0.12500000000E+03 0.  0.
         25    1    1    2    0    0  0.16325914835E+03 -0.76041218307E+02 -0.32002611204E+02  0.22155131127E+03  0.12500000000E+03 0.  0.
         25    1    1    2    0    0 -0.48618572707E+02 -0.14180914201E+02  0.49831050767E+01  0.13496182896E+03  0.12500000000E+03 0.  0.
</event>
<event>
 5    0  0.5597833E-005  0.3365770E+03  0.7546771E-02  0.1068263E+00
         21   -1    0    0  502  501  0.00000000000E+00  0.00000000000E+00  0.39988266376E+03  0.39988266376E+03  0.00000000000E+00 0.  1.
         21   -1    0    0  501  502 -0.00000000000E+00 -0.00000000000E+00 -0.28329329519E+03  0.28329329519E+03  0.00000000000E+00 0.  1.
         25    1    1    2    0    0  0.41804756787E+02  0.82450427450E+02 -0.32771444792E+02  0.15888573967E+03  0.12500000000E+03 0.  0.
         25    1    1    2    0    0 -0.16550666985E+03 -0.17497964752E+03 -0.69734971392E+01  0.27144790379E+03  0.12500000000E+03 0.  0.
         25    1    1    2    0    0  0.12370191306E+03  0.92529220070E+02  0.15633431050E+03  0.25284231549E+03  0.12500000000E+03 0.  0.
</event>
<event>
 5    0  0.5597833E-005  0.4102138E+03  0.7546771E-02  0.1040299E+00
         21   -1    0    0  502  501  0.00000000000E+00  0.00000000000E+00  0.29433490829E+03  0.29433490829E+03  0.00000000000E+00 0.  1.
         21   -1    0    0  501  502 -0.00000000000E+00 -0.00000000000E+00 -0.57171404249E+03  0.57171404249E+03  0.00000000000E+00 0.  1.
         25    1    1    2    0    0 -0.11944619604E+02 -0.13601687254E+03 -0.15518203281E+03  0.24155688121E+03  0.12500000000E+03 0.  0.
         25    1    1    2    0    0 -0.37332673930E+01 -0.14319450714E+03 -0.23122842382E+03  0.29934960856E+03  0.12500000000E+03 0.  0.
         25    1    1    2    0    0  0.15677886997E+02  0.27921137968E+03  0.10903132243E+03  0.32514246101E+03  0.12500000000E+03 0.  0.
</event>
<event>
 5    0  0.5597833E-005  0.2526291E+03  0.7546771E-02  0.1111654E+00
         21   -1    0    0  502  501  0.00000000000E+00  0.00000000000E+00  0.31784430579E+03  0.31784430579E+03  0.00000000000E+00 0. -1.
         21   -1    0    0  501  502 -0.00000000000E+00 -0.00000000000E+00 -0.20079478492E+03  0.20079478492E+03  0.00000000000E+00 0. -1.
         25    1    1    2    0    0  0.25741822164E+02 -0.57686323813E+02 -0.15271211634E+02  0.14088492917E+03  0.12500000000E+03 0.  0.
         25    1    1    2    0    0 -0.71662407349E+02  0.22593598975E+02 -0.45558613723E+02  0.15279580696E+03  0.12500000000E+03 0.  0.
         25    1    1    2    0    0  0.45920585186E+02  0.35092724838E+02  0.17787934622E+03  0.22495835457E+03  0.12500000000E+03 0.  0.
</event>
<event>
 5    0  0.5597833E-005  0.4253374E+03  0.7546771E-02  0.1035343E+00
         21   -1    0    0  502  501  0.00000000000E+00  0.00000000000E+00  0.69620656136E+03  0.69620656136E+03  0.00000000000E+00 0.  1.
         21   -1    0    0  501  502 -0.00000000000E+00 -0.00000000000E+00 -0.25985377750E+03  0.25985377750E+03  0.00000000000E+00 0.  1.
         25    1    1    2    0    0 -0.20309888753E+03  0.12108561860E+03 -0.12217764285E+03  0.29404635954E+03  0.12500000000E+03 0.  0.
         25    1    1    2    0    0  0.10787109080E+03 -0.35736882917E+02  0.33989837224E+03  0.37956448791E+03  0.12500000000E+03 0.  0.
         25    1    1    2    0    0  0.95227796726E+02 -0.85348735683E+02  0.21863205448E+03  0.28244949141E+03  0.12500000000E+03 0.  0.
</event>
<event>
 5    0  0.5597833E-005  0.2993555E+03  0.7546771E-02  0.1085563E+00
         21   -1    0    0  502  501  0.00000000000E+00  0.00000000000E+00  0.18512382787E+03  0.18512382787E+03  0.00000000000E+00 0.  1.
         21   -1    0    0  501  502 -0.00000000000E+00 -0.00000000000E+00 -0.48407444401E+03  0.48407444401E+03  0.00000000000E+00 0.  1.
         25    1    1    2    0    0  0.96793596102E+02 -0.63473205814E+02 -0.22057021305E+03  0.27870067633E+03  0.12500000000E+03 0.  0.
         25    1    1    2    0    0 -0.32891672984E+02 -0.97579804847E+02 -0.70691755588E+02  0.17670881351E+03  0.12500000000E+03 0.  0.
         25    1    1    2    0    0 -0.63901923118E+02  0.16105301066E+03 -0.76886475033E+01  0.21378878203E+03  0.12500000000E+03 0.  0.
</event>
<event>
 5    0  0.5597833E-005  0.4166200E+03  0.7546771E-02  0.1038172E+00
         21   -1    0    0  502  501  0.00000000000E+00  0.00000000000E+00  0.39179909852E+03  0.39179909852E+03  0.00000000000E+00 0.  1.
         21   -1    0    0  501  502 -0.00000000000E+00 -0.00000000000E+00 -0.44301325530E+03  0.44301325530E+03  0.00000000000E+00 0.  1.
         25    1    1    2    0    0  0.84272762106E+02 -0.57353781718E+02  0.43900882720E+02  0.16716351939E+03  0.12500000000E+03 0.  0.
         25    1    1    2    0    0 -0.27362423361E+02 -0.26376627347E+03  0.34339060660E+02  0.29517032425E+03  0.12500000000E+03 0.  0.
         25    1    1    2    0    0 -0.56910338745E+02  0.32112005518E+03 -0.12945410017E+03  0.37247851018E+03  0.12500000000E+03 0.  0.
</event>
<event>
 5    0  0.5597833E-005  0.3074786E+03  0.7546771E-02  0.1081561E+00
         21   -1    0    0  502  501  0.00000000000E+00  0.00000000000E+00  0.35495384177E+03  0.35495384177E+03  0.00000000000E+00 0.  1.
         21   -1    0    0  501  502 -0.00000000000E+00 -0.00000000000E+00 -0.26635318286E+03  0.26635318286E+03  0.00000000000E+00 0. -1.
         25    1    1    2    0    0  0.33790308779E+02 -0.18871030409E+02  0.17261757518E+02  0.13198813973E+03  0.12500000000E+03 0.  0.
         25    1    1    2    0    0  0.56652918905E+02 -0.18138016542E+03  0.30814818833E+01  0.22747046657E+03  0.12500000000E+03 0.  0.
         25    1    1    2    0    0 -0.90443227684E+02  0.20025119583E+03  0.68257419511E+02  0.26184841834E+03  0.12500000000E+03 0.  0.
</event>
<event>
 5    0  0.5597833E-005  0.2776452E+03  0.7546771E-02  0.1096982E+00
         21   -1    0    0  502  501  0.00000000000E+00  0.00000000000E+00  0.40009641297E+03  0.40009641297E+03  0.00000000000E+00 0.  1.
         21   -1    0    0  501  502 -0.00000000000E+00 -0.00000000000E+00 -0.19267072154E+03  0.19267072154E+03  0.00000000000E+00 0.  1.
         25    1    1    2    0    0 -0.13805722590E+02 -0.11023348987E+03  0.18797957826E+03  0.25160155426E+03  0.12500000000E+03 0.  0.
         25    1    1    2    0    0 -0.66910823325E+02  0.10670946570E+03  0.59277865712E+02  0.18709044260E+03  0.12500000000E+03 0.  0.
         25    1    1    2    0    0  0.80716545916E+02  0.35240241744E+01 -0.39831752543E+02  0.15407513765E+03  0.12500000000E+03 0.  0.
</event>
<event>
 5    0  0.5597833E-005  0.2474784E+03  0.7546771E-02  0.1114909E+00
         21   -1    0    0  502  501  0.00000000000E+00  0.00000000000E+00  0.36575753285E+02  0.36575753285E+02  0.00000000000E+00 0.  1.
         21   -1    0    0  501  502 -0.00000000000E+00 -0.00000000000E+00 -0.16744851673E+04  0.16744851673E+04  0.00000000000E+00 0.  1.
         25    1    1    2    0    0 -0.31573948209E+02  0.27086782257E+02 -0.48211816877E+03  0.49979349399E+03  0.12500000000E+03 0.  0.
         25    1    1    2    0    0  0.85508596909E+02  0.48559922888E+02 -0.28246387991E+03  0.32416142539E+03  0.12500000000E+03 0.  0.
         25    1    1    2    0    0 -0.53934648700E+02 -0.75646705144E+02 -0.87332736534E+03  0.88710600121E+03  0.12500000000E+03 0.  0.
</event>
<event>
 5    0  0.5597833E-005  0.2784041E+03  0.7546771E-02  0.1096564E+00
         21   -1    0    0  502  501  0.00000000000E+00  0.00000000000E+00  0.14933189781E+03  0.14933189781E+03  0.00000000000E+00 0.  1.
         21   -1    0    0  501  502 -0.00000000000E+00 -0.00000000000E+00 -0.51903757117E+03  0.51903757117E+03  0.00000000000E+00 0.  1.
         25    1    1    2    0    0 -0.20492718287E+02  0.95263303237E+01 -0.90998172577E+02  0.15625738346E+03  0.12500000000E+03 0.  0.
         25    1    1    2    0    0  0.14706615174E+02 -0.13727235025E+03 -0.27638164260E+03  0.33327435401E+03  0.12500000000E+03 0.  0.
         25    1    1    2    0    0  0.57861031131E+01  0.12774601993E+03 -0.23258581781E+01  0.17883773151E+03  0.12500000000E+03 0.  0.
</event>
<event>
 5    0  0.5597833E-005  0.2628437E+03  0.7546771E-02  0.1105447E+00
         21   -1    0    0  502  501  0.00000000000E+00  0.00000000000E+00  0.56506242866E+02  0.56506242866E+02  0.00000000000E+00 0.  1.
         21   -1    0    0  501  502 -0.00000000000E+00 -0.00000000000E+00 -0.12226400140E+04  0.12226400140E+04  0.00000000000E+00 0.  1.
         25    1    1    2    0    0 -0.64685260126E+02 -0.20768644624E+01 -0.27354683729E+03  0.30763837283E+03  0.12500000000E+03 0.  0.
         25    1    1    2    0    0  0.14814371516E+03 -0.48304686277E+02 -0.66352870369E+03  0.69294678271E+03  0.12500000000E+03 0.  0.
         25    1    1    2    0    0 -0.83458455037E+02  0.50381550740E+02 -0.22905823019E+03  0.27856110136E+03  0.12500000000E+03 0.  0.
</event>
<event>
 5    0  0.5699518E-005  0.3879600E+03  0.7546771E-02  0.1048030E+00
         21   -1    0    0  502  501  0.00000000000E+00  0.00000000000E+00  0.76593159610E+03  0.76593159610E+03  0.00000000000E+00 0. -1.
         21   -1    0    0  501  502 -0.00000000000E+00 -0.00000000000E+00 -0.19650967813E+03  0.19650967813E+03  0.00000000000E+00 0. -1.
         25    1    1    2    0    0  0.12411237189E+03 -0.32815129035E+02  0.34844249937E+03  0.39181358950E+03  0.12500000000E+03 0.  0.
         25    1    1    2    0    0 -0.23117903427E+03 -0.11841069399E+03  0.18936837221E+03  0.34489160432E+03  0.12500000000E+03 0.  0.
         25    1    1    2    0    0  0.10706666238E+03  0.15122582303E+03  0.31611046391E+02  0.22573608041E+03  0.12500000000E+03 0.  0.
</event>
<event>
 5    0  0.5597833E-005  0.3224194E+03  0.7546771E-02  0.1074541E+00
         21   -1    0    0  502  501  0.00000000000E+00  0.00000000000E+00  0.10964345081E+04  0.10964345081E+04  0.00000000000E+00 0.  1.
         21   -1    0    0  501  502 -0.00000000000E+00 -0.00000000000E+00 -0.94811226816E+02  0.94811226816E+02  0.00000000000E+00 0.  1.
         25    1    1    2    0    0 -0.51991211939E+01  0.89104127667E+02  0.32019475988E+03  0.35512851292E+03  0.12500000000E+03 0.  0.
         25    1    1    2    0    0 -0.14509393763E+03 -0.13339457981E+02  0.96731890175E+02  0.21497034785E+03  0.12500000000E+03 0.  0.
         25    1    1    2    0    0  0.15029305883E+03 -0.75764669685E+02  0.58469663126E+03  0.62114687419E+03  0.12500000000E+03 0.  0.
</event>
<event>
 5    0  0.5597833E-005  0.3946940E+03  0.7546771E-02  0.1045633E+00
         21   -1    0    0  502  501  0.00000000000E+00  0.00000000000E+00  0.22219879656E+03  0.22219879656E+03  0.00000000000E+00 0. -1.
         21   -1    0    0  501  502 -0.00000000000E+00 -0.00000000000E+00 -0.70109909191E+03  0.70109909191E+03  0.00000000000E+00 0. -1.
         25    1    1    2    0    0 -0.98544329782E+02 -0.77085105981E+02 -0.99933632833E+02  0.20313746446E+03  0.12500000000E+03 0.  0.
         25    1    1    2    0    0  0.18878730408E+03 -0.17525245587E+03 -0.29867483990E+03  0.41374597214E+03  0.12500000000E+03 0.  0.
         25    1    1    2    0    0 -0.90242974298E+02  0.25233756185E+03 -0.80291822618E+02  0.30641445186E+03  0.12500000000E+03 0.  0.
</event>
<event>
 5    0  0.5597833E-005  0.2869689E+03  0.7546771E-02  0.1091942E+00
         21   -1    0    0  502  501  0.00000000000E+00  0.00000000000E+00  0.27047888762E+03  0.27047888762E+03  0.00000000000E+00 0. -1.
         21   -1    0    0  501  502 -0.00000000000E+00 -0.00000000000E+00 -0.30446427304E+03  0.30446427304E+03  0.00000000000E+00 0. -1.
         25    1    1    2    0    0 -0.81157651167E+02  0.14652902819E+01 -0.85514260908E+02  0.17183247725E+03  0.12500000000E+03 0.  0.
         25    1    1    2    0    0 -0.56327940378E+02 -0.57324168530E+02  0.12644439908E+03  0.19512068886E+03  0.12500000000E+03 0.  0.
         25    1    1    2    0    0  0.13748559154E+03  0.55858878248E+02 -0.74915523586E+02  0.20798999456E+03  0.12500000000E+03 0.  0.
</event>
<event>
 5    0  0.5597833E-005  0.2748098E+03  0.7546771E-02  0.1098558E+00
         21   -1    0    0  502  501  0.00000000000E+00  0.00000000000E+00  0.51576774425E+03  0.51576774425E+03  0.00000000000E+00 0. -1.
         21   -1    0    0  501  502 -0.00000000000E+00 -0.00000000000E+00 -0.14642331757E+03  0.14642331757E+03  0.00000000000E+00 0. -1.
         25    1    1    2    0    0  0.94285126173E+02 -0.75227850358E+02  0.53328504639E+02  0.18170812831E+03  0.12500000000E+03 0.  0.
         25    1    1    2    0    0  0.39341304408E+02  0.84056405458E+01  0.30441074794E+02  0.13479633548E+03  0.12500000000E+03 0.  0.
         25    1    1    2    0    0 -0.13362643058E+03  0.66822209813E+02  0.28557484724E+03  0.34568659802E+03  0.12500000000E+03 0.  0.
</event>
<event>
 5    0  0.5597833E-005  0.2799738E+03  0.7546771E-02  0.1095703E+00
         21   -1    0    0  502  501  0.00000000000E+00  0.00000000000E+00  0.59790364663E+02  0.59790364663E+02  0.00000000000E+00 0. -1.
         21   -1    0    0  501  502 -0.00000000000E+00 -0.00000000000E+00 -0.13110031007E+04  0.13110031007E+04  0.00000000000E+00 0. -1.
         25    1    1    2    0    0 -0.70162384358E+02  0.14761472167E+03 -0.75985453599E+03  0.78722092331E+03  0.12500000000E+03 0.  0.
         25    1    1    2    0    0 -0.11267492252E+02 -0.45594713911E+02 -0.22635725599E+03  0.26280875491E+03  0.12500000000E+03 0.  0.
         25    1    1    2    0    0  0.81429876610E+02 -0.10202000776E+03 -0.26500094401E+03  0.32076378710E+03  0.12500000000E+03 0.  0.
</event>
<event>
 5    0  0.5597833E-005  0.2057778E+03  0.7546771E-02  0.1144954E+00
         21   -1    0    0  502  501  0.00000000000E+00  0.00000000000E+00  0.40266241522E+03  0.40266241522E+03  0.00000000000E+00 0. -1.
         21   -1    0    0  501  502 -0.00000000000E+00 -0.00000000000E+00 -0.10516133459E+03  0.10516133459E+03  0.00000000000E+00 0. -1.
         25    1    1    2    0    0 -0.91333784874E+01 -0.91896295878E+00  0.33013227621E+02  0.12961148211E+03  0.12500000000E+03 0.  0.
         25    1    1    2    0    0 -0.27632838196E+02  0.19726977013E+02  0.18009941708E+03  0.22184122115E+03  0.12500000000E+03 0.  0.
         25    1    1    2    0    0  0.36766216684E+02 -0.18808014054E+02  0.84388435926E+02  0.15637104655E+03  0.12500000000E+03 0.  0.
</event>
<event>
 5    0  0.5597833E-005  0.2410562E+03  0.7546771E-02  0.1119091E+00
         21   -1    0    0  502  501  0.00000000000E+00  0.00000000000E+00  0.97343299920E+02  0.97343299920E+02  0.00000000000E+00 0. -1.
         21   -1    0    0  501  502 -0.00000000000E+00 -0.00000000000E+00 -0.59693968307E+03  0.59693968307E+03  0.00000000000E+00 0. -1.
         25    1    1    2    0    0  0.19871276285E+02  0.81557967084E+02 -0.22799208957E+03  0.27322511327E+03  0.12500000000E+03 0.  0.
         25    1    1    2    0    0 -0.16993479901E+02  0.34156817821E+01 -0.23308200998E+03  0.26505219980E+03  0.12500000000E+03 0.  0.
         25    1    1    2    0    0 -0.28777963841E+01 -0.84973648866E+02 -0.38522283599E+02  0.15600566992E+03  0.12500000000E+03 0.  0.
</event>
<event>
 5    0  0.5597833E-005  0.3485191E+03  0.7546771E-02  0.1063224E+00
         21   -1    0    0  502  501  0.00000000000E+00  0.00000000000E+00  0.55737093738E+03  0.55737093738E+03  0.00000000000E+00 0.  1.
         21   -1    0    0  501  502 -0.00000000000E+00 -0.00000000000E+00 -0.21792594693E+03  0.21792594693E+03  0.00000000000E+00 0.  1.
         25    1    1    2    0    0  0.13731350559E+03 -0.14422449437E+02  0.28962723672E+03  0.34434276835E+03  0.12500000000E+03 0.  0.
         25    1    1    2    0    0 -0.21138948644E+03  0.37419210833E+02 -0.49707950469E+02  0.25334086259E+03  0.12500000000E+03 0.  0.
         25    1    1    2    0    0  0.74075980857E+02 -0.22996761396E+02  0.99525704204E+02  0.17761325337E+03  0.12500000000E+03 0.  0.
</event>
<event>
 5    0  0.5597833E-005  0.2499360E+03  0.7546771E-02  0.1113345E+00
         21   -1    0    0  502  501  0.00000000000E+00  0.00000000000E+00  0.41522319477E+03  0.41522319477E+03  0.00000000000E+00 0. -1.
         21   -1    0    0  501  502 -0.00000000000E+00 -0.00000000000E+00 -0.15044441290E+03  0.15044441290E+03  0.00000000000E+00 0. -1.
         25    1    1    2    0    0 -0.72953354203E+02  0.61259590367E+02  0.15117426557E+02  0.15788751023E+03  0.12500000000E+03 0.  0.
         25    1    1    2    0    0  0.11713554477E+03 -0.64781505247E+02  0.10330695712E+03  0.21027293373E+03  0.12500000000E+03 0.  0.
         25    1    1    2    0    0 -0.44182190566E+02  0.35219148796E+01  0.14635439820E+03  0.19750716372E+03  0.12500000000E+03 0.  0.
</event>
<event>
 5    0  0.5597833E-005  0.2648400E+03  0.7546771E-02  0.1104270E+00
         21   -1    0    0  502  501  0.00000000000E+00  0.00000000000E+00  0.65155525623E+02  0.65155525623E+02  0.00000000000E+00 0.  1.
         21   -1    0    0  501  502 -0.00000000000E+00 -0.00000000000E+00 -0.10765044866E+04  0.10765044866E+04  0.00000000000E+00 0.  1.
         25    1    1    2    0    0 -0.11758803496E+03  0.67840209208E+01 -0.17325691640E+03  0.24395886535E+03  0.12500000000E+03 0.  0.
         25    1    1    2    0    0  0.17564896686E+02 -0.34318525106E+02 -0.19792735637E+03  0.23724781382E+03  0.12500000000E+03 0.  0.
         25    1    1    2    0    0  0.10002313827E+03  0.27534504186E+02 -0.64016468822E+03  0.66045333307E+03  0.12500000000E+03 0.  0.
</event>
<event>
 5    0  0.5597833E-005  0.3539819E+03  0.7546771E-02  0.1060992E+00
         21   -1    0    0  502  501  0.00000000000E+00  0.00000000000E+00  0.85581237707E+03  0.85581237707E+03  0.00000000000E+00 0.  1.
         21   -1    0    0  501  502 -0.00000000000E+00 -0.00000000000E+00 -0.14641435782E+03  0.14641435782E+03  0.00000000000E+00 0.  1.
         25    1    1    2    0    0  0.65964815978E+02  0.15032892164E+03  0.46634817095E+03  0.50995662382E+03  0.12500000000E+03 0.  0.
         25    1    1    2    0    0 -0.20266412623E+02 -0.10191441676E+03  0.29873236068E+03  0.34009307423E+03  0.12500000000E+03 0.  0.
         25    1    1    2    0    0 -0.45698403354E+02 -0.48414504886E+02 -0.55682512386E+02  0.15217703683E+03  0.12500000000E+03 0.  0.
</event>
<event>
 5    0  0.5597833E-005  0.2356977E+03  0.7546771E-02  0.1122693E+00
         21   -1    0    0  502  501  0.00000000000E+00  0.00000000000E+00  0.37697320650E+03  0.37697320650E+03  0.00000000000E+00 0. -1.
         21   -1    0    0  501  502 -0.00000000000E+00 -0.00000000000E+00 -0.14736694988E+03  0.14736694988E+03  0.00000000000E+00 0. -1.
         25    1    1    2    0    0 -0.73412340270E+02  0.40760700548E+01  0.13067348382E+03  0.19520897885E+03  0.12500000000E+03 0.  0.
         25    1    1    2    0    0  0.65544815249E+02 -0.39702723949E+02 -0.25731724520E+02  0.14886084355E+03  0.12500000000E+03 0.  0.
         25    1    1    2    0    0  0.78675250210E+01  0.35626653894E+02  0.12466449732E+03  0.18027033397E+03  0.12500000000E+03 0.  0.
</event>
<event>
 5    0  0.5597833E-005  0.2701350E+03  0.7546771E-02  0.1101202E+00
         21   -1    0    0  502  501  0.00000000000E+00  0.00000000000E+00  0.65298702577E+03  0.65298702577E+03  0.00000000000E+00 0.  1.
         21   -1    0    0  501  502 -0.00000000000E+00 -0.00000000000E+00 -0.11175245977E+03  0.11175245977E+03  0.00000000000E+00 0.  1.
         25    1    1    2    0    0  0.11798068450E+02  0.11909816203E+03  0.12591195499E+03  0.21401492244E+03  0.12500000000E+03 0.  0.
         25    1    1    2    0    0 -0.93504347428E+01 -0.96410784674E+02  0.53025034745E+02  0.16679066023E+03  0.12500000000E+03 0.  0.
         25    1    1    2    0    0 -0.24476337072E+01 -0.22687377357E+02  0.36229757627E+03  0.38393390287E+03  0.12500000000E+03 0.  0.
</event>
<event>
 5    0  0.5597833E-005  0.2589028E+03  0.7546771E-02  0.1107804E+00
         21   -1    0    0  502  501  0.00000000000E+00  0.00000000000E+00  0.21630970212E+03  0.21630970212E+03  0.00000000000E+00 0. -1.
         21   -1    0    0  501  502 -0.00000000000E+00 -0.00000000000E+00 -0.30988274606E+03  0.30988274606E+03  0.00000000000E+00 0. -1.
         25    1    1    2    0    0 -0.10053673544E+03 -0.11423134929E+03  0.18601902158E+02  0.19780664068E+03  0.12500000000E+03 0.  0.
         25    1    1    2    0    0  0.68909571327E+02  0.19353406393E+02 -0.81131042127E+02  0.16531887175E+03  0.12500000000E+03 0.  0.
         25    1    1    2    0    0  0.31627164116E+02  0.94877942900E+02 -0.31043903968E+02  0.16306693574E+03  0.12500000000E+03 0.  0.
</event>
<event>
 5    0  0.5597833E-005  0.2773740E+03  0.7546771E-02  0.1097132E+00
         21   -1    0    0  502  501  0.00000000000E+00  0.00000000000E+00  0.17190014260E+03  0.17190014260E+03  0.00000000000E+00 0.  1.
         21   -1    0    0  501  502 -0.00000000000E+00 -0.00000000000E+00 -0.44756414851E+03  0.44756414851E+03  0.00000000000E+00 0.  1.
         25    1    1    2    0    0  0.79036877164E+02  0.10557932687E+03 -0.15864109018E+02  0.18240200703E+03  0.12500000000E+03 0.  0.
         25    1    1    2    0    0  0.92018631004E+01 -0.32772630875E+01 -0.21297784719E+03  0.24714363866E+03  0.12500000000E+03 0.  0.
         25    1    1    2    0    0 -0.88238740264E+02 -0.10230206379E+03 -0.46822049701E+02  0.18991864541E+03  0.12500000000E+03 0.  0.
</event>
<event>
 5    0  0.5597833E-005  0.5772386E+03  0.7546771E-02  0.9953787E-01
         21   -1    0    0  502  501  0.00000000000E+00  0.00000000000E+00  0.12596879947E+03  0.12596879947E+03  0.00000000000E+00 0.  1.
         21   -1    0    0  501  502 -0.00000000000E+00 -0.00000000000E+00 -0.26451344833E+04  0.26451344833E+04  0.00000000000E+00 0.  1.
         25    1    1    2    0    0 -0.37920921726E+03 -0.20977385732E+02 -0.11677728887E+04  0.12343249980E+04  0.12500000000E+03 0.  0.
         25    1    1    2    0    0 -0.31891174123E+02 -0.20717339583E+03 -0.49321625498E+03  0.55029549980E+03  0.12500000000E+03 0.  0.
         25    1    1    2    0    0  0.41110039138E+03  0.22815078156E+03 -0.85817654019E+03  0.98648278498E+03  0.12500000000E+03 0.  0.
</event>
<event>
 5    0  0.5597833E-005  0.2147111E+03  0.7546771E-02  0.1137889E+00
         21   -1    0    0  502  501  0.00000000000E+00  0.00000000000E+00  0.78924047644E+02  0.78924047644E+02  0.00000000000E+00 0.  1.
         21   -1    0    0  501  502 -0.00000000000E+00 -0.00000000000E+00 -0.58411663067E+03  0.58411663067E+03  0.00000000000E+00 0.  1.
         25    1    1    2    0    0  0.73545756645E+02  0.22273093186E+02 -0.22216793596E+03  0.26624924557E+03  0.12500000000E+03 0.  0.
         25    1    1    2    0    0  0.65631225879E+01 -0.13394628778E+02 -0.98839620356E+02  0.16005237021E+03  0.12500000000E+03 0.  0.
         25    1    1    2    0    0 -0.80108879233E+02 -0.88784644078E+01 -0.18418502672E+03  0.23673906253E+03  0.12500000000E+03 0.  0.
</event>
<event>
 5    0  0.5597833E-005  0.2915765E+03  0.7546771E-02  0.1089529E+00
         21   -1    0    0  502  501  0.00000000000E+00  0.00000000000E+00  0.74730015468E+02  0.74730015468E+02  0.00000000000E+00 0. -1.
         21   -1    0    0  501  502 -0.00000000000E+00 -0.00000000000E+00 -0.11376535303E+04  0.11376535303E+04  0.00000000000E+00 0. -1.
         25    1    1    2    0    0 -0.42324990382E+02  0.26479667223E+02 -0.66732699773E+03  0.68076640597E+03  0.12500000000E+03 0.  0.
         25    1    1    2    0    0 -0.82940173456E+02 -0.29514787684E+02 -0.28354740622E+03  0.32214022822E+03  0.12500000000E+03 0.  0.
         25    1    1    2    0    0  0.12526516384E+03  0.30351204603E+01 -0.11204911083E+03  0.20947691153E+03  0.12500000000E+03 0.  0.
</event>
<event>
 5    0  0.5597833E-005  0.4240110E+03  0.7546771E-02  0.1035769E+00
         21   -1    0    0  502  501  0.00000000000E+00  0.00000000000E+00  0.13399131843E+03  0.13399131843E+03  0.00000000000E+00 0. -1.
         21   -1    0    0  501  502 -0.00000000000E+00 -0.00000000000E+00 -0.13417685532E+04  0.13417685532E+04  0.00000000000E+00 0. -1.
         25    1    1    2    0    0 -0.24442150825E+03 -0.16201285874E+03 -0.88217517466E+03  0.93800217424E+03  0.12500000000E+03 0.  0.
         25    1    1    2    0    0  0.14970920326E+03  0.18025939977E+03 -0.16563280629E+03  0.31299444606E+03  0.12500000000E+03 0.  0.
         25    1    1    2    0    0  0.94712304992E+02 -0.18246541037E+02 -0.15996925382E+03  0.22476325132E+03  0.12500000000E+03 0.  0.
</event>
<event>
 5    0  0.5597833E-005  0.2462560E+03  0.7546771E-02  0.1115694E+00
         21   -1    0    0  502  501  0.00000000000E+00  0.00000000000E+00  0.47661177084E+02  0.47661177084E+02  0.00000000000E+00 0.  1.
         21   -1    0    0  501  502 -0.00000000000E+00 -0.00000000000E+00 -0.12723571526E+04  0.12723571526E+04  0.00000000000E+00 0.  1.
         25    1    1    2    0    0  0.43920226371E+02  0.51209466409E+02 -0.44001598146E+03  0.46237480433E+03  0.12500000000E+03 0.  0.
         25    1    1    2    0    0  0.78248766424E+02 -0.38031148827E+02 -0.22937232208E+03  0.27532871239E+03  0.12500000000E+03 0.  0.
         25    1    1    2    0    0 -0.12216899280E+03 -0.13178317582E+02 -0.55530767200E+03  0.58231481300E+03  0.12500000000E+03 0.  0.
</event>
<event>
 5    0  0.5597833E-005  0.2536640E+03  0.7546771E-02  0.1111011E+00
         21   -1    0    0  502  501  0.00000000000E+00  0.00000000000E+00  0.11472735527E+03  0.11472735527E+03  0.00000000000E+00 0. -1.
         21   -1    0    0  501  502 -0.00000000000E+00 -0.00000000000E+00 -0.56085517192E+03  0.56085517192E+03  0.00000000000E+00 0. -1.
         25    1    1    2    0    0  0.13162128997E+03  0.31449254957E+02 -0.23440496008E+03  0.29813403851E+03  0.12500000000E+03 0.  0.
         25    1    1    2    0    0 -0.12419333241E+02  0.71175027667E+01 -0.13504583129E+03  0.18457322459E+03  0.12500000000E+03 0.  0.
         25    1    1    2    0    0 -0.11920195673E+03 -0.38566757723E+02 -0.76677025275E+02  0.19287526408E+03  0.12500000000E+03 0.  0.
</event>
<event>
 5    0  0.5597833E-005  0.3810368E+03  0.7546771E-02  0.1050551E+00
         21   -1    0    0  502  501  0.00000000000E+00  0.00000000000E+00  0.40382648500E+03  0.40382648500E+03  0.00000000000E+00 0. -1.
         21   -1    0    0  501  502 -0.00000000000E+00 -0.00000000000E+00 -0.35953327006E+03  0.35953327006E+03  0.00000000000E+00 0. -1.
         25    1    1    2    0    0  0.14779035910E+03  0.17366463266E+03 -0.16370074445E+03  0.30728541881E+03  0.12500000000E+03 0.  0.
         25    1    1    2    0    0 -0.10454898237E+03  0.24008369290E+01  0.16458476148E+03  0.23162339572E+03  0.12500000000E+03 0.  0.
         25    1    1    2    0    0 -0.43241376728E+02 -0.17606546959E+03  0.43409197911E+02  0.22445094053E+03  0.12500000000E+03 0.  0.
</event>
<event>
 5    0  0.5597833E-005  0.2842811E+03  0.7546771E-02  0.1093373E+00
         21   -1    0    0  502  501  0.00000000000E+00  0.00000000000E+00  0.41496966058E+03  0.41496966058E+03  0.00000000000E+00 0. -1.
         21   -1    0    0  501  502 -0.00000000000E+00 -0.00000000000E+00 -0.19475092975E+03  0.19475092975E+03  0.00000000000E+00 0. -1.
         25    1    1    2    0    0 -0.11439909866E+02 -0.11786532494E+03  0.14736904067E+03  0.22664011231E+03  0.12500000000E+03 0.  0.
         25    1    1    2    0    0  0.47891971027E+02  0.13731809631E+03  0.13793191799E+03  0.23622047850E+03  0.12500000000E+03 0.  0.
         25    1    1    2    0    0 -0.36452061161E+02 -0.19452771375E+02 -0.65082227836E+02  0.14685999951E+03  0.12500000000E+03 0.  0.
</event>
<event>
 5    0  0.5597833E-005  0.3730464E+03  0.7546771E-02  0.1053534E+00
         21   -1    0    0  502  501  0.00000000000E+00  0.00000000000E+00  0.22587501583E+03  0.22587501583E+03  0.00000000000E+00 0. -1.
         21   -1    0    0  501  502 -0.00000000000E+00 -0.00000000000E+00 -0.61610894462E+03  0.61610894462E+03  0.00000000000E+00 0. -1.
         25    1    1    2    0    0 -0.77002580658E+02  0.88518024016E+02 -0.39415343315E+02  0.17590738271E+03  0.12500000000E+03 0.  0.
         25    1    1    2    0    0  0.10194048048E+03 -0.10673573608E+03  0.85269530977E+02  0.21137708445E+03  0.12500000000E+03 0.  0.
         25    1    1    2    0    0 -0.24937899822E+02  0.18217712067E+02 -0.43608811646E+03  0.45469949329E+03  0.12500000000E+03 0.  0.
</event>
<event>
 5    0  0.6819633E-005  0.2938321E+03  0.7546771E-02  0.1088365E+00
         21   -1    0    0  502  501  0.00000000000E+00  0.00000000000E+00  0.26072228432E+03  0.26072228432E+03  0.00000000000E+00 0.  1.
         21   -1    0    0  501  502 -0.00000000000E+00 -0.00000000000E+00 -0.33114652958E+03  0.33114652958E+03  0.00000000000E+00 0.  1.
         25    1    1    2    0    0 -0.15592877156E+02  0.63314383601E+02 -0.10008806511E+03  0.17290017284E+03  0.12500000000E+03 0.  0.
         25    1    1    2    0    0  0.89985827359E+02 -0.28311594874E+02 -0.12752709087E+03  0.20195829875E+03  0.12500000000E+03 0.  0.
         25    1    1    2    0    0 -0.74392950203E+02 -0.35002788727E+02  0.15719091072E+03  0.21701034231E+03  0.12500000000E+03 0.  0.
</event>
<event>
 5    0  0.5599798E-005  0.3804024E+03  0.7546771E-02  0.1050785E+00
         21   -1    0    0  502  501  0.00000000000E+00  0.00000000000E+00  0.58336817406E+03  0.58336817406E+03  0.00000000000E+00 0.  1.
         21   -1    0    0  501  502 -0.00000000000E+00 -0.00000000000E+00 -0.24805253311E+03  0.24805253311E+03  0.00000000000E+00 0.  1.
         25    1    1    2    0    0  0.12601023394E+03 -0.12548636884E+03  0.32243940632E+03  0.38886704485E+03  0.12500000000E+03 0.  0.
         25    1    1    2    0    0  0.88182252342E+02  0.78535924738E+02 -0.56131934931E+02  0.18088613883E+03  0.12500000000E+03 0.  0.
         25    1    1    2    0    0 -0.21419248629E+03  0.46950444097E+02  0.69008169562E+02  0.26166752349E+03  0.12500000000E+03 0.  0.
</event>
<event>
 5    0  0.5597833E-005  0.2344463E+03  0.7546771E-02  0.1123549E+00
         21   -1    0    0  502  501  0.00000000000E+00  0.00000000000E+00  0.34719822141E+03  0.34719822141E+03  0.00000000000E+00 0. -1.
         21   -1    0    0  501  502 -0.00000000000E+00 -0.00000000000E+00 -0.15831033573E+03  0.15831033573E+03  0.00000000000E+00 0. -1.
         25    1    1    2    0    0 -0.13858598310E+02  0.10154830778E+03  0.14966239816E+03  0.22029061029E+03  0.12500000000E+03 0.  0.
         25    1    1    2    0    0  0.42499259141E+02 -0.56455984205E+02 -0.51413491748E+00  0.14359223348E+03  0.12500000000E+03 0.  0.
         25    1    1    2    0    0 -0.28640660831E+02 -0.45092323571E+02  0.39739622436E+02  0.14162571338E+03  0.12500000000E+03 0.  0.
</event>
<event>
 5    0  0.5597833E-005  0.4475606E+03  0.7546771E-02  0.1028452E+00
         21   -1    0    0  502  501  0.00000000000E+00  0.00000000000E+00  0.26769660408E+03  0.26769660408E+03  0.00000000000E+00 0.  1.
         21   -1    0    0  501  502 -0.00000000000E+00 -0.00000000000E+00 -0.74827420244E+03  0.74827420244E+03  0.00000000000E+00 0.  1.
         25    1    1    2    0    0 -0.58080336327E+02 -0.60944493629E+02 -0.97107222849E+02  0.17928293143E+03  0.12500000000E+03 0.  0.
         25    1    1    2    0    0 -0.20942183192E+02  0.37145104508E+03 -0.14604291762E+03  0.41876961174E+03  0.12500000000E+03 0.  0.
         25    1    1    2    0    0  0.79022519519E+02 -0.31050655145E+03 -0.23742745790E+03  0.41791826336E+03  0.12500000000E+03 0.  0.
</event>
<event>
 5    0  0.5597833E-005  0.2473865E+03  0.7546771E-02  0.1114968E+00
         21   -1    0    0  502  501  0.00000000000E+00  0.00000000000E+00  0.17590406411E+03  0.17590406411E+03  0.00000000000E+00 0.  1.
         21   -1    0    0  501  502 -0.00000000000E+00 -0.00000000000E+00 -0.34791746317E+03  0.34791746317E+03  0.00000000000E+00 0.  1.
         25    1    1    2    0    0  0.88193900169E+02  0.23490207267E+02 -0.13245018890E+03  0.20371059473E+03  0.12500000000E+03 0.  0.
         25    1    1    2    0    0  0.20818455950E+01 -0.17256959980E+02  0.56568581516E+02  0.13830090804E+03  0.12500000000E+03 0.  0.
         25    1    1    2    0    0 -0.90275745764E+02 -0.62332472873E+01 -0.96131791671E+02  0.18181002452E+03  0.12500000000E+03 0.  0.
</event>
<event>
 5    0  0.5597833E-005  0.2253166E+03  0.7546771E-02  0.1129980E+00
         21   -1    0    0  502  501  0.00000000000E+00  0.00000000000E+00  0.38529494264E+03  0.38529494264E+03  0.00000000000E+00 0. -1.
         21   -1    0    0  501  502 -0.00000000000E+00 -0.00000000000E+00 -0.13176288404E+03  0.13176288404E+03  0.00000000000E+00 0. -1.
         25    1    1    2    0    0  0.83767762140E+01  0.88784207563E+02  0.78510253652E+02  0.17245772184E+03  0.12500000000E+03 0.  0.
         25    1    1    2    0    0 -0.75459571766E+00 -0.36380578867E+01  0.17814076153E+02  0.12631764006E+03  0.12500000000E+03 0.  0.
         25    1    1    2    0    0 -0.76221804963E+01 -0.85146149676E+02  0.15720772880E+03  0.21828246479E+03  0.12500000000E+03 0.  0.
</event>
<event>
 5    0  0.5597833E-005  0.3144519E+03  0.7546771E-02  0.1078231E+00
         21   -1    0    0  502  501  0.00000000000E+00  0.00000000000E+00  0.65291698139E+03  0.65291698139E+03  0.00000000000E+00 0. -1.
         21   -1    0    0  501  502 -0.00000000000E+00 -0.00000000000E+00 -0.15144347944E+03  0.15144347944E+03  0.00000000000E+00 0. -1.
         25    1    1    2    0    0 -0.18994830442E+02 -0.18119669371E+03  0.71662500950E+02  0.23227905510E+03  0.12500000000E+03 0.  0.
         25    1    1    2    0    0  0.84433903654E+02  0.15857371324E+03  0.33651886253E+03  0.40142826440E+03  0.12500000000E+03 0.  0.
         25    1    1    2    0    0 -0.65439073212E+02  0.22622980474E+02  0.93292138463E+02  0.17065314133E+03  0.12500000000E+03 0.  0.
</event>
<event>
 5    0  0.5597833E-005  0.3039416E+03  0.7546771E-02  0.1083287E+00
         21   -1    0    0  502  501  0.00000000000E+00  0.00000000000E+00  0.45651917341E+03  0.45651917341E+03  0.00000000000E+00 0.  1.
         21   -1    0    0  501  502 -0.00000000000E+00 -0.00000000000E+00 -0.20235839277E+03  0.20235839277E+03  0.00000000000E+00 0.  1.
         25    1    1    2    0    0 -0.50956539150E+02 -0.13994379281E+03  0.52717903301E+02  0.20145721967E+03  0.12500000000E+03 0.  0.
         25    1    1    2    0    0  0.40463306557E+02  0.21323754664E+03  0.66514967734E+02  0.25914623557E+03  0.12500000000E+03 0.  0.
         25    1    1    2    0    0  0.10493232593E+02 -0.73293753831E+02  0.13492790960E+03  0.19827411094E+03  0.12500000000E+03 0.  0.
</event>
<event>
 5    0  0.5597833E-005  0.2634506E+03  0.7546771E-02  0.1105088E+00
         21   -1    0    0  502  501  0.00000000000E+00  0.00000000000E+00  0.15625198738E+03  0.15625198738E+03  0.00000000000E+00 0. -1.
         21   -1    0    0  501  502 -0.00000000000E+00 -0.00000000000E+00 -0.44419404736E+03  0.44419404736E+03  0.00000000000E+00 0. -1.
         25    1    1    2    0    0 -0.82227206213E+02 -0.83728878679E+02 -0.18251875434E+03  0.25041951652E+03  0.12500000000E+03 0.  0.
         25    1    1    2    0    0  0.90886062859E+02 -0.25150478844E+02 -0.96204505300E+02  0.18377467140E+03  0.12500000000E+03 0.  0.
         25    1    1    2    0    0 -0.86588566465E+01  0.10887935752E+03 -0.92188003412E+01  0.16625184683E+03  0.12500000000E+03 0.  0.
</event>
<event>
 5    0  0.5597833E-005  0.2010020E+03  0.7546771E-02  0.1148896E+00
         21   -1    0    0  502  501  0.00000000000E+00  0.00000000000E+00  0.30287417834E+03  0.30287417834E+03  0.00000000000E+00 0.  1.
         21   -1    0    0  501  502 -0.00000000000E+00 -0.00000000000E+00 -0.13339462264E+03  0.13339462264E+03  0.00000000000E+00 0.  1.
         25    1    1    2    0    0 -0.14959390642E+02 -0.61127683287E+02  0.39458640393E+02  0.14540413108E+03  0.12500000000E+03 0.  0.
         25    1    1    2    0    0  0.18485685609E+02  0.35076429610E+02  0.51260100967E+02  0.14080012229E+03  0.12500000000E+03 0.  0.
         25    1    1    2    0    0 -0.35262949664E+01  0.26051253677E+02  0.78760814345E+02  0.15006454761E+03  0.12500000000E+03 0.  0.
</event>
<event>
 5    0  0.5597833E-005  0.3360380E+03  0.7546771E-02  0.1068496E+00
         21   -1    0    0  502  501  0.00000000000E+00  0.00000000000E+00  0.74436908749E+03  0.74436908749E+03  0.00000000000E+00 0. -1.
         21   -1    0    0  501  502 -0.00000000000E+00 -0.00000000000E+00 -0.15170102391E+03  0.15170102391E+03  0.00000000000E+00 0. -1.
         25    1    1    2    0    0 -0.15329306598E+02  0.55331159881E+02  0.61677668486E+02  0.15075032234E+03  0.12500000000E+03 0.  0.
         25    1    1    2    0    0 -0.21817631982E+03 -0.44525315261E+02  0.29756955199E+03  0.39211739123E+03  0.12500000000E+03 0.  0.
         25    1    1    2    0    0  0.23350562642E+03 -0.10805844620E+02  0.23342084310E+03  0.35320239784E+03  0.12500000000E+03 0.  0.
</event>
<event>
 5    0  0.5597833E-005  0.2594142E+03  0.7546771E-02  0.1107496E+00
         21   -1    0    0  502  501  0.00000000000E+00  0.00000000000E+00  0.41126746471E+03  0.41126746471E+03  0.00000000000E+00 0.  1.
         21   -1    0    0  501  502 -0.00000000000E+00 -0.00000000000E+00 -0.16363002464E+03  0.16363002464E+03  0.00000000000E+00 0.  1.
         25    1    1    2    0    0 -0.76198457773E+02  0.58801312959E+02 -0.25891726746E+02  0.15987238938E+03  0.12500000000E+03 0.  0.
         25    1    1    2    0    0 -0.12129500409E+02 -0.46960452651E+02  0.20941180877E+03  0.24865782623E+03  0.12500000000E+03 0.  0.
         25    1    1    2    0    0  0.88327958181E+02 -0.11840860308E+02  0.64117358042E+02  0.16636727374E+03  0.12500000000E+03 0.  0.
</event>
<event>
 5    0  0.5597833E-005  0.3671259E+03  0.7546771E-02  0.1055797E+00
         21   -1    0    0  502  501  0.00000000000E+00  0.00000000000E+00  0.72672385710E+02  0.72672385710E+02  0.00000000000E+00 0. -1.
         21   -1    0    0  501  502 -0.00000000000E+00 -0.00000000000E+00 -0.18546438647E+04  0.18546438647E+04  0.00000000000E+00 0. -1.
         25    1    1    2    0    0  0.55678887407E+02 -0.79965781110E+02 -0.14112486039E+04  0.14201205183E+04  0.12500000000E+03 0.  0.
         25    1    1    2    0    0  0.38706526329E+02  0.10804442717E+03 -0.11157326191E+03  0.20308960140E+03  0.12500000000E+03 0.  0.
         25    1    1    2    0    0 -0.94385413736E+02 -0.28078646059E+02 -0.25914961318E+03  0.30410613065E+03  0.12500000000E+03 0.  0.
</event>
<event>
 5    0  0.5597833E-005  0.3341568E+03  0.7546771E-02  0.1069312E+00
         21   -1    0    0  502  501  0.00000000000E+00  0.00000000000E+00  0.30183707864E+03  0.30183707864E+03  0.00000000000E+00 0. -1.
         21   -1    0    0  501  502 -0.00000000000E+00 -0.00000000000E+00 -0.36993722481E+03  0.36993722481E+03  0.00000000000E+00 0. -1.
         25    1    1    2    0    0 -0.13961675212E+02 -0.54368513291E+02  0.57792475437E+02  0.14871393287E+03  0.12500000000E+03 0.  0.
         25    1    1    2    0    0  0.13092423976E+03  0.51188686597E+02 -0.24907946295E+03  0.31213301180E+03  0.12500000000E+03 0.  0.
         25    1    1    2    0    0 -0.11696256455E+03  0.31798266936E+01  0.12318684135E+03  0.21092735878E+03  0.12500000000E+03 0.  0.
</event>
<event>
 5    0  0.8406059E-005  0.3465262E+03  0.7546771E-02  0.1064050E+00
         21   -1    0    0  502  501  0.00000000000E+00  0.00000000000E+00  0.25269782940E+03  0.25269782940E+03  0.00000000000E+00 0. -1.
         21   -1    0    0  501  502 -0.00000000000E+00 -0.00000000000E+00 -0.47519365636E+03  0.47519365636E+03  0.00000000000E+00 0. -1.
         25    1    1    2    0    0 -0.21144232989E+03 -0.53810984213E+02 -0.14300908667E+03  0.28927509357E+03  0.12500000000E+03 0.  0.
         25    1    1    2    0    0  0.11840800594E+03  0.31470813174E+01  0.97121135209E+02  0.19770653731E+03  0.12500000000E+03 0.  0.
         25    1    1    2    0    0  0.93034323949E+02  0.50663902896E+02 -0.17660787550E+03  0.24090985488E+03  0.12500000000E+03 0.  0.
</event>
<event>
 5    0  0.5597833E-005  0.3093977E+03  0.7546771E-02  0.1080635E+00
         21   -1    0    0  502  501  0.00000000000E+00  0.00000000000E+00  0.31745962742E+03  0.31745962742E+03  0.00000000000E+00 0. -1.
         21   -1    0    0  501  502 -0.00000000000E+00 -0.00000000000E+00 -0.30154055027E+03  0.30154055027E+03  0.00000000000E+00 0. -1.
         25    1    1    2    0    0  0.10781712816E+02 -0.90471278623E+02 -0.16341801538E+03  0.22501498914E+03  0.12500000000E+03 0.  0.
         25    1    1    2    0    0  0.34369853378E+02  0.33338672631E+02 -0.32234659287E+02  0.13768379416E+03  0.12500000000E+03 0.  0.
         25    1    1    2    0    0 -0.45151566194E+02  0.57132605992E+02  0.21157175183E+03  0.25630139439E+03  0.12500000000E+03 0.  0.
</event>
<event>
 5    0  0.6418699E-005  0.2555719E+03  0.7546771E-02  0.1109833E+00
         21   -1    0    0  502  501  0.00000000000E+00  0.00000000000E+00  0.13790961714E+03  0.13790961714E+03  0.00000000000E+00 0. -1.
         21   -1    0    0  501  502 -0.00000000000E+00 -0.00000000000E+00 -0.47362182182E+03  0.47362182182E+03  0.00000000000E+00 0. -1.
         25    1    1    2    0    0 -0.80105685436E+02 -0.14924928900E+02 -0.13950477454E+03  0.20427005767E+03  0.12500000000E+03 0.  0.
         25    1    1    2    0    0 -0.82540336677E+02  0.20571116469E+02 -0.72904696710E+02  0.16785759683E+03  0.12500000000E+03 0.  0.
         25    1    1    2    0    0  0.16264602211E+03 -0.56461875695E+01 -0.12330273343E+03  0.23940378446E+03  0.12500000000E+03 0.  0.
</event>
<event>
 5    0  0.5597833E-005  0.4054562E+03  0.7546771E-02  0.1041907E+00
         21   -1    0    0  502  501  0.00000000000E+00  0.00000000000E+00  0.22594218423E+04  0.22594218423E+04  0.00000000000E+00 0. -1.
         21   -1    0    0  501  502 -0.00000000000E+00 -0.00000000000E+00 -0.72759659168E+02  0.72759659168E+02  0.00000000000E+00 0. -1.
         25    1    1    2    0    0  0.15423508268E+03  0.35784502893E+02  0.24391544771E+03  0.31652604475E+03  0.12500000000E+03 0.  0.
         25    1    1    2    0    0 -0.28250287345E+03  0.12122871533E+02  0.15603746908E+04  0.15907070796E+04  0.12500000000E+03 0.  0.
         25    1    1    2    0    0  0.12826779077E+03 -0.47907374426E+02  0.38237204468E+03  0.42494837713E+03  0.12500000000E+03 0.  0.
</event>
<event>
 5    0  0.5597833E-005  0.2887865E+03  0.7546771E-02  0.1090984E+00
         21   -1    0    0  502  501  0.00000000000E+00  0.00000000000E+00  0.76342947904E+03  0.76342947904E+03  0.00000000000E+00 0. -1.
         21   -1    0    0  501  502 -0.00000000000E+00 -0.00000000000E+00 -0.10924079044E+03  0.10924079044E+03  0.00000000000E+00 0. -1.
         25    1    1    2    0    0 -0.77842267065E+02 -0.11300499115E+03  0.30724008833E+03  0.35895824053E+03  0.12500000000E+03 0.  0.
         25    1    1    2    0    0 -0.77684037622E+02  0.62907928104E+02  0.86886304645E+02  0.18211657545E+03  0.12500000000E+03 0.  0.
         25    1    1    2    0    0  0.15552630469E+03  0.50097063044E+02  0.26006229563E+03  0.33159545350E+03  0.12500000000E+03 0.  0.
</event>
<event>
 5    0  0.5597833E-005  0.2633492E+03  0.7546771E-02  0.1105147E+00
         21   -1    0    0  502  501  0.00000000000E+00  0.00000000000E+00  0.17436114536E+03  0.17436114536E+03  0.00000000000E+00 0.  1.
         21   -1    0    0  501  502 -0.00000000000E+00 -0.00000000000E+00 -0.39775379417E+03  0.39775379417E+03  0.00000000000E+00 0.  1.
         25    1    1    2    0    0  0.30517328618E+02 -0.56480914480E+02  0.47489487253E+02  0.14832954003E+03  0.12500000000E+03 0.  0.
         25    1    1    2    0    0 -0.38897561792E+02  0.80395525782E+02 -0.37988772716E+02  0.15825488217E+03  0.12500000000E+03 0.  0.
         25    1    1    2    0    0  0.83802331731E+01 -0.23914611302E+02 -0.23289336335E+03  0.26553051733E+03  0.12500000000E+03 0.  0.
</event>
<event>
 5    0  0.5597833E-005  0.3780026E+03  0.7546771E-02  0.1051674E+00
         21   -1    0    0  502  501  0.00000000000E+00  0.00000000000E+00  0.84341443331E+03  0.84341443331E+03  0.00000000000E+00 0. -1.
         21   -1    0    0  501  502 -0.00000000000E+00 -0.00000000000E+00 -0.16941368391E+03  0.16941368391E+03  0.00000000000E+00 0. -1.
         25    1    1    2    0    0  0.22823686421E+03  0.12128507156E+03  0.12065404911E+03  0.31142340043E+03  0.12500000000E+03 0.  0.
         25    1    1    2    0    0 -0.22912200473E+03 -0.13585092520E+03  0.45425909557E+03  0.54122887288E+03  0.12500000000E+03 0.  0.
         25    1    1    2    0    0  0.88514051717E+00  0.14565853635E+02  0.99087604717E+02  0.16017584392E+03  0.12500000000E+03 0.  0.
</event>
<event>
 5    0  0.5597833E-005  0.4293867E+03  0.7546771E-02  0.1034054E+00
         21   -1    0    0  502  501  0.00000000000E+00  0.00000000000E+00  0.12891896937E+04  0.12891896937E+04  0.00000000000E+00 0.  1.
         21   -1    0    0  501  502 -0.00000000000E+00 -0.00000000000E+00 -0.14301462056E+03  0.14301462056E+03  0.00000000000E+00 0.  1.
         25    1    1    2    0    0  0.22030645471E+03  0.22414732827E+03  0.76926679683E+03  0.84034121847E+03  0.12500000000E+03 0.  0.
         25    1    1    2    0    0 -0.14302971078E+03 -0.51330500453E+02  0.28671102496E+03  0.34773629416E+03  0.12500000000E+03 0.  0.
         25    1    1    2    0    0 -0.77276743926E+02 -0.17281682782E+03  0.90197251372E+02  0.24412680165E+03  0.12500000000E+03 0.  0.
</event>
<event>
 5    0  0.5597833E-005  0.2822053E+03  0.7546771E-02  0.1094490E+00
         21   -1    0    0  502  501  0.00000000000E+00  0.00000000000E+00  0.92862390265E+03  0.92862390265E+03  0.00000000000E+00 0.  1.
         21   -1    0    0  501  502 -0.00000000000E+00 -0.00000000000E+00 -0.85761145861E+02  0.85761145861E+02  0.00000000000E+00 0.  1.
         25    1    1    2    0    0  0.16711908743E+02 -0.30346581249E+02  0.63323763904E+03  0.64638619291E+03  0.12500000000E+03 0.  0.
         25    1    1    2    0    0  0.51362068041E+02  0.51683605396E+02  0.50030653840E+02  0.15309253223E+03  0.12500000000E+03 0.  0.
         25    1    1    2    0    0 -0.68073976785E+02 -0.21337024147E+02  0.15959446390E+03  0.21490632337E+03  0.12500000000E+03 0.  0.
</event>
<event>
 5    0  0.5597833E-005  0.3470160E+03  0.7546771E-02  0.1063847E+00
         21   -1    0    0  502  501  0.00000000000E+00  0.00000000000E+00  0.29382795788E+03  0.29382795788E+03  0.00000000000E+00 0. -1.
         21   -1    0    0  501  502 -0.00000000000E+00 -0.00000000000E+00 -0.40983191968E+03  0.40983191968E+03  0.00000000000E+00 0. -1.
         25    1    1    2    0    0  0.12440998528E+03 -0.81315629988E+02 -0.12724162186E+02  0.19462009254E+03  0.12500000000E+03 0.  0.
         25    1    1    2    0    0 -0.70771428481E+02  0.23856682838E+03 -0.11386138720E+03  0.30085235945E+03  0.12500000000E+03 0.  0.
         25    1    1    2    0    0 -0.53638556797E+02 -0.15725119839E+03  0.10581587583E+02  0.20818742557E+03  0.12500000000E+03 0.  0.
</event>
<event>
 5    0  0.5597833E-005  0.2929140E+03  0.7546771E-02  0.1088837E+00
         21   -1    0    0  502  501  0.00000000000E+00  0.00000000000E+00  0.12611708364E+03  0.12611708364E+03  0.00000000000E+00 0. -1.
         21   -1    0    0  501  502 -0.00000000000E+00 -0.00000000000E+00 -0.68030929557E+03  0.68030929557E+03  0.00000000000E+00 0. -1.
         25    1    1    2    0    0  0.63993259503E+02 -0.12469940216E+02 -0.13470190698E+03  0.19498779555E+03  0.12500000000E+03 0.  0.
         25    1    1    2    0    0 -0.10121154607E+03  0.87779796753E+02 -0.42280051579E+03  0.46079751077E+03  0.12500000000E+03 0.  0.
         25    1    1    2    0    0  0.37218286564E+02 -0.75309856536E+02  0.33102108373E+01  0.15064107289E+03  0.12500000000E+03 0.  0.
</event>
<event>
 5    0  0.5597833E-005  0.2879346E+03  0.7546771E-02  0.1091432E+00
         21   -1    0    0  502  501  0.00000000000E+00  0.00000000000E+00  0.23134957022E+03  0.23134957022E+03  0.00000000000E+00 0.  1.
         21   -1    0    0  501  502 -0.00000000000E+00 -0.00000000000E+00 -0.35835964204E+03  0.35835964204E+03  0.00000000000E+00 0.  1.
         25    1    1    2    0    0  0.66741714469E+02  0.15462570391E+03 -0.20693808201E+02  0.21075293227E+03  0.12500000000E+03 0.  0.
         25    1    1    2    0    0  0.43413634008E+02 -0.44708795694E+01 -0.75904468159E+02  0.15261461486E+03  0.12500000000E+03 0.  0.
         25    1    1    2    0    0 -0.11015534848E+03 -0.15015482434E+03 -0.30411795462E+02  0.22634166513E+03  0.12500000000E+03 0.  0.
</event>
<event>
 5    0  0.6546369E-005  0.2803900E+03  0.7546771E-02  0.1095476E+00
         21   -1    0    0  502  501  0.00000000000E+00  0.00000000000E+00  0.45403275016E+03  0.45403275016E+03  0.00000000000E+00 0.  1.
         21   -1    0    0  501  502 -0.00000000000E+00 -0.00000000000E+00 -0.17315611269E+03  0.17315611269E+03  0.00000000000E+00 0.  1.
         25    1    1    2    0    0 -0.44244979966E+02 -0.58025304978E+02  0.24064817125E+02  0.14672651326E+03  0.12500000000E+03 0.  0.
         25    1    1    2    0    0  0.14290401123E+03 -0.57817351964E+02  0.74150020763E+02  0.21186700591E+03  0.12500000000E+03 0.  0.
         25    1    1    2    0    0 -0.98659031268E+02  0.11584265694E+03  0.18266179958E+03  0.26859534367E+03  0.12500000000E+03 0.  0.
</event>
<event>
 5    0  0.5597833E-005  0.2244323E+03  0.7546771E-02  0.1130621E+00
         21   -1    0    0  502  501  0.00000000000E+00  0.00000000000E+00  0.17149362062E+04  0.17149362062E+04  0.00000000000E+00 0.  1.
         21   -1    0    0  501  502 -0.00000000000E+00 -0.00000000000E+00 -0.29371268940E+02  0.29371268940E+02  0.00000000000E+00 0.  1.
         25    1    1    2    0    0 -0.18836613928E+02  0.10704533572E+02  0.84587384759E+03  0.85533442062E+03  0.12500000000E+03 0.  0.
         25    1    1    2    0    0  0.37432626288E+02 -0.68255517069E+02  0.34388710633E+03  0.37409004133E+03  0.12500000000E+03 0.  0.
         25    1    1    2    0    0 -0.18596012360E+02  0.57550983497E+02  0.49580398340E+03  0.51488301324E+03  0.12500000000E+03 0.  0.
</event>
<event>
 5    0  0.5829678E-005  0.2791029E+03  0.7546771E-02  0.1096180E+00
         21   -1    0    0  502  501  0.00000000000E+00  0.00000000000E+00  0.54726463403E+03  0.54726463403E+03  0.00000000000E+00 0.  1.
         21   -1    0    0  501  502 -0.00000000000E+00 -0.00000000000E+00 -0.14234142362E+03  0.14234142362E+03  0.00000000000E+00 0.  1.
         25    1    1    2    0    0 -0.75773044915E+02  0.31073430104E+02  0.38986861073E+02  0.15444121124E+03  0.12500000000E+03 0.  0.
         25    1    1    2    0    0 -0.36929410056E+02  0.87341546207E+02  0.63293585618E+02  0.16918452944E+03  0.12500000000E+03 0.  0.
         25    1    1    2    0    0  0.11270245497E+03 -0.11841497631E+03  0.30264276373E+03  0.36598031697E+03  0.12500000000E+03 0.  0.
</event>
<event>
 5    0  0.5597833E-005  0.3126354E+03  0.7546771E-02  0.1079089E+00
         21   -1    0    0  502  501  0.00000000000E+00  0.00000000000E+00  0.10057295141E+04  0.10057295141E+04  0.00000000000E+00 0.  1.
         21   -1    0    0  501  502 -0.00000000000E+00 -0.00000000000E+00 -0.97184091566E+02  0.97184091566E+02  0.00000000000E+00 0.  1.
         25    1    1    2    0    0 -0.14005622226E+03 -0.12832250522E+03  0.29226600269E+03  0.37030639620E+03  0.12500000000E+03 0.  0.
         25    1    1    2    0    0 -0.22296793540E+02  0.11766116364E+03  0.39264804191E+03  0.42911394902E+03  0.12500000000E+03 0.  0.
         25    1    1    2    0    0  0.16235301580E+03  0.10661341574E+02  0.22363137798E+03  0.30349326049E+03  0.12500000000E+03 0.  0.
</event>
<event>
 5    0  0.5597833E-005  0.3018406E+03  0.7546771E-02  0.1084324E+00
         21   -1    0    0  502  501  0.00000000000E+00  0.00000000000E+00  0.42564921725E+03  0.42564921725E+03  0.00000000000E+00 0.  1.
         21   -1    0    0  501  502 -0.00000000000E+00 -0.00000000000E+00 -0.21404423188E+03  0.21404423188E+03  0.00000000000E+00 0.  1.
         25    1    1    2    0    0 -0.25444399543E+02 -0.64657061973E+02  0.56466753104E+02  0.15375775537E+03  0.12500000000E+03 0.  0.
         25    1    1    2    0    0 -0.65086003911E+02  0.14295624994E+03  0.22299712382E+03  0.30004232123E+03  0.12500000000E+03 0.  0.
         25    1    1    2    0    0  0.90530403454E+02 -0.78299187962E+02 -0.67858891558E+02  0.18589337252E+03  0.12500000000E+03 0.  0.
</event>
<event>
 5    0  0.5597833E-005  0.2465607E+03  0.7546771E-02  0.1115498E+00
         21   -1    0    0  502  501  0.00000000000E+00  0.00000000000E+00  0.76197761033E+03  0.76197761033E+03  0.00000000000E+00 0.  1.
         21   -1    0    0  501  502 -0.00000000000E+00 -0.00000000000E+00 -0.79782113549E+02  0.79782113549E+02  0.00000000000E+00 0.  1.
         25    1    1    2    0    0 -0.32970431430E+02 -0.28433514631E+02  0.72085279326E+02  0.15072093948E+03  0.12500000000E+03 0.  0.
         25    1    1    2    0    0 -0.21022637618E+02  0.11963207629E+02  0.49763189712E+03  0.51366095302E+03  0.12500000000E+03 0.  0.
         25    1    1    2    0    0  0.53993069048E+02  0.16470307001E+02  0.11247832034E+03  0.17737783138E+03  0.12500000000E+03 0.  0.
</event>
<event>
 5    0  0.5663165E-005  0.2762703E+03  0.7546771E-02  0.1097744E+00
         21   -1    0    0  502  501  0.00000000000E+00  0.00000000000E+00  0.52813609533E+03  0.52813609533E+03  0.00000000000E+00 0. -1.
         21   -1    0    0  501  502 -0.00000000000E+00 -0.00000000000E+00 -0.14451819978E+03  0.14451819978E+03  0.00000000000E+00 0. -1.
         25    1    1    2    0    0  0.12576450381E+03 -0.97056192578E+02  0.52051393824E+02  0.20873658648E+03  0.12500000000E+03 0.  0.
         25    1    1    2    0    0 -0.10522433033E+03  0.17781145379E+02  0.23211436806E+03  0.28441239193E+03  0.12500000000E+03 0.  0.
         25    1    1    2    0    0 -0.20540173481E+02  0.79275047199E+02  0.99452133670E+02  0.17950531671E+03  0.12500000000E+03 0.  0.
</event>
<event>
 5    0  0.8428444E-005  0.3951150E+03  0.7546771E-02  0.1045484E+00
         21   -1    0    0  502  501  0.00000000000E+00  0.00000000000E+00  0.19961563073E+03  0.19961563073E+03  0.00000000000E+00 0.  1.
         21   -1    0    0  501  502 -0.00000000000E+00 -0.00000000000E+00 -0.78208223663E+03  0.78208223663E+03  0.00000000000E+00 0.  1.
         25    1    1    2    0    0 -0.23294841695E+03 -0.55257320501E+01 -0.26750082870E+03  0.37613453980E+03  0.12500000000E+03 0.  0.
         25    1    1    2    0    0  0.82925004793E+02  0.14525646720E+02  0.75751050547E+02  0.16867356785E+03  0.12500000000E+03 0.  0.
         25    1    1    2    0    0  0.15002341216E+03 -0.89999146701E+01 -0.39071682774E+03  0.43688975971E+03  0.12500000000E+03 0.  0.
</event>
<event>
 5    0  0.5597833E-005  0.3699834E+03  0.7546771E-02  0.1054699E+00
         21   -1    0    0  502  501  0.00000000000E+00  0.00000000000E+00  0.23530827541E+03  0.23530827541E+03  0.00000000000E+00 0. -1.
         21   -1    0    0  501  502 -0.00000000000E+00 -0.00000000000E+00 -0.58173765378E+03  0.58173765378E+03  0.00000000000E+00 0. -1.
         25    1    1    2    0    0  0.57564398138E+02 -0.15948989164E+03 -0.16914700079E+03  0.27015994030E+03  0.12500000000E+03 0.  0.
         25    1    1    2    0    0  0.17973720420E+03  0.77553304881E+02 -0.11686501274E+03  0.26000463241E+03  0.12500000000E+03 0.  0.
         25    1    1    2    0    0 -0.23730160234E+03  0.81936586757E+02 -0.60417364831E+02  0.28688135648E+03  0.12500000000E+03 0.  0.
</event>
<event>
 5    0  0.5597833E-005  0.3392655E+03  0.7546771E-02  0.1067109E+00
         21   -1    0    0  502  501  0.00000000000E+00  0.00000000000E+00  0.33574350295E+03  0.33574350295E+03  0.00000000000E+00 0. -1.
         21   -1    0    0  501  502 -0.00000000000E+00 -0.00000000000E+00 -0.34282441575E+03  0.34282441575E+03  0.00000000000E+00 0. -1.
         25    1    1    2    0    0  0.86820797212E+02  0.11117530551E+03  0.15455413359E+03  0.24374121440E+03  0.12500000000E+03 0.  0.
         25    1    1    2    0    0 -0.54839724022E+02 -0.11893793447E+03  0.49117121217E+02  0.18759296145E+03  0.12500000000E+03 0.  0.
         25    1    1    2    0    0 -0.31981073190E+02  0.77626289588E+01 -0.21075216761E+03  0.24723374285E+03  0.12500000000E+03 0.  0.
</event>
<event>
 5    0  0.5597833E-005  0.2857812E+03  0.7546771E-02  0.1092573E+00
         21   -1    0    0  502  501  0.00000000000E+00  0.00000000000E+00  0.12472621762E+04  0.12472621762E+04  0.00000000000E+00 0. -1.
         21   -1    0    0  501  502 -0.00000000000E+00 -0.00000000000E+00 -0.65480153172E+02  0.65480153172E+02  0.00000000000E+00 0. -1.
         25    1    1    2    0    0 -0.75571439768E+02  0.10253897497E+03  0.27372390906E+03  0.32676453646E+03  0.12500000000E+03 0.  0.
         25    1    1    2    0    0  0.15301744572E+03 -0.71632667033E+02  0.35193965471E+03  0.40991718461E+03  0.12500000000E+03 0.  0.
         25    1    1    2    0    0 -0.77446005956E+02 -0.30906307941E+02  0.55611845929E+03  0.57606060833E+03  0.12500000000E+03 0.  0.
</event>
<event>
 5    0  0.5597833E-005  0.2488062E+03  0.7546771E-02  0.1114062E+00
         21   -1    0    0  502  501  0.00000000000E+00  0.00000000000E+00  0.10179734165E+04  0.10179734165E+04  0.00000000000E+00 0. -1.
         21   -1    0    0  501  502 -0.00000000000E+00 -0.00000000000E+00 -0.60811529928E+02  0.60811529928E+02  0.00000000000E+00 0. -1.
         25    1    1    2    0    0  0.70882187178E+02  0.66330583310E+02  0.17975756085E+03  0.23950325974E+03  0.12500000000E+03 0.  0.
         25    1    1    2    0    0  0.48144142132E+02 -0.49598978851E+02  0.34510673483E+03  0.37349909712E+03  0.12500000000E+03 0.  0.
         25    1    1    2    0    0 -0.11902632931E+03 -0.16731604460E+02  0.43229759089E+03  0.46578258957E+03  0.12500000000E+03 0.  0.
</event>
<event>
 5    0  0.5597833E-005  0.4076314E+03  0.7546771E-02  0.1041169E+00
         21   -1    0    0  502  501  0.00000000000E+00  0.00000000000E+00  0.12297288503E+03  0.12297288503E+03  0.00000000000E+00 0. -1.
         21   -1    0    0  501  502 -0.00000000000E+00 -0.00000000000E+00 -0.13512195105E+04  0.13512195105E+04  0.00000000000E+00 0. -1.
         25    1    1    2    0    0  0.34289176465E+02  0.19606560259E+03 -0.65912035778E+03  0.69977290186E+03  0.12500000000E+03 0.  0.
         25    1    1    2    0    0 -0.50327573639E+02 -0.29259272787E+03 -0.51356628560E+03  0.60623320494E+03  0.12500000000E+03 0.  0.
         25    1    1    2    0    0  0.16038397174E+02  0.96527125288E+02 -0.55559982071E+02  0.16818628870E+03  0.12500000000E+03 0.  0.
</event>
<event>
 5    0  0.5597833E-005  0.3026739E+03  0.7546771E-02  0.1083912E+00
         21   -1    0    0  502  501  0.00000000000E+00  0.00000000000E+00  0.13509165385E+03  0.13509165385E+03  0.00000000000E+00 0. -1.
         21   -1    0    0  501  502 -0.00000000000E+00 -0.00000000000E+00 -0.67814331445E+03  0.67814331445E+03  0.00000000000E+00 0. -1.
         25    1    1    2    0    0 -0.10866356611E+03  0.10222941308E+03 -0.11732643805E+03  0.22726441992E+03  0.12500000000E+03 0.  0.
         25    1    1    2    0    0 -0.19242650656E+02 -0.10505004895E+03 -0.53324312412E+02  0.17284176198E+03  0.12500000000E+03 0.  0.
         25    1    1    2    0    0  0.12790621677E+03  0.28206358795E+01 -0.37240091014E+03  0.41312878640E+03  0.12500000000E+03 0.  0.
</event>
<event>
 5    0  0.5597833E-005  0.2447617E+03  0.7546771E-02  0.1116661E+00
         21   -1    0    0  502  501  0.00000000000E+00  0.00000000000E+00  0.37165531945E+02  0.37165531945E+02  0.00000000000E+00 0.  1.
         21   -1    0    0  501  502 -0.00000000000E+00 -0.00000000000E+00 -0.16119310031E+04  0.16119310031E+04  0.00000000000E+00 0.  1.
         25    1    1    2    0    0 -0.70144115840E+02 -0.33646116292E+02 -0.28101675260E+03  0.31725017474E+03  0.12500000000E+03 0.  0.
         25    1    1    2    0    0  0.31670168551E+02  0.10498613526E+03 -0.73529729057E+03  0.75386483781E+03  0.12500000000E+03 0.  0.
         25    1    1    2    0    0  0.38473947288E+02 -0.71340018968E+02 -0.55845142798E+03  0.57798152249E+03  0.12500000000E+03 0.  0.
</event>
<event>
 5    0  0.5597833E-005  0.2692953E+03  0.7546771E-02  0.1101684E+00
         21   -1    0    0  502  501  0.00000000000E+00  0.00000000000E+00  0.26376566491E+03  0.26376566491E+03  0.00000000000E+00 0. -1.
         21   -1    0    0  501  502 -0.00000000000E+00 -0.00000000000E+00 -0.27494088100E+03  0.27494088100E+03  0.00000000000E+00 0. -1.
         25    1    1    2    0    0 -0.22007746126E+02  0.99433633178E+02 -0.15228492246E+03  0.22178161760E+03  0.12500000000E+03 0.  0.
         25    1    1    2    0    0  0.31817247630E+02 -0.88098076379E+02  0.60921401646E+02  0.16766044700E+03  0.12500000000E+03 0.  0.
         25    1    1    2    0    0 -0.98095015040E+01 -0.11335556799E+02  0.80188304727E+02  0.14926448132E+03  0.12500000000E+03 0.  0.
</event>
<event>
 5    0  0.5597833E-005  0.2414598E+03  0.7546771E-02  0.1118824E+00
         21   -1    0    0  502  501  0.00000000000E+00  0.00000000000E+00  0.20427134780E+03  0.20427134780E+03  0.00000000000E+00 0.  1.
         21   -1    0    0  501  502 -0.00000000000E+00 -0.00000000000E+00 -0.28541859834E+03  0.28541859834E+03  0.00000000000E+00 0.  1.
         25    1    1    2    0    0  0.42326802843E+02  0.34721022074E+02 -0.61148936821E+02  0.14953695225E+03  0.12500000000E+03 0.  0.
         25    1    1    2    0    0 -0.12699034298E+02 -0.12808238384E+03 -0.25668966349E+02  0.18124640233E+03  0.12500000000E+03 0.  0.
         25    1    1    2    0    0 -0.29627768545E+02  0.93361361769E+02  0.56706526317E+01  0.15890659156E+03  0.12500000000E+03 0.  0.
</event>
<event>
 5    0  0.5597833E-005  0.2045425E+03  0.7546771E-02  0.1145962E+00
         21   -1    0    0  502  501  0.00000000000E+00  0.00000000000E+00  0.91068833716E+02  0.91068833716E+02  0.00000000000E+00 0. -1.
         21   -1    0    0  501  502 -0.00000000000E+00 -0.00000000000E+00 -0.45940676280E+03  0.45940676280E+03  0.00000000000E+00 0. -1.
         25    1    1    2    0    0  0.10699491609E+02  0.14310837542E+02 -0.14893888969E+03  0.19526154781E+03  0.12500000000E+03 0.  0.
         25    1    1    2    0    0 -0.47677433446E+02 -0.51061847545E+02 -0.12551941135E+03  0.19042209052E+03  0.12500000000E+03 0.  0.
         25    1    1    2    0    0  0.36977941836E+02  0.36751010003E+02 -0.93879628050E+02  0.16479195818E+03  0.12500000000E+03 0.  0.
</event>
<event>
 5    0  0.5597833E-005  0.2816147E+03  0.7546771E-02  0.1094810E+00
         21   -1    0    0  502  501  0.00000000000E+00  0.00000000000E+00  0.27647510382E+03  0.27647510382E+03  0.00000000000E+00 0. -1.
         21   -1    0    0  501  502 -0.00000000000E+00 -0.00000000000E+00 -0.28684974952E+03  0.28684974952E+03  0.00000000000E+00 0. -1.
         25    1    1    2    0    0  0.50431564543E+02 -0.49207595655E+01 -0.14741699975E+03  0.19981073143E+03  0.12500000000E+03 0.  0.
         25    1    1    2    0    0 -0.44148715261E+02  0.26732250773E+02  0.18375453036E+03  0.22815444269E+03  0.12500000000E+03 0.  0.
         25    1    1    2    0    0 -0.62828492817E+01 -0.21811491208E+02 -0.46712176307E+02  0.13535967922E+03  0.12500000000E+03 0.  0.
</event>
<event>
 5    0  0.5597833E-005  0.6940517E+03  0.7546771E-02  0.9727459E-01
         21   -1    0    0  502  501  0.00000000000E+00  0.00000000000E+00  0.87318018412E+03  0.87318018412E+03  0.00000000000E+00 0. -1.
         21   -1    0    0  501  502 -0.00000000000E+00 -0.00000000000E+00 -0.55167054781E+03  0.55167054781E+03  0.00000000000E+00 0. -1.
         25    1    1    2    0    0  0.29673202578E+03  0.41798387281E+03  0.30972006005E+03  0.61181036984E+03  0.12500000000E+03 0.  0.
         25    1    1    2    0    0 -0.22591466442E+03 -0.29719806825E+03 -0.26791144908E+03  0.47619919353E+03  0.12500000000E+03 0.  0.
         25    1    1    2    0    0 -0.70817361356E+02 -0.12078580456E+03  0.27970102535E+03  0.33684116856E+03  0.12500000000E+03 0.  0.
</event>
<event>
 5    0  0.5597833E-005  0.3058301E+03  0.7546771E-02  0.1082362E+00
         21   -1    0    0  502  501  0.00000000000E+00  0.00000000000E+00  0.51587778626E+03  0.51587778626E+03  0.00000000000E+00 0. -1.
         21   -1    0    0  501  502 -0.00000000000E+00 -0.00000000000E+00 -0.18130657563E+03  0.18130657563E+03  0.00000000000E+00 0. -1.
         25    1    1    2    0    0  0.18025873238E+03 -0.38463477212E+01  0.20769845867E+03  0.30211199036E+03  0.12500000000E+03 0.  0.
         25    1    1    2    0    0 -0.19508116434E+03 -0.30124845552E+02  0.36602715301E+02  0.23649297192E+03  0.12500000000E+03 0.  0.
         25    1    1    2    0    0  0.14822431959E+02  0.33971193273E+02  0.90270036661E+02  0.15857939961E+03  0.12500000000E+03 0.  0.
</event>
<event>
 5    0  0.5597833E-005  0.2544092E+03  0.7546771E-02  0.1110550E+00
         21   -1    0    0  502  501  0.00000000000E+00  0.00000000000E+00  0.22283091002E+03  0.22283091002E+03  0.00000000000E+00 0. -1.
         21   -1    0    0  501  502 -0.00000000000E+00 -0.00000000000E+00 -0.29046268063E+03  0.29046268063E+03  0.00000000000E+00 0. -1.
         25    1    1    2    0    0 -0.49425861952E+02 -0.11764188905E+02  0.11431769181E+03  0.17684695822E+03  0.12500000000E+03 0.  0.
         25    1    1    2    0    0 -0.27198097601E+02 -0.28281853263E+02 -0.83493310558E+02  0.15535679144E+03  0.12500000000E+03 0.  0.
         25    1    1    2    0    0  0.76623959553E+02  0.40046042167E+02 -0.98456151862E+02  0.18108984099E+03  0.12500000000E+03 0.  0.
</event>
<event>
 5    0  0.5597833E-005  0.2859785E+03  0.7546771E-02  0.1092468E+00
         21   -1    0    0  502  501  0.00000000000E+00  0.00000000000E+00  0.86378110582E+02  0.86378110582E+02  0.00000000000E+00 0.  1.
         21   -1    0    0  501  502 -0.00000000000E+00 -0.00000000000E+00 -0.94681062486E+03  0.94681062486E+03  0.00000000000E+00 0.  1.
         25    1    1    2    0    0  0.90012293284E+02 -0.73106717587E+02 -0.50927329449E+03  0.53705781214E+03  0.12500000000E+03 0.  0.
         25    1    1    2    0    0 -0.12706750445E+03  0.41668598775E+02 -0.30228623171E+03  0.35338985370E+03  0.12500000000E+03 0.  0.
         25    1    1    2    0    0  0.37055211168E+02  0.31438118812E+02 -0.48872988076E+02  0.14274106961E+03  0.12500000000E+03 0.  0.
</event>
<event>
 5    0  0.5597833E-005  0.2597388E+03  0.7546771E-02  0.1107300E+00
         21   -1    0    0  502  501  0.00000000000E+00  0.00000000000E+00  0.16071763508E+03  0.16071763508E+03  0.00000000000E+00 0.  1.
         21   -1    0    0  501  502 -0.00000000000E+00 -0.00000000000E+00 -0.41976871117E+03  0.41976871117E+03  0.00000000000E+00 0.  1.
         25    1    1    2    0    0  0.12603916358E+02  0.75630434261E+02  0.27351336512E+02  0.14917076424E+03  0.12500000000E+03 0.  0.
         25    1    1    2    0    0 -0.40355785845E+01  0.44021123908E+02 -0.19396357407E+03  0.23494895895E+03  0.12500000000E+03 0.  0.
         25    1    1    2    0    0 -0.85683377732E+01 -0.11965155817E+03 -0.92438838535E+02  0.19636662307E+03  0.12500000000E+03 0.  0.
</event>
<event>
 5    0  0.5597833E-005  0.4527505E+03  0.7546771E-02  0.1026905E+00
         21   -1    0    0  502  501  0.00000000000E+00  0.00000000000E+00  0.78169635835E+03  0.78169635835E+03  0.00000000000E+00 0.  1.
         21   -1    0    0  501  502 -0.00000000000E+00 -0.00000000000E+00 -0.26222844115E+03  0.26222844115E+03  0.00000000000E+00 0.  1.
         25    1    1    2    0    0 -0.98640907932E+02 -0.48622937999E+02  0.10797164387E+02  0.16684063527E+03  0.12500000000E+03 0.  0.
         25    1    1    2    0    0  0.31972861873E+03  0.16459813763E+03  0.12128570430E+03  0.39956746441E+03  0.12500000000E+03 0.  0.
         25    1    1    2    0    0 -0.22108771080E+03 -0.11597519963E+03  0.38738504851E+03  0.47751669982E+03  0.12500000000E+03 0.  0.
</event>
<event>
 5    0  0.6083070E-005  0.3880159E+03  0.7546771E-02  0.1048010E+00
         21   -1    0    0  502  501  0.00000000000E+00  0.00000000000E+00  0.46334821644E+03  0.46334821644E+03  0.00000000000E+00 0.  1.
         21   -1    0    0  501  502 -0.00000000000E+00 -0.00000000000E+00 -0.32493126616E+03  0.32493126616E+03  0.00000000000E+00 0.  1.
         25    1    1    2    0    0  0.75139425608E+02 -0.20619819802E+02  0.24644870090E+03  0.28711160273E+03  0.12500000000E+03 0.  0.
         25    1    1    2    0    0  0.60885128630E+02  0.19201686439E+03 -0.61337958854E+02  0.24487715347E+03  0.12500000000E+03 0.  0.
         25    1    1    2    0    0 -0.13602455424E+03 -0.17139704459E+03 -0.46693791758E+02  0.25629072640E+03  0.12500000000E+03 0.  0.
</event>
<event>
 5    0  0.5597833E-005  0.2561646E+03  0.7546771E-02  0.1109470E+00
         21   -1    0    0  502  501  0.00000000000E+00  0.00000000000E+00  0.89793211161E+03  0.89793211161E+03  0.00000000000E+00 0. -1.
         21   -1    0    0  501  502 -0.00000000000E+00 -0.00000000000E+00 -0.73079374163E+02  0.73079374163E+02  0.00000000000E+00 0. -1.
         25    1    1    2    0    0 -0.21104262630E+02  0.10078692880E+03  0.28091155946E+03  0.32425252375E+03  0.12500000000E+03 0.  0.
         25    1    1    2    0    0 -0.42381810483E+02  0.40212604729E+02  0.31267893422E+03  0.34176949446E+03  0.12500000000E+03 0.  0.
         25    1    1    2    0    0  0.63486073113E+02 -0.14099953353E+03  0.23126224376E+03  0.30498946756E+03  0.12500000000E+03 0.  0.
</event>
<event>
 5    0  0.5597833E-005  0.2725672E+03  0.7546771E-02  0.1099819E+00
         21   -1    0    0  502  501  0.00000000000E+00  0.00000000000E+00  0.27623045678E+03  0.27623045678E+03  0.00000000000E+00 0. -1.
         21   -1    0    0  501  502 -0.00000000000E+00 -0.00000000000E+00 -0.26895255826E+03  0.26895255826E+03  0.00000000000E+00 0. -1.
         25    1    1    2    0    0 -0.29715955290E+01  0.59211273216E+02  0.86048543280E+01  0.13861402806E+03  0.12500000000E+03 0.  0.
         25    1    1    2    0    0  0.51322816040E+02 -0.14424074857E+03 -0.98118492769E+02  0.22066187622E+03  0.12500000000E+03 0.  0.
         25    1    1    2    0    0 -0.48351220511E+02  0.85029475356E+02  0.96791536961E+02  0.18590711076E+03  0.12500000000E+03 0.  0.
</event>
<event>
 5    0  0.5597833E-005  0.2478872E+03  0.7546771E-02  0.1114647E+00
         21   -1    0    0  502  501  0.00000000000E+00  0.00000000000E+00  0.54786760331E+02  0.54786760331E+02  0.00000000000E+00 0.  1.
         21   -1    0    0  501  502 -0.00000000000E+00 -0.00000000000E+00 -0.11215860984E+04  0.11215860984E+04  0.00000000000E+00 0.  1.
         25    1    1    2    0    0 -0.10442379594E+03 -0.29370784920E+02 -0.33703807486E+03  0.37548187183E+03  0.12500000000E+03 0.  0.
         25    1    1    2    0    0  0.70651778793E+02  0.68999423837E+01 -0.15542022248E+03  0.21170670421E+03  0.12500000000E+03 0.  0.
         25    1    1    2    0    0  0.33772017150E+02  0.22470842536E+02 -0.57434104072E+03  0.58918428268E+03  0.12500000000E+03 0.  0.
</event>
<event>
 5    0  0.5597833E-005  0.3205023E+03  0.7546771E-02  0.1075418E+00
         21   -1    0    0  502  501  0.00000000000E+00  0.00000000000E+00  0.54179566821E+03  0.54179566821E+03  0.00000000000E+00 0. -1.
         21   -1    0    0  501  502 -0.00000000000E+00 -0.00000000000E+00 -0.18959497408E+03  0.18959497408E+03  0.00000000000E+00 0. -1.
         25    1    1    2    0    0 -0.18133846546E+03  0.36690191368E+02  0.57732810811E+02  0.23062499137E+03  0.12500000000E+03 0.  0.
         25    1    1    2    0    0  0.11204751154E+03 -0.13579457006E+03  0.22951270935E+03  0.31511250983E+03  0.12500000000E+03 0.  0.
         25    1    1    2    0    0  0.69290953920E+02  0.99104378692E+02  0.64955173971E+02  0.18565314109E+03  0.12500000000E+03 0.  0.
</event>
<event>
 5    0  0.5597833E-005  0.2716691E+03  0.7546771E-02  0.1100328E+00
         21   -1    0    0  502  501  0.00000000000E+00  0.00000000000E+00  0.18129512406E+03  0.18129512406E+03  0.00000000000E+00 0. -1.
         21   -1    0    0  501  502 -0.00000000000E+00 -0.00000000000E+00 -0.40709364669E+03  0.40709364669E+03  0.00000000000E+00 0. -1.
         25    1    1    2    0    0  0.82411118732E+02 -0.10912565104E+03 -0.15583872267E+03  0.24209648426E+03  0.12500000000E+03 0.  0.
         25    1    1    2    0    0  0.40373008663E+02  0.78354290994E+02 -0.70440954835E+02  0.16839329816E+03  0.12500000000E+03 0.  0.
         25    1    1    2    0    0 -0.12278412740E+03  0.30771360044E+02  0.48115488044E+00  0.17789898833E+03  0.12500000000E+03 0.  0.
</event>
<event>
 5    0  0.5597833E-005  0.2493261E+03  0.7546771E-02  0.1113731E+00
         21   -1    0    0  502  501  0.00000000000E+00  0.00000000000E+00  0.15375058935E+03  0.15375058935E+03  0.00000000000E+00 0. -1.
         21   -1    0    0  501  502 -0.00000000000E+00 -0.00000000000E+00 -0.40431399947E+03  0.40431399947E+03  0.00000000000E+00 0. -1.
         25    1    1    2    0    0  0.97738052295E+02 -0.70190332110E+02 -0.38141206934E+02  0.17764898326E+03  0.12500000000E+03 0.  0.
         25    1    1    2    0    0 -0.11226144362E+03  0.14093851453E+02 -0.16166754772E+03  0.23358652435E+03  0.12500000000E+03 0.  0.
         25    1    1    2    0    0  0.14523391328E+02  0.56096480656E+02 -0.50754655463E+02  0.14682908121E+03  0.12500000000E+03 0.  0.
</event>
<event>
 5    0  0.6553277E-005  0.3003466E+03  0.7546771E-02  0.1085067E+00
         21   -1    0    0  502  501  0.00000000000E+00  0.00000000000E+00  0.18865558009E+03  0.18865558009E+03  0.00000000000E+00 0.  1.
         21   -1    0    0  501  502 -0.00000000000E+00 -0.00000000000E+00 -0.47816291857E+03  0.47816291857E+03  0.00000000000E+00 0.  1.
         25    1    1    2    0    0  0.14260841750E+03  0.26925155947E+01  0.27247500149E+02  0.19160333151E+03  0.12500000000E+03 0.  0.
         25    1    1    2    0    0 -0.14494980594E+03  0.22466795364E+02 -0.84875006257E+02  0.21058007936E+03  0.12500000000E+03 0.  0.
         25    1    1    2    0    0  0.23413884373E+01 -0.25159310959E+02 -0.23187983237E+03  0.26463508778E+03  0.12500000000E+03 0.  0.
</event>
<event>
 5    0  0.5597833E-005  0.4750709E+03  0.7546771E-02  0.1020499E+00
         21   -1    0    0  502  501  0.00000000000E+00  0.00000000000E+00  0.26294700581E+03  0.26294700581E+03  0.00000000000E+00 0. -1.
         21   -1    0    0  501  502 -0.00000000000E+00 -0.00000000000E+00 -0.85831873490E+03  0.85831873490E+03  0.00000000000E+00 0. -1.
         25    1    1    2    0    0  0.15010553002E+03 -0.32562977916E+03 -0.30741120085E+03  0.48856224744E+03  0.12500000000E+03 0.  0.
         25    1    1    2    0    0  0.11107595957E+03  0.95698568886E+02 -0.81227758096E+02  0.20909096959E+03  0.12500000000E+03 0.  0.
         25    1    1    2    0    0 -0.26118148959E+03  0.22993121027E+03 -0.20673277014E+03  0.42361252367E+03  0.12500000000E+03 0.  0.
</event>
<event>
 5    0  0.5599949E-005  0.3268015E+03  0.7546771E-02  0.1072561E+00
         21   -1    0    0  502  501  0.00000000000E+00  0.00000000000E+00  0.96498525639E+02  0.96498525639E+02  0.00000000000E+00 0. -1.
         21   -1    0    0  501  502 -0.00000000000E+00 -0.00000000000E+00 -0.11067448740E+04  0.11067448740E+04  0.00000000000E+00 0. -1.
         25    1    1    2    0    0 -0.11494102181E+03  0.15112750923E+03 -0.17565079581E+03  0.28727889691E+03  0.12500000000E+03 0.  0.
         25    1    1    2    0    0  0.12515553127E+03 -0.11769142494E+03 -0.31185761291E+03  0.37735308299E+03  0.12500000000E+03 0.  0.
         25    1    1    2    0    0 -0.10214509458E+02 -0.33436084288E+02 -0.52273793968E+03  0.53861141978E+03  0.12500000000E+03 0.  0.
</event>
<event>
 5    0  0.5597833E-005  0.5079765E+03  0.7546771E-02  0.1011718E+00
         21   -1    0    0  502  501  0.00000000000E+00  0.00000000000E+00  0.14225246939E+03  0.14225246939E+03  0.00000000000E+00 0.  1.
         21   -1    0    0  501  502 -0.00000000000E+00 -0.00000000000E+00 -0.18139589656E+04  0.18139589656E+04  0.00000000000E+00 0.  1.
         25    1    1    2    0    0  0.36740449577E+03  0.76612505473E+02 -0.67973255069E+03  0.78645844135E+03  0.12500000000E+03 0.  0.
         25    1    1    2    0    0 -0.24713390540E+03  0.15805374756E+03 -0.61778554343E+03  0.69522667669E+03  0.12500000000E+03 0.  0.
         25    1    1    2    0    0 -0.12027059037E+03 -0.23466625303E+03 -0.37418840211E+03  0.47452631697E+03  0.12500000000E+03 0.  0.
</event>
<event>
 5    0  0.5597833E-005  0.4324307E+03  0.7546771E-02  0.1033095E+00
         21   -1    0    0  502  501  0.00000000000E+00  0.00000000000E+00  0.23416683695E+03  0.23416683695E+03  0.00000000000E+00 0.  1.
         21   -1    0    0  501  502 -0.00000000000E+00 -0.00000000000E+00 -0.79856009095E+03  0.79856009095E+03  0.00000000000E+00 0.  1.
         25    1    1    2    0    0 -0.16022361637E+03  0.82540601605E+02 -0.50341986855E+03  0.54912760103E+03  0.12500000000E+03 0.  0.
         25    1    1    2    0    0  0.44242699177E+02  0.71938806882E+02 -0.17144442109E+03  0.22836549190E+03  0.12500000000E+03 0.  0.
         25    1    1    2    0    0  0.11598091719E+03 -0.15447940849E+03  0.11047103564E+03  0.25523383497E+03  0.12500000000E+03 0.  0.
</event>
<event>
 5    0  0.5876745E-005  0.3041453E+03  0.7546771E-02  0.1083187E+00
         21   -1    0    0  502  501  0.00000000000E+00  0.00000000000E+00  0.49466860630E+03  0.49466860630E+03  0.00000000000E+00 0. -1.
         21   -1    0    0  501  502 -0.00000000000E+00 -0.00000000000E+00 -0.18700269697E+03  0.18700269697E+03  0.00000000000E+00 0. -1.
         25    1    1    2    0    0 -0.44514253769E+02 -0.13187295953E+03  0.64869544643E+02  0.19800266177E+03  0.12500000000E+03 0.  0.
         25    1    1    2    0    0  0.98935946385E+02  0.73629516921E+02 -0.25202081233E+02  0.17739721573E+03  0.12500000000E+03 0.  0.
         25    1    1    2    0    0 -0.54421692617E+02  0.58243442613E+02  0.26799844592E+03  0.30627142578E+03  0.12500000000E+03 0.  0.
</event>
<event>
 5    0  0.5597833E-005  0.2732028E+03  0.7546771E-02  0.1099460E+00
         21   -1    0    0  502  501  0.00000000000E+00  0.00000000000E+00  0.10074115424E+04  0.10074115424E+04  0.00000000000E+00 0.  1.
         21   -1    0    0  501  502 -0.00000000000E+00 -0.00000000000E+00 -0.74090622514E+02  0.74090622514E+02  0.00000000000E+00 0.  1.
         25    1    1    2    0    0  0.12997972793E+03  0.38771757323E+02  0.29108498400E+03  0.34460621983E+03  0.12500000000E+03 0.  0.
         25    1    1    2    0    0 -0.15298337664E+03 -0.69765624053E+02  0.50774067830E+03  0.54926928935E+03  0.12500000000E+03 0.  0.
         25    1    1    2    0    0  0.23003648706E+02  0.30993866730E+02  0.13449525762E+03  0.18762665576E+03  0.12500000000E+03 0.  0.
</event>
<event>
 5    0  0.5597833E-005  0.4070480E+03  0.7546771E-02  0.1041366E+00
         21   -1    0    0  502  501  0.00000000000E+00  0.00000000000E+00  0.95600910060E+02  0.95600910060E+02  0.00000000000E+00 0.  1.
         21   -1    0    0  501  502 -0.00000000000E+00 -0.00000000000E+00 -0.17331227366E+04  0.17331227366E+04  0.00000000000E+00 0.  1.
         25    1    1    2    0    0 -0.15836677482E+03 -0.20351619711E+02 -0.76856814664E+02  0.21685523685E+03  0.12500000000E+03 0.  0.
         25    1    1    2    0    0 -0.51270034536E+02 -0.23344067069E+02 -0.80415209259E+03  0.81575679582E+03  0.12500000000E+03 0.  0.
         25    1    1    2    0    0  0.20963680935E+03  0.43695686780E+02 -0.75651291925E+03  0.79611161396E+03  0.12500000000E+03 0.  0.
</event>
<event>
 5    0  0.5597833E-005  0.2673318E+03  0.7546771E-02  0.1102816E+00
         21   -1    0    0  502  501  0.00000000000E+00  0.00000000000E+00  0.14164045225E+04  0.14164045225E+04  0.00000000000E+00 0.  1.
         21   -1    0    0  501  502 -0.00000000000E+00 -0.00000000000E+00 -0.50456139581E+02  0.50456139581E+02  0.00000000000E+00 0.  1.
         25    1    1    2    0    0  0.35867207894E+02 -0.12412189438E+03  0.39094395561E+03  0.43029626735E+03  0.12500000000E+03 0.  0.
         25    1    1    2    0    0  0.40623048599E+02  0.15215948669E+03  0.50977636342E+03  0.54799606036E+03  0.12500000000E+03 0.  0.
         25    1    1    2    0    0 -0.76490256493E+02 -0.28037592313E+02  0.46522806387E+03  0.48856833435E+03  0.12500000000E+03 0.  0.
</event>
<event>
 5    0  0.5597833E-005  0.3335011E+03  0.7546771E-02  0.1069598E+00
         21   -1    0    0  502  501  0.00000000000E+00  0.00000000000E+00  0.59328252485E+02  0.59328252485E+02  0.00000000000E+00 0.  1.
         21   -1    0    0  501  502 -0.00000000000E+00 -0.00000000000E+00 -0.18747051671E+04  0.18747051671E+04  0.00000000000E+00 0.  1.
         25    1    1    2    0    0  0.15019804451E+03 -0.44402077576E+02 -0.33166764345E+03  0.38750409388E+03  0.12500000000E+03 0.  0.
         25    1    1    2    0    0 -0.20912798353E+03  0.93394238369E+02 -0.11898333386E+04  0.12181072904E+04  0.12500000000E+03 0.  0.
         25    1    1    2    0    0  0.58929939027E+02 -0.48992160793E+02 -0.29387593254E+03  0.32842203528E+03  0.12500000000E+03 0.  0.
</event>
<event>
 5    0  0.5597833E-005  0.2230145E+03  0.7546771E-02  0.1131655E+00
         21   -1    0    0  502  501  0.00000000000E+00  0.00000000000E+00  0.72542172898E+02  0.72542172898E+02  0.00000000000E+00 0.  1.
         21   -1    0    0  501  502 -0.00000000000E+00 -0.00000000000E+00 -0.68560755562E+03  0.68560755562E+03  0.00000000000E+00 0.  1.
         25    1    1    2    0    0 -0.21514553999E+02  0.27378253744E+02 -0.24249896907E+03  0.27503307949E+03  0.12500000000E+03 0.  0.
         25    1    1    2    0    0  0.20583228036E+02  0.19342517197E+02 -0.53052931781E+02  0.13869901160E+03  0.12500000000E+03 0.  0.
         25    1    1    2    0    0  0.93132596357E+00 -0.46720770941E+02 -0.31751348187E+03  0.34441763743E+03  0.12500000000E+03 0.  0.
</event>
<event>
 5    0  0.5597833E-005  0.3471245E+03  0.7546771E-02  0.1063801E+00
         21   -1    0    0  502  501  0.00000000000E+00  0.00000000000E+00  0.90348773983E+03  0.90348773983E+03  0.00000000000E+00 0.  1.
         21   -1    0    0  501  502 -0.00000000000E+00 -0.00000000000E+00 -0.13336694805E+03  0.13336694805E+03  0.00000000000E+00 0.  1.
         25    1    1    2    0    0 -0.78593197586E+02 -0.20214563636E+01 -0.57416784062E+02  0.15843820273E+03  0.12500000000E+03 0.  0.
         25    1    1    2    0    0 -0.14215289901E+02 -0.67034126787E+01  0.24662826147E+03  0.27694315223E+03  0.12500000000E+03 0.  0.
         25    1    1    2    0    0  0.92808487487E+02  0.87248690423E+01  0.58090931437E+03  0.60147333292E+03  0.12500000000E+03 0.  0.
</event>
<event>
 5    0  0.5597833E-005  0.4631229E+03  0.7546771E-02  0.1023879E+00
         21   -1    0    0  502  501  0.00000000000E+00  0.00000000000E+00  0.66987503503E+03  0.66987503503E+03  0.00000000000E+00 0. -1.
         21   -1    0    0  501  502 -0.00000000000E+00 -0.00000000000E+00 -0.32018328206E+03  0.32018328206E+03  0.00000000000E+00 0. -1.
         25    1    1    2    0    0 -0.12374012709E+03  0.53564075956E+01  0.25107585647E+03  0.30660136310E+03  0.12500000000E+03 0.  0.
         25    1    1    2    0    0 -0.13374233026E+03  0.43369007024E+02  0.28277489060E+03  0.33963880877E+03  0.12500000000E+03 0.  0.
         25    1    1    2    0    0  0.25748245735E+03 -0.48725414620E+02 -0.18415899410E+03  0.34381814522E+03  0.12500000000E+03 0.  0.
</event>
<event>
 5    0  0.6096186E-005  0.2933210E+03  0.7546771E-02  0.1088628E+00
         21   -1    0    0  502  501  0.00000000000E+00  0.00000000000E+00  0.51285907016E+03  0.51285907016E+03  0.00000000000E+00 0.  1.
         21   -1    0    0  501  502 -0.00000000000E+00 -0.00000000000E+00 -0.16775990968E+03  0.16775990968E+03  0.00000000000E+00 0.  1.
         25    1    1    2    0    0  0.22274616761E+02 -0.19068805843E+02  0.22546214338E+03  0.25945704077E+03  0.12500000000E+03 0.  0.
         25    1    1    2    0    0 -0.68464061645E+02  0.43187473473E+01  0.21404108109E+03  0.25718585441E+03  0.12500000000E+03 0.  0.
         25    1    1    2    0    0  0.46189444884E+02  0.14750058495E+02 -0.94404063979E+02  0.16397608466E+03  0.12500000000E+03 0.  0.
</event>
<event>
 5    0  0.5730205E-005  0.2912821E+03  0.7546771E-02  0.1089682E+00
         21   -1    0    0  502  501  0.00000000000E+00  0.00000000000E+00  0.30692373923E+03  0.30692373923E+03  0.00000000000E+00 0. -1.
         21   -1    0    0  501  502 -0.00000000000E+00 -0.00000000000E+00 -0.27643751977E+03  0.27643751977E+03  0.00000000000E+00 0. -1.
         25    1    1    2    0    0 -0.76884721477E+02  0.20661688539E+02 -0.91046883435E+02  0.17393303526E+03  0.12500000000E+03 0.  0.
         25    1    1    2    0    0 -0.79303503215E+02  0.61407677713E+02 -0.22379048211E+01  0.16028086824E+03  0.12500000000E+03 0.  0.
         25    1    1    2    0    0  0.15618822469E+03 -0.82069366253E+02  0.12377100772E+03  0.24914735552E+03  0.12500000000E+03 0.  0.
</event>
<event>
 5    0  0.5597833E-005  0.3129401E+03  0.7546771E-02  0.1078945E+00
         21   -1    0    0  502  501  0.00000000000E+00  0.00000000000E+00  0.77036051957E+02  0.77036051957E+02  0.00000000000E+00 0. -1.
         21   -1    0    0  501  502 -0.00000000000E+00 -0.00000000000E+00 -0.12712424304E+04  0.12712424304E+04  0.00000000000E+00 0. -1.
         25    1    1    2    0    0  0.61563134882E+02  0.34808407910E+02 -0.72381033751E+02  0.16082804135E+03  0.12500000000E+03 0.  0.
         25    1    1    2    0    0  0.24989465519E+02 -0.12376490347E+03 -0.81049731626E+03  0.82974280616E+03  0.12500000000E+03 0.  0.
         25    1    1    2    0    0 -0.86552600401E+02  0.88956495561E+02 -0.31132802845E+03  0.35770763486E+03  0.12500000000E+03 0.  0.
</event>
<event>
 5    0  0.5597833E-005  0.2221603E+03  0.7546771E-02  0.1132283E+00
         21   -1    0    0  502  501  0.00000000000E+00  0.00000000000E+00  0.15447975879E+03  0.15447975879E+03  0.00000000000E+00 0. -1.
         21   -1    0    0  501  502 -0.00000000000E+00 -0.00000000000E+00 -0.31949309054E+03  0.31949309054E+03  0.00000000000E+00 0. -1.
         25    1    1    2    0    0  0.23151210871E+02 -0.43805804891E+01  0.21451439265E+02  0.12899741198E+03  0.12500000000E+03 0.  0.
         25    1    1    2    0    0  0.57588795240E+02 -0.15728069881E+02 -0.10732943979E+03  0.17523826684E+03  0.12500000000E+03 0.  0.
         25    1    1    2    0    0 -0.80740006110E+02  0.20108650371E+02 -0.79135331222E+02  0.16973717051E+03  0.12500000000E+03 0.  0.
</event>
<event>
 5    0  0.5597833E-005  0.2658793E+03  0.7546771E-02  0.1103661E+00
         21   -1    0    0  502  501  0.00000000000E+00  0.00000000000E+00  0.42776853735E+03  0.42776853735E+03  0.00000000000E+00 0.  1.
         21   -1    0    0  501  502 -0.00000000000E+00 -0.00000000000E+00 -0.16525718142E+03  0.16525718142E+03  0.00000000000E+00 0.  1.
         25    1    1    2    0    0 -0.13665149688E+03  0.43879283979E+02  0.23281585272E+03  0.30071123099E+03  0.12500000000E+03 0.  0.
         25    1    1    2    0    0  0.56838258381E+02 -0.37303354309E+02  0.17413100222E+02  0.14335391141E+03  0.12500000000E+03 0.  0.
         25    1    1    2    0    0  0.79813238499E+02 -0.65759296698E+01  0.12282402983E+02  0.14896057637E+03  0.12500000000E+03 0.  0.
</event>
<event>
 5    0  0.5597833E-005  0.2802278E+03  0.7546771E-02  0.1095565E+00
         21   -1    0    0  502  501  0.00000000000E+00  0.00000000000E+00  0.65834572235E+02  0.65834572235E+02  0.00000000000E+00 0.  1.
         21   -1    0    0  501  502 -0.00000000000E+00 -0.00000000000E+00 -0.11928018100E+04  0.11928018100E+04  0.00000000000E+00 0.  1.
         25    1    1    2    0    0  0.27613110950E+02  0.95735114683E+02 -0.24876157733E+03  0.29569412986E+03  0.12500000000E+03 0.  0.
         25    1    1    2    0    0  0.51992320894E+02 -0.82788719970E+02 -0.74986114433E+03  0.76646846599E+03  0.12500000000E+03 0.  0.
         25    1    1    2    0    0 -0.79605431844E+02 -0.12946394713E+02 -0.12834451608E+03  0.19647378635E+03  0.12500000000E+03 0.  0.
</event>
<event>
 5    0  0.5597833E-005  0.3437341E+03  0.7546771E-02  0.1065217E+00
         21   -1    0    0  502  501  0.00000000000E+00  0.00000000000E+00  0.36457183203E+03  0.36457183203E+03  0.00000000000E+00 0. -1.
         21   -1    0    0  501  502 -0.00000000000E+00 -0.00000000000E+00 -0.32408747672E+03  0.32408747672E+03  0.00000000000E+00 0. -1.
         25    1    1    2    0    0  0.18293250356E+03 -0.57701470721E+02  0.19506021391E+03  0.30077773793E+03  0.12500000000E+03 0.  0.
         25    1    1    2    0    0 -0.32737433024E+02  0.76681742009E+02 -0.11091607239E+03  0.18675974993E+03  0.12500000000E+03 0.  0.
         25    1    1    2    0    0 -0.15019507054E+03 -0.18980271287E+02 -0.43659786213E+02  0.20112182090E+03  0.12500000000E+03 0.  0.
</event>
<event>
 5    0  0.5597833E-005  0.2821827E+03  0.7546771E-02  0.1094503E+00
         21   -1    0    0  502  501  0.00000000000E+00  0.00000000000E+00  0.74854583892E+03  0.74854583892E+03  0.00000000000E+00 0. -1.
         21   -1    0    0  501  502 -0.00000000000E+00 -0.00000000000E+00 -0.10637569915E+03  0.10637569915E+03  0.00000000000E+00 0. -1.
         25    1    1    2    0    0  0.17406219535E+03  0.23767202777E+02  0.15457435589E+03  0.26529372265E+03  0.12500000000E+03 0.  0.
         25    1    1    2    0    0 -0.61564856180E+02  0.43504660075E+02  0.17052013768E+03  0.22446604268E+03  0.12500000000E+03 0.  0.
         25    1    1    2    0    0 -0.11249733917E+03 -0.67271862852E+02  0.31707564620E+03  0.36516177274E+03  0.12500000000E+03 0.  0.
</event>
<event>
 5    0  0.5597833E-005  0.3340380E+03  0.7546771E-02  0.1069364E+00
         21   -1    0    0  502  501  0.00000000000E+00  0.00000000000E+00  0.35307463056E+03  0.35307463056E+03  0.00000000000E+00 0. -1.
         21   -1    0    0  501  502 -0.00000000000E+00 -0.00000000000E+00 -0.31602778541E+03  0.31602778541E+03  0.00000000000E+00 0. -1.
         25    1    1    2    0    0 -0.33774937465E+02  0.15124397068E+03  0.20120935774E+03  0.28306481715E+03  0.12500000000E+03 0.  0.
         25    1    1    2    0    0 -0.67670722765E+02 -0.63034416108E+02 -0.12212626599E+03  0.19771820649E+03  0.12500000000E+03 0.  0.
         25    1    1    2    0    0  0.10144566023E+03 -0.88209554569E+02 -0.42036246608E+02  0.18831939233E+03  0.12500000000E+03 0.  0.
</event>
<event>
 5    0  0.5597833E-005  0.3601781E+03  0.7546771E-02  0.1058513E+00
         21   -1    0    0  502  501  0.00000000000E+00  0.00000000000E+00  0.18197446545E+03  0.18197446545E+03  0.00000000000E+00 0.  1.
         21   -1    0    0  501  502 -0.00000000000E+00 -0.00000000000E+00 -0.71289258403E+03  0.71289258403E+03  0.00000000000E+00 0.  1.
         25    1    1    2    0    0 -0.13189843682E+03 -0.79845716331E+01 -0.30623001584E+03  0.35617800833E+03  0.12500000000E+03 0.  0.
         25    1    1    2    0    0 -0.82869653050E+01  0.55542738885E+02  0.93683085392E+02  0.16599756060E+03  0.12500000000E+03 0.  0.
         25    1    1    2    0    0  0.14018540213E+03 -0.47558167252E+02 -0.31837118814E+03  0.37269148055E+03  0.12500000000E+03 0.  0.
</event>
<event>
 5    0  0.5597833E-005  0.2865058E+03  0.7546771E-02  0.1092188E+00
         21   -1    0    0  502  501  0.00000000000E+00  0.00000000000E+00  0.12436707851E+03  0.12436707851E+03  0.00000000000E+00 0.  1.
         21   -1    0    0  501  502 -0.00000000000E+00 -0.00000000000E+00 -0.66002642434E+03  0.66002642434E+03  0.00000000000E+00 0.  1.
         25    1    1    2    0    0 -0.76815843855E+02  0.55579514488E+02 -0.79456773433E+02  0.17586396772E+03  0.12500000000E+03 0.  0.
         25    1    1    2    0    0  0.17966910599E+03  0.20599654725E+02 -0.20861845110E+03  0.30307093487E+03  0.12500000000E+03 0.  0.
         25    1    1    2    0    0 -0.10285326214E+03 -0.76179169213E+02 -0.24758412129E+03  0.30545860025E+03  0.12500000000E+03 0.  0.
</event>
<event>
 5    0  0.1663898E-004  0.6779299E+03  0.7546771E-02  0.9755738E-01
         21   -1    0    0  502  501  0.00000000000E+00  0.00000000000E+00  0.34152844501E+03  0.34152844501E+03  0.00000000000E+00 0. -1.
         21   -1    0    0  501  502 -0.00000000000E+00 -0.00000000000E+00 -0.13456828813E+04  0.13456828813E+04  0.00000000000E+00 0. -1.
         25    1    1    2    0    0 -0.48603997342E+03 -0.22637858866E+03 -0.32420731308E+03  0.63891901131E+03  0.12500000000E+03 0.  0.
         25    1    1    2    0    0 -0.57473487273E+01  0.78529822723E+02 -0.44686824073E+03  0.47065506440E+03  0.12500000000E+03 0.  0.
         25    1    1    2    0    0  0.49178732215E+03  0.14784876594E+03 -0.23307888247E+03  0.57763725059E+03  0.12500000000E+03 0.  0.
</event>
<event>
 5    0  0.5597833E-005  0.4311662E+03  0.7546771E-02  0.1033492E+00
         21   -1    0    0  502  501  0.00000000000E+00  0.00000000000E+00  0.12687296484E+03  0.12687296484E+03  0.00000000000E+00 0. -1.
         21   -1    0    0  501  502 -0.00000000000E+00 -0.00000000000E+00 -0.14652792982E+04  0.14652792982E+04  0.00000000000E+00 0. -1.
         25    1    1    2    0    0 -0.24326068588E+02  0.10766067774E+03 -0.15743247099E+03  0.22933068279E+03  0.12500000000E+03 0.  0.
         25    1    1    2    0    0  0.29750108729E+03 -0.88982283000E+02 -0.37600047209E+03  0.50341444023E+03  0.12500000000E+03 0.  0.
         25    1    1    2    0    0 -0.27317501870E+03 -0.18678394743E+02 -0.80497339030E+03  0.85940714005E+03  0.12500000000E+03 0.  0.
</event>
<event>
 5    0  0.5597833E-005  0.2545097E+03  0.7546771E-02  0.1110488E+00
         21   -1    0    0  502  501  0.00000000000E+00  0.00000000000E+00  0.80163142207E+03  0.80163142207E+03  0.00000000000E+00 0.  1.
         21   -1    0    0  501  502 -0.00000000000E+00 -0.00000000000E+00 -0.80804200510E+02  0.80804200510E+02  0.00000000000E+00 0.  1.
         25    1    1    2    0    0  0.39340871462E+01  0.52213037839E+02  0.23342677782E+03  0.26991617026E+03  0.12500000000E+03 0.  0.
         25    1    1    2    0    0 -0.62984364079E+02 -0.11163819925E+03  0.40063335215E+03  0.43881909770E+03  0.12500000000E+03 0.  0.
         25    1    1    2    0    0  0.59050276933E+02  0.59425161407E+02  0.86767091589E+02  0.17370035463E+03  0.12500000000E+03 0.  0.
</event>
<event>
 5    0  0.5597833E-005  0.3121875E+03  0.7546771E-02  0.1079302E+00
         21   -1    0    0  502  501  0.00000000000E+00  0.00000000000E+00  0.50189596814E+03  0.50189596814E+03  0.00000000000E+00 0. -1.
         21   -1    0    0  501  502 -0.00000000000E+00 -0.00000000000E+00 -0.19418575045E+03  0.19418575045E+03  0.00000000000E+00 0. -1.
         25    1    1    2    0    0 -0.57720277373E+02  0.14437189490E+03  0.57703594942E+02  0.20767662200E+03  0.12500000000E+03 0.  0.
         25    1    1    2    0    0 -0.12020475229E+02 -0.82051368935E+02 -0.43306291673E+02  0.15613248819E+03  0.12500000000E+03 0.  0.
         25    1    1    2    0    0  0.69740752601E+02 -0.62320525964E+02  0.29331291442E+03  0.33227260840E+03  0.12500000000E+03 0.  0.
</event>
<event>
 5    0  0.6154801E-005  0.4554692E+03  0.7546771E-02  0.1026104E+00
         21   -1    0    0  502  501  0.00000000000E+00  0.00000000000E+00  0.21515393241E+03  0.21515393241E+03  0.00000000000E+00 0. -1.
         21   -1    0    0  501  502 -0.00000000000E+00 -0.00000000000E+00 -0.96420361942E+03  0.96420361942E+03  0.00000000000E+00 0. -1.
         25    1    1    2    0    0 -0.96886092668E+02  0.29519829697E+03 -0.29834234522E+03  0.44851098586E+03  0.12500000000E+03 0.  0.
         25    1    1    2    0    0  0.14341454063E+03 -0.13511626314E+02 -0.98907015165E+01  0.19097937189E+03  0.12500000000E+03 0.  0.
         25    1    1    2    0    0 -0.46528447967E+02 -0.28168667066E+03 -0.44081664028E+03  0.53986719408E+03  0.12500000000E+03 0.  0.
</event>
<event>
 5    0  0.5597833E-005  0.4466307E+03  0.7546771E-02  0.1028732E+00
         21   -1    0    0  502  501  0.00000000000E+00  0.00000000000E+00  0.53962890382E+03  0.53962890382E+03  0.00000000000E+00 0.  1.
         21   -1    0    0  501  502 -0.00000000000E+00 -0.00000000000E+00 -0.36965961267E+03  0.36965961267E+03  0.00000000000E+00 0.  1.
         25    1    1    2    0    0  0.18970315514E+03 -0.30482411032E+03  0.39236184396E+02  0.38219040211E+03  0.12500000000E+03 0.  0.
         25    1    1    2    0    0 -0.17509922382E+03  0.62909893511E+02  0.11987642459E+03  0.25419038152E+03  0.12500000000E+03 0.  0.
         25    1    1    2    0    0 -0.14603931321E+02  0.24191421681E+03  0.10856682165E+02  0.27290773285E+03  0.12500000000E+03 0.  0.
</event>
<event>
 5    0  0.5597833E-005  0.2431390E+03  0.7546771E-02  0.1117719E+00
         21   -1    0    0  502  501  0.00000000000E+00  0.00000000000E+00  0.54067741429E+03  0.54067741429E+03  0.00000000000E+00 0. -1.
         21   -1    0    0  501  502 -0.00000000000E+00 -0.00000000000E+00 -0.10933793362E+03  0.10933793362E+03  0.00000000000E+00 0. -1.
         25    1    1    2    0    0  0.14582490729E+02 -0.75809840515E+02  0.90059045438E+02  0.17232356954E+03  0.12500000000E+03 0.  0.
         25    1    1    2    0    0 -0.93847948527E+02  0.20955461663E+02  0.91836064121E+02  0.18249775749E+03  0.12500000000E+03 0.  0.
         25    1    1    2    0    0  0.79265457798E+02  0.54854378852E+02  0.24944437112E+03  0.29519402088E+03  0.12500000000E+03 0.  0.
</event>
<event>
 5    0  0.5597833E-005  0.2891314E+03  0.7546771E-02  0.1090804E+00
         21   -1    0    0  502  501  0.00000000000E+00  0.00000000000E+00  0.28282264281E+04  0.28282264281E+04  0.00000000000E+00 0. -1.
         21   -1    0    0  501  502 -0.00000000000E+00 -0.00000000000E+00 -0.29558089559E+02  0.29558089559E+02  0.00000000000E+00 0. -1.
         25    1    1    2    0    0  0.60136265419E+02  0.10956065840E+03  0.10827538782E+04  0.10970874482E+04  0.12500000000E+03 0.  0.
         25    1    1    2    0    0  0.97024140129E+02 -0.11136351891E+03  0.80979619681E+03  0.83259257592E+03  0.12500000000E+03 0.  0.
         25    1    1    2    0    0 -0.15716040555E+03  0.18028605122E+01  0.90611826351E+03  0.92810449349E+03  0.12500000000E+03 0.  0.
</event>
<event>
 5    0  0.5597833E-005  0.3001444E+03  0.7546771E-02  0.1085168E+00
         21   -1    0    0  502  501  0.00000000000E+00  0.00000000000E+00  0.17373178629E+03  0.17373178629E+03  0.00000000000E+00 0. -1.
         21   -1    0    0  501  502 -0.00000000000E+00 -0.00000000000E+00 -0.51853864998E+03  0.51853864998E+03  0.00000000000E+00 0. -1.
         25    1    1    2    0    0  0.14766189091E+03 -0.28132226697E+02 -0.12306426540E+03  0.23100924143E+03  0.12500000000E+03 0.  0.
         25    1    1    2    0    0 -0.95194327121E+02 -0.11441074785E+03 -0.16909606324E+03  0.25762425690E+03  0.12500000000E+03 0.  0.
         25    1    1    2    0    0 -0.52467563785E+02  0.14254297454E+03 -0.52646535042E+02  0.20363693794E+03  0.12500000000E+03 0.  0.
</event>
<event>
 5    0  0.5597833E-005  0.2887842E+03  0.7546771E-02  0.1090986E+00
         21   -1    0    0  502  501  0.00000000000E+00  0.00000000000E+00  0.30272595819E+03  0.30272595819E+03  0.00000000000E+00 0.  1.
         21   -1    0    0  501  502 -0.00000000000E+00 -0.00000000000E+00 -0.27548442641E+03  0.27548442641E+03  0.00000000000E+00 0.  1.
         25    1    1    2    0    0 -0.45457629341E+02 -0.13142600423E+03 -0.40521332126E+02  0.19132738698E+03  0.12500000000E+03 0.  0.
         25    1    1    2    0    0  0.10612610006E+03  0.14359241397E+02  0.11298964026E+03  0.19965118515E+03  0.12500000000E+03 0.  0.
         25    1    1    2    0    0 -0.60668470722E+02  0.11706676283E+03 -0.45226776344E+02  0.18723181246E+03  0.12500000000E+03 0.  0.
</event>
<event>
 5    0  0.5597833E-005  0.2596008E+03  0.7546771E-02  0.1107383E+00
         21   -1    0    0  502  501  0.00000000000E+00  0.00000000000E+00  0.19291923136E+03  0.19291923136E+03  0.00000000000E+00 0. -1.
         21   -1    0    0  501  502 -0.00000000000E+00 -0.00000000000E+00 -0.34933046840E+03  0.34933046840E+03  0.00000000000E+00 0. -1.
         25    1    1    2    0    0  0.37424570176E+02 -0.13336180032E+03 -0.61200609828E+02  0.19635804766E+03  0.12500000000E+03 0.  0.
         25    1    1    2    0    0 -0.19517733624E+02  0.15162996483E+03 -0.21769911760E+02  0.19867440000E+03  0.12500000000E+03 0.  0.
         25    1    1    2    0    0 -0.17906836552E+02 -0.18268164503E+02 -0.73440715453E+02  0.14721725210E+03  0.12500000000E+03 0.  0.
</event>
<event>
 5    0  0.5597833E-005  0.3562718E+03  0.7546771E-02  0.1060070E+00
         21   -1    0    0  502  501  0.00000000000E+00  0.00000000000E+00  0.42400510276E+03  0.42400510276E+03  0.00000000000E+00 0.  1.
         21   -1    0    0  501  502 -0.00000000000E+00 -0.00000000000E+00 -0.29935873302E+03  0.29935873302E+03  0.00000000000E+00 0.  1.
         25    1    1    2    0    0  0.13003537226E+03  0.10353799951E+03 -0.89706119053E+02  0.22649835138E+03  0.12500000000E+03 0.  0.
         25    1    1    2    0    0  0.13681671298E+02 -0.16255281421E+03  0.19411569048E+01  0.20552219741E+03  0.12500000000E+03 0.  0.
         25    1    1    2    0    0 -0.14371704356E+03  0.59014814701E+02  0.21241133188E+03  0.29134328699E+03  0.12500000000E+03 0.  0.
</event>
<event>
 5    0  0.5597833E-005  0.2543782E+03  0.7546771E-02  0.1110569E+00
         21   -1    0    0  502  501  0.00000000000E+00  0.00000000000E+00  0.37680735585E+03  0.37680735585E+03  0.00000000000E+00 0.  1.
         21   -1    0    0  501  502 -0.00000000000E+00 -0.00000000000E+00 -0.17172776920E+03  0.17172776920E+03  0.00000000000E+00 0.  1.
         25    1    1    2    0    0  0.24962984932E+02  0.59026241271E+02 -0.16802453037E+02  0.14147286031E+03  0.12500000000E+03 0.  0.
         25    1    1    2    0    0 -0.20941256156E+02 -0.28481288991E+02  0.24401000849E+03  0.27643372492E+03  0.12500000000E+03 0.  0.
         25    1    1    2    0    0 -0.40217287755E+01 -0.30544952279E+02 -0.22127968801E+02  0.13062853982E+03  0.12500000000E+03 0.  0.
</event>
<event>
 5    0  0.5597833E-005  0.2285318E+03  0.7546771E-02  0.1127677E+00
         21   -1    0    0  502  501  0.00000000000E+00  0.00000000000E+00  0.14739760050E+03  0.14739760050E+03  0.00000000000E+00 0.  1.
         21   -1    0    0  501  502 -0.00000000000E+00 -0.00000000000E+00 -0.35432597979E+03  0.35432597979E+03  0.00000000000E+00 0.  1.
         25    1    1    2    0    0 -0.78716133024E+01 -0.34313090292E+02 -0.11916917513E+03  0.17625448296E+03  0.12500000000E+03 0.  0.
         25    1    1    2    0    0 -0.18267061069E+02  0.85253590106E+02  0.15972546981E+02  0.15323831898E+03  0.12500000000E+03 0.  0.
         25    1    1    2    0    0  0.26138674372E+02 -0.50940499814E+02 -0.10373175114E+03  0.17223077836E+03  0.12500000000E+03 0.  0.
</event>
<event>
 5    0  0.5597833E-005  0.3198978E+03  0.7546771E-02  0.1075696E+00
         21   -1    0    0  502  501  0.00000000000E+00  0.00000000000E+00  0.58893044889E+03  0.58893044889E+03  0.00000000000E+00 0.  1.
         21   -1    0    0  501  502 -0.00000000000E+00 -0.00000000000E+00 -0.17376347454E+03  0.17376347454E+03  0.00000000000E+00 0.  1.
         25    1    1    2    0    0  0.16459269832E+02  0.45147200434E+02  0.15956486402E+03  0.20831496130E+03  0.12500000000E+03 0.  0.
         25    1    1    2    0    0  0.66448137512E+02  0.17466693258E+03  0.13464196369E+03  0.26206363865E+03  0.12500000000E+03 0.  0.
         25    1    1    2    0    0 -0.82907407344E+02 -0.21981413302E+03  0.12096014665E+03  0.29231532348E+03  0.12500000000E+03 0.  0.
</event>
<event>
 5    0  0.5597833E-005  0.3086887E+03  0.7546771E-02  0.1080976E+00
         21   -1    0    0  502  501  0.00000000000E+00  0.00000000000E+00  0.32764905108E+03  0.32764905108E+03  0.00000000000E+00 0.  1.
         21   -1    0    0  501  502 -0.00000000000E+00 -0.00000000000E+00 -0.29082554260E+03  0.29082554260E+03  0.00000000000E+00 0.  1.
         25    1    1    2    0    0 -0.57012845637E+02  0.38197231073E+02 -0.16131165592E+03  0.21530430410E+03  0.12500000000E+03 0.  0.
         25    1    1    2    0    0 -0.90543025654E+02 -0.31930234614E+01  0.94224220709E+02  0.18086303841E+03  0.12500000000E+03 0.  0.
         25    1    1    2    0    0  0.14755587129E+03 -0.35004207612E+02  0.10391094370E+03  0.22230725117E+03  0.12500000000E+03 0.  0.
</event>
<event>
 5    0  0.5597833E-005  0.7640033E+03  0.7546771E-02  0.9613634E-01
         21   -1    0    0  502  501  0.00000000000E+00  0.00000000000E+00  0.14725335505E+04  0.14725335505E+04  0.00000000000E+00 0.  1.
         21   -1    0    0  501  502 -0.00000000000E+00 -0.00000000000E+00 -0.39639233323E+03  0.39639233323E+03  0.00000000000E+00 0.  1.
         25    1    1    2    0    0  0.74043379956E+02 -0.24306639220E+03  0.77119550648E+03  0.82154196627E+03  0.12500000000E+03 0.  0.
         25    1    1    2    0    0 -0.31262424586E+03  0.26593541617E+03 -0.20096965543E+03  0.47378198264E+03  0.12500000000E+03 0.  0.
         25    1    1    2    0    0  0.23858086590E+03 -0.22869023969E+02  0.50591536619E+03  0.57360193478E+03  0.12500000000E+03 0.  0.
</event>
<event>
 5    0  0.5597833E-005  0.3940249E+03  0.7546771E-02  0.1045868E+00
         21   -1    0    0  502  501  0.00000000000E+00  0.00000000000E+00  0.13154355623E+04  0.13154355623E+04  0.00000000000E+00 0.  1.
         21   -1    0    0  501  502 -0.00000000000E+00 -0.00000000000E+00 -0.11802602732E+03  0.11802602732E+03  0.00000000000E+00 0.  1.
         25    1    1    2    0    0  0.21104491450E+02 -0.11064537181E+03  0.33705784850E+01  0.16829782726E+03  0.12500000000E+03 0.  0.
         25    1    1    2    0    0  0.87784411444E+00  0.15885803766E+03  0.10415877117E+04  0.10610214927E+04  0.12500000000E+03 0.  0.
         25    1    1    2    0    0 -0.21982335565E+02 -0.48212665851E+02  0.15245124472E+03  0.20414226961E+03  0.12500000000E+03 0.  0.
</event>
<event>
 5    0  0.5597833E-005  0.2533661E+03  0.7546771E-02  0.1111196E+00
         21   -1    0    0  502  501  0.00000000000E+00  0.00000000000E+00  0.79872116236E+02  0.79872116236E+02  0.00000000000E+00 0.  1.
         21   -1    0    0  501  502 -0.00000000000E+00 -0.00000000000E+00 -0.80371484796E+03  0.80371484796E+03  0.00000000000E+00 0.  1.
         25    1    1    2    0    0 -0.43762569433E+02 -0.43335633573E+02 -0.88804904686E+02  0.16524058435E+03  0.12500000000E+03 0.  0.
         25    1    1    2    0    0  0.93544232077E+02  0.78912999246E+02 -0.22293330850E+03  0.28337615433E+03  0.12500000000E+03 0.  0.
         25    1    1    2    0    0 -0.49781662643E+02 -0.35577365673E+02 -0.41210451854E+03  0.43497022551E+03  0.12500000000E+03 0.  0.
</event>
<event>
 5    0  0.5597833E-005  0.3260173E+03  0.7546771E-02  0.1072913E+00
         21   -1    0    0  502  501  0.00000000000E+00  0.00000000000E+00  0.51961137405E+03  0.51961137405E+03  0.00000000000E+00 0. -1.
         21   -1    0    0  501  502 -0.00000000000E+00 -0.00000000000E+00 -0.20455150667E+03  0.20455150667E+03  0.00000000000E+00 0. -1.
         25    1    1    2    0    0 -0.13131963349E+03 -0.17620673985E+03  0.27356391337E+03  0.37249949800E+03  0.12500000000E+03 0.  0.
         25    1    1    2    0    0  0.50650390717E+02  0.10828865583E+03  0.68261030406E+02  0.18594747466E+03  0.12500000000E+03 0.  0.
         25    1    1    2    0    0  0.80669242775E+02  0.67918084019E+02 -0.26765076396E+02  0.16571590805E+03  0.12500000000E+03 0.  0.
</event>
<event>
 5    0  0.5597833E-005  0.2790902E+03  0.7546771E-02  0.1096187E+00
         21   -1    0    0  502  501  0.00000000000E+00  0.00000000000E+00  0.10499649363E+04  0.10499649363E+04  0.00000000000E+00 0. -1.
         21   -1    0    0  501  502 -0.00000000000E+00 -0.00000000000E+00 -0.74184698758E+02  0.74184698758E+02  0.00000000000E+00 0. -1.
         25    1    1    2    0    0  0.10035326505E+03 -0.27937244258E+02  0.36743862935E+03  0.40185496607E+03  0.12500000000E+03 0.  0.
         25    1    1    2    0    0 -0.17805318845E+03  0.12102438585E+02  0.47695504868E+03  0.52436678518E+03  0.12500000000E+03 0.  0.
         25    1    1    2    0    0  0.77699923400E+02  0.15834805673E+02  0.13138655952E+03  0.19792788381E+03  0.12500000000E+03 0.  0.
</event>
<event>
 5    0  0.5597833E-005  0.4120628E+03  0.7546771E-02  0.1039681E+00
         21   -1    0    0  502  501  0.00000000000E+00  0.00000000000E+00  0.77990250991E+03  0.77990250991E+03  0.00000000000E+00 0.  1.
         21   -1    0    0  501  502 -0.00000000000E+00 -0.00000000000E+00 -0.21771403776E+03  0.21771403776E+03  0.00000000000E+00 0.  1.
         25    1    1    2    0    0 -0.85891996082E+02 -0.28028194614E+03  0.16464368087E+03  0.35870314464E+03  0.12500000000E+03 0.  0.
         25    1    1    2    0    0  0.17239113390E+03  0.10908482366E+03  0.31496125437E+03  0.39552976317E+03  0.12500000000E+03 0.  0.
         25    1    1    2    0    0 -0.86499137814E+02  0.17119712247E+03  0.82583536899E+02  0.24338363986E+03  0.12500000000E+03 0.  0.
</event>
<event>
 5    0  0.5597833E-005  0.3779287E+03  0.7546771E-02  0.1051702E+00
         21   -1    0    0  502  501  0.00000000000E+00  0.00000000000E+00  0.79993772978E+03  0.79993772978E+03  0.00000000000E+00 0.  1.
         21   -1    0    0  501  502 -0.00000000000E+00 -0.00000000000E+00 -0.17855152684E+03  0.17855152684E+03  0.00000000000E+00 0.  1.
         25    1    1    2    0    0 -0.18602766853E+03 -0.13743314817E+03  0.41666969312E+03  0.49267920277E+03  0.12500000000E+03 0.  0.
         25    1    1    2    0    0  0.14607574790E+02  0.15187497802E+03  0.18803630880E+03  0.27251063028E+03  0.12500000000E+03 0.  0.
         25    1    1    2    0    0  0.17142009374E+03 -0.14441829846E+02  0.16680201017E+02  0.21329942357E+03  0.12500000000E+03 0.  0.
</event>
<event>
 5    0  0.5597833E-005  0.5620737E+03  0.7546771E-02  0.9987373E-01
         21   -1    0    0  502  501  0.00000000000E+00  0.00000000000E+00  0.23026160745E+03  0.23026160745E+03  0.00000000000E+00 0. -1.
         21   -1    0    0  501  502 -0.00000000000E+00 -0.00000000000E+00 -0.13720344172E+04  0.13720344172E+04  0.00000000000E+00 0. -1.
         25    1    1    2    0    0 -0.18512566854E+03  0.21015521931E+03 -0.19241512463E+03  0.36205705289E+03  0.12500000000E+03 0.  0.
         25    1    1    2    0    0  0.22063270512E+03 -0.15999395645E+03 -0.10344403171E+04  0.10770183965E+04  0.12500000000E+03 0.  0.
         25    1    1    2    0    0 -0.35507036572E+02 -0.50161262863E+02  0.85082631987E+02  0.16322057531E+03  0.12500000000E+03 0.  0.
</event>
<event>
 5    0  0.5597833E-005  0.3530615E+03  0.7546771E-02  0.1061365E+00
         21   -1    0    0  502  501  0.00000000000E+00  0.00000000000E+00  0.11063925565E+03  0.11063925565E+03  0.00000000000E+00 0. -1.
         21   -1    0    0  501  502 -0.00000000000E+00 -0.00000000000E+00 -0.11266563251E+04  0.11266563251E+04  0.00000000000E+00 0. -1.
         25    1    1    2    0    0  0.16712369891E+03  0.14905255548E+01 -0.13674700279E+03  0.24951411819E+03  0.12500000000E+03 0.  0.
         25    1    1    2    0    0 -0.24413965105E+03 -0.69989497533E+02 -0.62743237391E+03  0.68833064933E+03  0.12500000000E+03 0.  0.
         25    1    1    2    0    0  0.77015952146E+02  0.68498971978E+02 -0.25183769274E+03  0.29945081321E+03  0.12500000000E+03 0.  0.
</event>
<event>
 5    0  0.5597833E-005  0.2446546E+03  0.7546771E-02  0.1116730E+00
         21   -1    0    0  502  501  0.00000000000E+00  0.00000000000E+00  0.15754673790E+04  0.15754673790E+04  0.00000000000E+00 0. -1.
         21   -1    0    0  501  502 -0.00000000000E+00 -0.00000000000E+00 -0.37992449138E+02  0.37992449138E+02  0.00000000000E+00 0. -1.
         25    1    1    2    0    0 -0.80270362085E+02 -0.44475985045E+02  0.36486111853E+03  0.39644681874E+03  0.12500000000E+03 0.  0.
         25    1    1    2    0    0  0.13169653095E+03 -0.20599032539E+01  0.70717119229E+03  0.73011253562E+03  0.12500000000E+03 0.  0.
         25    1    1    2    0    0 -0.51426168867E+02  0.46535888299E+02  0.46544261908E+03  0.48690047381E+03  0.12500000000E+03 0.  0.
</event>
<event>
 5    0  0.5597833E-005  0.2744998E+03  0.7546771E-02  0.1098732E+00
         21   -1    0    0  502  501  0.00000000000E+00  0.00000000000E+00  0.20172234513E+04  0.20172234513E+04  0.00000000000E+00 0. -1.
         21   -1    0    0  501  502 -0.00000000000E+00 -0.00000000000E+00 -0.37353382016E+02  0.37353382016E+02  0.00000000000E+00 0. -1.
         25    1    1    2    0    0 -0.11959557779E+03 -0.70456166419E+02  0.64940083799E+03  0.67573191578E+03  0.12500000000E+03 0.  0.
         25    1    1    2    0    0 -0.56431102871E+02  0.16950159607E+02  0.45189603869E+03  0.47255349651E+03  0.12500000000E+03 0.  0.
         25    1    1    2    0    0  0.17602668066E+03  0.53506006812E+02  0.87857319256E+03  0.90629142099E+03  0.12500000000E+03 0.  0.
</event>
<event>
 5    0  0.5597833E-005  0.2640129E+03  0.7546771E-02  0.1104756E+00
         21   -1    0    0  502  501  0.00000000000E+00  0.00000000000E+00  0.32084073801E+03  0.32084073801E+03  0.00000000000E+00 0. -1.
         21   -1    0    0  501  502 -0.00000000000E+00 -0.00000000000E+00 -0.21725042811E+03  0.21725042811E+03  0.00000000000E+00 0. -1.
         25    1    1    2    0    0  0.99200024247E+02 -0.41681502647E+02 -0.32701967644E+02  0.16814401911E+03  0.12500000000E+03 0.  0.
         25    1    1    2    0    0 -0.69094869483E+01  0.10978278527E+02 -0.41021023967E+02  0.13219677763E+03  0.12500000000E+03 0.  0.
         25    1    1    2    0    0 -0.92290537299E+02  0.30703224121E+02  0.17731330151E+03  0.23775036938E+03  0.12500000000E+03 0.  0.
</event>
<event>
 5    0  0.5597833E-005  0.2704895E+03  0.7546771E-02  0.1101000E+00
         21   -1    0    0  502  501  0.00000000000E+00  0.00000000000E+00  0.55804028670E+03  0.55804028670E+03  0.00000000000E+00 0. -1.
         21   -1    0    0  501  502 -0.00000000000E+00 -0.00000000000E+00 -0.13110985531E+03  0.13110985531E+03  0.00000000000E+00 0. -1.
         25    1    1    2    0    0  0.60314853740E+02 -0.32778726188E+02  0.23192457922E+01  0.14262785623E+03  0.12500000000E+03 0.  0.
         25    1    1    2    0    0  0.51279103103E+02  0.79659161791E+02  0.12715520929E+03  0.20191229710E+03  0.12500000000E+03 0.  0.
         25    1    1    2    0    0 -0.11159395684E+03 -0.46880435603E+02  0.29745597631E+03  0.34460998867E+03  0.12500000000E+03 0.  0.
</event>
<event>
 5    0  0.5597833E-005  0.2884659E+03  0.7546771E-02  0.1091153E+00
         21   -1    0    0  502  501  0.00000000000E+00  0.00000000000E+00  0.10993169935E+04  0.10993169935E+04  0.00000000000E+00 0.  1.
         21   -1    0    0  501  502 -0.00000000000E+00 -0.00000000000E+00 -0.75694790647E+02  0.75694790647E+02  0.00000000000E+00 0.  1.
         25    1    1    2    0    0  0.11925841772E+03  0.20617766855E+02  0.36735075470E+03  0.40647169580E+03  0.12500000000E+03 0.  0.
         25    1    1    2    0    0 -0.18407820798E+03 -0.81392026062E+02  0.47714118996E+03  0.53272710060E+03  0.12500000000E+03 0.  0.
         25    1    1    2    0    0  0.64819790256E+02  0.60774259208E+02  0.17913025821E+03  0.23581298777E+03  0.12500000000E+03 0.  0.
</event>
<event>
 5    0  0.5597833E-005  0.3289531E+03  0.7546771E-02  0.1071601E+00
         21   -1    0    0  502  501  0.00000000000E+00  0.00000000000E+00  0.41936132871E+03  0.41936132871E+03  0.00000000000E+00 0.  1.
         21   -1    0    0  501  502 -0.00000000000E+00 -0.00000000000E+00 -0.25803552271E+03  0.25803552271E+03  0.00000000000E+00 0.  1.
         25    1    1    2    0    0 -0.13402451950E+03  0.85189928644E+02 -0.31306390147E+00  0.20210144428E+03  0.12500000000E+03 0.  0.
         25    1    1    2    0    0  0.15861145131E+03 -0.11486652179E+03  0.23066967259E+03  0.32739182667E+03  0.12500000000E+03 0.  0.
         25    1    1    2    0    0 -0.24586931808E+02  0.29676593145E+02 -0.69030802694E+02  0.14790358047E+03  0.12500000000E+03 0.  0.
</event>
<event>
 5    0  0.5597833E-005  0.3424550E+03  0.7546771E-02  0.1065755E+00
         21   -1    0    0  502  501  0.00000000000E+00  0.00000000000E+00  0.19826037473E+04  0.19826037473E+04  0.00000000000E+00 0. -1.
         21   -1    0    0  501  502 -0.00000000000E+00 -0.00000000000E+00 -0.59152225508E+02  0.59152225508E+02  0.00000000000E+00 0. -1.
         25    1    1    2    0    0 -0.14668722094E+03  0.10679772170E+03  0.99950414986E+03  0.10235020468E+04  0.12500000000E+03 0.  0.
         25    1    1    2    0    0  0.11503849642E+03 -0.12084676231E+03  0.83585107832E+03  0.86145796227E+03  0.12500000000E+03 0.  0.
         25    1    1    2    0    0  0.31648724514E+02  0.14049040610E+02  0.88096293586E+02  0.15679596375E+03  0.12500000000E+03 0.  0.
</event>
<event>
 5    0  0.6575674E-005  0.2952528E+03  0.7546771E-02  0.1087638E+00
         21   -1    0    0  502  501  0.00000000000E+00  0.00000000000E+00  0.17977000167E+03  0.17977000167E+03  0.00000000000E+00 0. -1.
         21   -1    0    0  501  502 -0.00000000000E+00 -0.00000000000E+00 -0.48492067699E+03  0.48492067699E+03  0.00000000000E+00 0. -1.
         25    1    1    2    0    0 -0.97441339202E+02  0.49511635410E+02 -0.32265178836E+01  0.16607717195E+03  0.12500000000E+03 0.  0.
         25    1    1    2    0    0  0.17925040384E+03 -0.84254585694E+02 -0.23331038957E+03  0.33058778012E+03  0.12500000000E+03 0.  0.
         25    1    1    2    0    0 -0.81809064633E+02  0.34742950284E+02 -0.68613767863E+02  0.16802572657E+03  0.12500000000E+03 0.  0.
</event>
<event>
 5    0  0.5597833E-005  0.2733534E+03  0.7546771E-02  0.1099376E+00
         21   -1    0    0  502  501  0.00000000000E+00  0.00000000000E+00  0.63390344195E+03  0.63390344195E+03  0.00000000000E+00 0. -1.
         21   -1    0    0  501  502 -0.00000000000E+00 -0.00000000000E+00 -0.11787610299E+03  0.11787610299E+03  0.00000000000E+00 0. -1.
         25    1    1    2    0    0  0.72281544196E+02 -0.24973920529E+02  0.21124627831E+03  0.25709591292E+03  0.12500000000E+03 0.  0.
         25    1    1    2    0    0  0.64014227493E+02 -0.91203392865E+02  0.98553630781E+02  0.19430310942E+03  0.12500000000E+03 0.  0.
         25    1    1    2    0    0 -0.13629577169E+03  0.11617731339E+03  0.20622742987E+03  0.30038052260E+03  0.12500000000E+03 0.  0.
</event>
<event>
 5    0  0.5597833E-005  0.4762849E+03  0.7546771E-02  0.1020161E+00
         21   -1    0    0  502  501  0.00000000000E+00  0.00000000000E+00  0.36459216089E+03  0.36459216089E+03  0.00000000000E+00 0. -1.
         21   -1    0    0  501  502 -0.00000000000E+00 -0.00000000000E+00 -0.62219462480E+03  0.62219462480E+03  0.00000000000E+00 0. -1.
         25    1    1    2    0    0 -0.16149962850E+03  0.45478624118E+02 -0.11116750491E+03  0.23692540895E+03  0.12500000000E+03 0.  0.
         25    1    1    2    0    0  0.24007993553E+03  0.18008312065E+03 -0.29763064479E+03  0.44076899450E+03  0.12500000000E+03 0.  0.
         25    1    1    2    0    0 -0.78580307034E+02 -0.22556174477E+03  0.15119568579E+03  0.30909238224E+03  0.12500000000E+03 0.  0.
</event>
<event>
 5    0  0.5597833E-005  0.3876885E+03  0.7546771E-02  0.1048128E+00
         21   -1    0    0  502  501  0.00000000000E+00  0.00000000000E+00  0.35453380277E+03  0.35453380277E+03  0.00000000000E+00 0.  1.
         21   -1    0    0  501  502 -0.00000000000E+00 -0.00000000000E+00 -0.42394360578E+03  0.42394360578E+03  0.00000000000E+00 0.  1.
         25    1    1    2    0    0  0.27439230654E+03 -0.15373007554E+03 -0.66481625513E+01  0.33851628038E+03  0.12500000000E+03 0.  0.
         25    1    1    2    0    0 -0.22306924164E+03  0.81842274496E+02  0.13769367588E+02  0.26883571181E+03  0.12500000000E+03 0.  0.
         25    1    1    2    0    0 -0.51323064902E+02  0.71887801048E+02 -0.76531008050E+02  0.17112541636E+03  0.12500000000E+03 0.  0.
</event>
<event>
 5    0  0.5597833E-005  0.3588938E+03  0.7546771E-02  0.1059023E+00
         21   -1    0    0  502  501  0.00000000000E+00  0.00000000000E+00  0.70259225736E+03  0.70259225736E+03  0.00000000000E+00 0. -1.
         21   -1    0    0  501  502 -0.00000000000E+00 -0.00000000000E+00 -0.18332791051E+03  0.18332791051E+03  0.00000000000E+00 0. -1.
         25    1    1    2    0    0  0.74532837318E+02  0.20985775024E+03  0.14625016932E+03  0.29429497312E+03  0.12500000000E+03 0.  0.
         25    1    1    2    0    0  0.29305625397E+02 -0.24800590651E+03  0.29867700610E+03  0.40889938043E+03  0.12500000000E+03 0.  0.
         25    1    1    2    0    0 -0.10383846271E+03  0.38148156267E+02  0.74337171428E+02  0.18272581433E+03  0.12500000000E+03 0.  0.
</event>
<event>
 5    0  0.5597833E-005  0.3144840E+03  0.7546771E-02  0.1078216E+00
         21   -1    0    0  502  501  0.00000000000E+00  0.00000000000E+00  0.62898094428E+03  0.62898094428E+03  0.00000000000E+00 0.  1.
         21   -1    0    0  501  502 -0.00000000000E+00 -0.00000000000E+00 -0.15723877579E+03  0.15723877579E+03  0.00000000000E+00 0.  1.
         25    1    1    2    0    0 -0.18724173333E+03 -0.66995859861E+02  0.15368232076E+03  0.28069764455E+03  0.12500000000E+03 0.  0.
         25    1    1    2    0    0  0.12303561962E+03  0.70512985537E+02  0.31202738786E+03  0.36482315661E+03  0.12500000000E+03 0.  0.
         25    1    1    2    0    0  0.64206113705E+02 -0.35171256757E+01  0.60324598697E+01  0.14069891891E+03  0.12500000000E+03 0.  0.
</event>
<event>
 5    0  0.5597833E-005  0.2733838E+03  0.7546771E-02  0.1099358E+00
         21   -1    0    0  502  501  0.00000000000E+00  0.00000000000E+00  0.15442637198E+03  0.15442637198E+03  0.00000000000E+00 0.  1.
         21   -1    0    0  501  502 -0.00000000000E+00 -0.00000000000E+00 -0.48397618609E+03  0.48397618609E+03  0.00000000000E+00 0.  1.
         25    1    1    2    0    0 -0.10865278074E+03 -0.71864619758E+02 -0.19069659896E+03  0.26260263363E+03  0.12500000000E+03 0.  0.
         25    1    1    2    0    0  0.60975372384E+02  0.95320319251E+02  0.16534458082E+02  0.16941767205E+03  0.12500000000E+03 0.  0.
         25    1    1    2    0    0  0.47677408356E+02 -0.23455699493E+02 -0.15538767324E+03  0.20638225239E+03  0.12500000000E+03 0.  0.
</event>
<event>
 5    0  0.5597833E-005  0.4445181E+03  0.7546771E-02  0.1029370E+00
         21   -1    0    0  502  501  0.00000000000E+00  0.00000000000E+00  0.81969653859E+03  0.81969653859E+03  0.00000000000E+00 0.  1.
         21   -1    0    0  501  502 -0.00000000000E+00 -0.00000000000E+00 -0.24106037797E+03  0.24106037797E+03  0.00000000000E+00 0.  1.
         25    1    1    2    0    0  0.18540245342E+03 -0.18944300595E+03  0.15430664512E+02  0.29347202191E+03  0.12500000000E+03 0.  0.
         25    1    1    2    0    0 -0.15326492162E+02 -0.99476783873E+02  0.13884637490E+03  0.21221179919E+03  0.12500000000E+03 0.  0.
         25    1    1    2    0    0 -0.17007596125E+03  0.28891978983E+03  0.42435912121E+03  0.55507309546E+03  0.12500000000E+03 0.  0.
</event>
<event>
 5    0  0.5597833E-005  0.2730679E+03  0.7546771E-02  0.1099537E+00
         21   -1    0    0  502  501  0.00000000000E+00  0.00000000000E+00  0.24869472283E+03  0.24869472283E+03  0.00000000000E+00 0. -1.
         21   -1    0    0  501  502 -0.00000000000E+00 -0.00000000000E+00 -0.29982974154E+03  0.29982974154E+03  0.00000000000E+00 0. -1.
         25    1    1    2    0    0 -0.81170933125E+02  0.56962413973E+02 -0.11522103507E+03  0.19681037552E+03  0.12500000000E+03 0.  0.
         25    1    1    2    0    0  0.58106986179E+02 -0.13463293275E+03  0.63084274191E+02  0.20274879549E+03  0.12500000000E+03 0.  0.
         25    1    1    2    0    0  0.23063946946E+02  0.77670518778E+02  0.10017421637E+01  0.14896529335E+03  0.12500000000E+03 0.  0.
</event>
<event>
 5    0  0.5597833E-005  0.2751563E+03  0.7546771E-02  0.1098364E+00
         21   -1    0    0  502  501  0.00000000000E+00  0.00000000000E+00  0.23223832399E+03  0.23223832399E+03  0.00000000000E+00 0.  1.
         21   -1    0    0  501  502 -0.00000000000E+00 -0.00000000000E+00 -0.32600557424E+03  0.32600557424E+03  0.00000000000E+00 0.  1.
         25    1    1    2    0    0  0.29733499148E+02  0.15951699636E+03 -0.17228235710E+02  0.20555185527E+03  0.12500000000E+03 0.  0.
         25    1    1    2    0    0 -0.96953397097E+02 -0.11086724299E+03 -0.29217569492E+02  0.19537188422E+03  0.12500000000E+03 0.  0.
         25    1    1    2    0    0  0.67219897950E+02 -0.48649753366E+02 -0.47321445045E+02  0.15732015873E+03  0.12500000000E+03 0.  0.
</event>
<event>
 5    0  0.5597833E-005  0.3262709E+03  0.7546771E-02  0.1072799E+00
         21   -1    0    0  502  501  0.00000000000E+00  0.00000000000E+00  0.43096053142E+03  0.43096053142E+03  0.00000000000E+00 0. -1.
         21   -1    0    0  501  502 -0.00000000000E+00 -0.00000000000E+00 -0.24701261103E+03  0.24701261103E+03  0.00000000000E+00 0. -1.
         25    1    1    2    0    0  0.99942482908E+02  0.42933167552E+02 -0.98423150463E+02  0.19272745864E+03  0.12500000000E+03 0.  0.
         25    1    1    2    0    0 -0.12656996228E+03  0.30699810030E+02  0.28541965322E+03  0.33771557875E+03  0.12500000000E+03 0.  0.
         25    1    1    2    0    0  0.26627479372E+02 -0.73632977582E+02 -0.30485823731E+01  0.14753010506E+03  0.12500000000E+03 0.  0.
</event>
<event>
 5    0  0.5597833E-005  0.2408547E+03  0.7546771E-02  0.1119225E+00
         21   -1    0    0  502  501  0.00000000000E+00  0.00000000000E+00  0.14448020389E+03  0.14448020389E+03  0.00000000000E+00 0. -1.
         21   -1    0    0  501  502 -0.00000000000E+00 -0.00000000000E+00 -0.40151509640E+03  0.40151509640E+03  0.00000000000E+00 0. -1.
         25    1    1    2    0    0  0.40073438374E+02  0.30964545747E+02 -0.11395229234E+03  0.17656389350E+03  0.12500000000E+03 0.  0.
         25    1    1    2    0    0  0.16700533401E+02 -0.12114433713E+03 -0.56632220797E+02  0.18381258572E+03  0.12500000000E+03 0.  0.
         25    1    1    2    0    0 -0.56773971774E+02  0.90179791387E+02 -0.86450379366E+02  0.18561882108E+03  0.12500000000E+03 0.  0.
</event>
<event>
 5    0  0.5597833E-005  0.2368961E+03  0.7546771E-02  0.1121878E+00
         21   -1    0    0  502  501  0.00000000000E+00  0.00000000000E+00  0.60864939281E+03  0.60864939281E+03  0.00000000000E+00 0. -1.
         21   -1    0    0  501  502 -0.00000000000E+00 -0.00000000000E+00 -0.92203724574E+02  0.92203724574E+02  0.00000000000E+00 0. -1.
         25    1    1    2    0    0 -0.61890303080E+02 -0.83562318441E+02  0.94989026787E+02  0.18831087565E+03  0.12500000000E+03 0.  0.
         25    1    1    2    0    0 -0.15860821943E+02  0.25176463827E+02  0.23564386304E+03  0.26839979544E+03  0.12500000000E+03 0.  0.
         25    1    1    2    0    0  0.77751125023E+02  0.58385854614E+02  0.18581277841E+03  0.24414244629E+03  0.12500000000E+03 0.  0.
</event>
<event>
 5    0  0.5597833E-005  0.2940016E+03  0.7546771E-02  0.1088278E+00
         21   -1    0    0  502  501  0.00000000000E+00  0.00000000000E+00  0.48850044063E+03  0.48850044063E+03  0.00000000000E+00 0. -1.
         21   -1    0    0  501  502 -0.00000000000E+00 -0.00000000000E+00 -0.17694346370E+03  0.17694346370E+03  0.00000000000E+00 0. -1.
         25    1    1    2    0    0  0.10347703054E+03  0.52291290742E+02 -0.16022019486E+02  0.17124129188E+03  0.12500000000E+03 0.  0.
         25    1    1    2    0    0  0.34829596760E+01 -0.11990491521E+03  0.83845492788E+02  0.19246918288E+03  0.12500000000E+03 0.  0.
         25    1    1    2    0    0 -0.10695999022E+03  0.67613624464E+02  0.24373350363E+03  0.30173342956E+03  0.12500000000E+03 0.  0.
</event>
<event>
 5    0  0.5597833E-005  0.2709517E+03  0.7546771E-02  0.1100736E+00
         21   -1    0    0  502  501  0.00000000000E+00  0.00000000000E+00  0.31702126984E+03  0.31702126984E+03  0.00000000000E+00 0. -1.
         21   -1    0    0  501  502 -0.00000000000E+00 -0.00000000000E+00 -0.23157699583E+03  0.23157699583E+03  0.00000000000E+00 0. -1.
         25    1    1    2    0    0  0.45735370882E+02  0.55835763425E+01  0.41955557463E+02  0.13967164808E+03  0.12500000000E+03 0.  0.
         25    1    1    2    0    0  0.25835752622E+02 -0.99933888007E+01 -0.13062808560E+03  0.18290995238E+03  0.12500000000E+03 0.  0.
         25    1    1    2    0    0 -0.71571123504E+02  0.44098124582E+01  0.17411680214E+03  0.22601666521E+03  0.12500000000E+03 0.  0.
</event>
<event>
 5    0  0.5597833E-005  0.2912082E+03  0.7546771E-02  0.1089720E+00
         21   -1    0    0  502  501  0.00000000000E+00  0.00000000000E+00  0.12688980417E+03  0.12688980417E+03  0.00000000000E+00 0. -1.
         21   -1    0    0  501  502 -0.00000000000E+00 -0.00000000000E+00 -0.66831375974E+03  0.66831375974E+03  0.00000000000E+00 0. -1.
         25    1    1    2    0    0 -0.14526910169E+03 -0.13340617238E+02 -0.84892993827E+02  0.21003072246E+03  0.12500000000E+03 0.  0.
         25    1    1    2    0    0  0.47921063104E+01  0.98111454400E+02 -0.17934575317E+03  0.23966376645E+03  0.12500000000E+03 0.  0.
         25    1    1    2    0    0  0.14047699538E+03 -0.84770837162E+02 -0.27718520857E+03  0.34550907501E+03  0.12500000000E+03 0.  0.
</event>
<event>
 5    0  0.5597833E-005  0.3553406E+03  0.7546771E-02  0.1060444E+00
         21   -1    0    0  502  501  0.00000000000E+00  0.00000000000E+00  0.73260046818E+03  0.73260046818E+03  0.00000000000E+00 0. -1.
         21   -1    0    0  501  502 -0.00000000000E+00 -0.00000000000E+00 -0.17235442424E+03  0.17235442424E+03  0.00000000000E+00 0. -1.
         25    1    1    2    0    0  0.12524593432E+03 -0.63498574837E+02  0.36442069415E+02  0.19149840076E+03  0.12500000000E+03 0.  0.
         25    1    1    2    0    0  0.88858374934E+02  0.14180128174E+03  0.14602392738E+03  0.25485564868E+03  0.12500000000E+03 0.  0.
         25    1    1    2    0    0 -0.21410430925E+03 -0.78302706905E+02  0.37778004716E+03  0.45860084298E+03  0.12500000000E+03 0.  0.
</event>
<event>
 5    0  0.5597833E-005  0.3113283E+03  0.7546771E-02  0.1079711E+00
         21   -1    0    0  502  501  0.00000000000E+00  0.00000000000E+00  0.43442211605E+03  0.43442211605E+03  0.00000000000E+00 0. -1.
         21   -1    0    0  501  502 -0.00000000000E+00 -0.00000000000E+00 -0.22311322474E+03  0.22311322474E+03  0.00000000000E+00 0. -1.
         25    1    1    2    0    0  0.11955540528E+03  0.16311214192E+03  0.47965370442E+02  0.24253812594E+03  0.12500000000E+03 0.  0.
         25    1    1    2    0    0 -0.10698601398E+03 -0.18521386841E+03  0.71624084109E+02  0.25788600904E+03  0.12500000000E+03 0.  0.
         25    1    1    2    0    0 -0.12569391300E+02  0.22101726484E+02  0.91719436758E+02  0.15711120581E+03  0.12500000000E+03 0.  0.
</event>
<event>
 5    0  0.5597833E-005  0.5562037E+03  0.7546771E-02  0.1000068E+00
         21   -1    0    0  502  501  0.00000000000E+00  0.00000000000E+00  0.59822952219E+03  0.59822952219E+03  0.00000000000E+00 0.  1.
         21   -1    0    0  501  502 -0.00000000000E+00 -0.00000000000E+00 -0.51713025543E+03  0.51713025543E+03  0.00000000000E+00 0.  1.
         25    1    1    2    0    0  0.37495004297E+03 -0.62750780749E+02 -0.17143464973E+03  0.43536195784E+03  0.12500000000E+03 0.  0.
         25    1    1    2    0    0 -0.15591516246E+03  0.18462440764E+03  0.28972364880E+03  0.39744245175E+03  0.12500000000E+03 0.  0.
         25    1    1    2    0    0 -0.21903488051E+03 -0.12187362689E+03 -0.37189732309E+02  0.28255536802E+03  0.12500000000E+03 0.  0.
</event>
<event>
 5    0  0.5597833E-005  0.2974201E+03  0.7546771E-02  0.1086537E+00
         21   -1    0    0  502  501  0.00000000000E+00  0.00000000000E+00  0.10370195618E+04  0.10370195618E+04  0.00000000000E+00 0. -1.
         21   -1    0    0  501  502 -0.00000000000E+00 -0.00000000000E+00 -0.85300891673E+02  0.85300891673E+02  0.00000000000E+00 0. -1.
         25    1    1    2    0    0  0.51202976724E+02  0.12421277535E+03  0.22874001933E+03  0.29325339696E+03  0.12500000000E+03 0.  0.
         25    1    1    2    0    0 -0.12563308372E+03  0.19749164686E+02  0.47599534058E+03  0.50830135303E+03  0.12500000000E+03 0.  0.
         25    1    1    2    0    0  0.74430106995E+02 -0.14396194003E+03  0.24698331018E+03  0.32076570346E+03  0.12500000000E+03 0.  0.
</event>
<event>
 5    0  0.5597833E-005  0.2238557E+03  0.7546771E-02  0.1131041E+00
         21   -1    0    0  502  501  0.00000000000E+00  0.00000000000E+00  0.50238347331E+03  0.50238347331E+03  0.00000000000E+00 0. -1.
         21   -1    0    0  501  502 -0.00000000000E+00 -0.00000000000E+00 -0.99747273370E+02  0.99747273370E+02  0.00000000000E+00 0. -1.
         25    1    1    2    0    0 -0.93139112956E+02 -0.29963914711E+02  0.15603492666E+03  0.22258622798E+03  0.12500000000E+03 0.  0.
         25    1    1    2    0    0  0.74734096575E+02  0.19871185756E+01  0.72726158841E+02  0.16279812042E+03  0.12500000000E+03 0.  0.
         25    1    1    2    0    0  0.18405016382E+02  0.27976796135E+02  0.17387511444E+03  0.21674639829E+03  0.12500000000E+03 0.  0.
</event>
<event>
 5    0  0.5597833E-005  0.3043646E+03  0.7546771E-02  0.1083079E+00
         21   -1    0    0  502  501  0.00000000000E+00  0.00000000000E+00  0.13753747972E+04  0.13753747972E+04  0.00000000000E+00 0.  1.
         21   -1    0    0  501  502 -0.00000000000E+00 -0.00000000000E+00 -0.67354573995E+02  0.67354573995E+02  0.00000000000E+00 0.  1.
         25    1    1    2    0    0 -0.31803553492E+02 -0.65255760251E+02  0.75639453511E+03  0.77008277023E+03  0.12500000000E+03 0.  0.
         25    1    1    2    0    0 -0.54576845213E+02  0.11414032568E+03  0.44886206510E+03  0.48281342097E+03  0.12500000000E+03 0.  0.
         25    1    1    2    0    0  0.86380398705E+02 -0.48884565428E+02  0.10276362300E+03  0.18983318000E+03  0.12500000000E+03 0.  0.
</event>
<event>
 5    0  0.5597833E-005  0.2764002E+03  0.7546771E-02  0.1097671E+00
         21   -1    0    0  502  501  0.00000000000E+00  0.00000000000E+00  0.11484300802E+04  0.11484300802E+04  0.00000000000E+00 0. -1.
         21   -1    0    0  501  502 -0.00000000000E+00 -0.00000000000E+00 -0.66523042259E+02  0.66523042259E+02  0.00000000000E+00 0. -1.
         25    1    1    2    0    0 -0.10851480258E+03  0.11223438526E+02  0.25520673898E+03  0.30439597167E+03  0.12500000000E+03 0.  0.
         25    1    1    2    0    0  0.17238520685E+03  0.59569770961E+02  0.42254229768E+03  0.47689853269E+03  0.12500000000E+03 0.  0.
         25    1    1    2    0    0 -0.63870404263E+02 -0.70793209487E+02  0.40415800131E+03  0.43365861812E+03  0.12500000000E+03 0.  0.
</event>
<event>
 5    0  0.5597833E-005  0.3706959E+03  0.7546771E-02  0.1054427E+00
         21   -1    0    0  502  501  0.00000000000E+00  0.00000000000E+00  0.10916804729E+03  0.10916804729E+03  0.00000000000E+00 0.  1.
         21   -1    0    0  501  502 -0.00000000000E+00 -0.00000000000E+00 -0.12587516928E+04  0.12587516928E+04  0.00000000000E+00 0.  1.
         25    1    1    2    0    0 -0.76114732498E+02  0.14984074976E+03 -0.36418943595E+03  0.42012456254E+03  0.12500000000E+03 0.  0.
         25    1    1    2    0    0  0.10971133507E+02 -0.84722834685E+02 -0.43503267531E+01  0.15146699254E+03  0.12500000000E+03 0.  0.
         25    1    1    2    0    0  0.65143598991E+02 -0.65117915073E+02 -0.78104388280E+03  0.79632818499E+03  0.12500000000E+03 0.  0.
</event>
<event>
 5    0  0.5597833E-005  0.2319429E+03  0.7546771E-02  0.1125280E+00
         21   -1    0    0  502  501  0.00000000000E+00  0.00000000000E+00  0.16629090167E+03  0.16629090167E+03  0.00000000000E+00 0. -1.
         21   -1    0    0  501  502 -0.00000000000E+00 -0.00000000000E+00 -0.32351440169E+03  0.32351440169E+03  0.00000000000E+00 0. -1.
         25    1    1    2    0    0  0.30573633716E+01 -0.53240581435E+02 -0.39774337064E+02  0.14160121776E+03  0.12500000000E+03 0.  0.
         25    1    1    2    0    0  0.25825201627E+02  0.79101665977E+02  0.27774244073E+02  0.15271025910E+03  0.12500000000E+03 0.  0.
         25    1    1    2    0    0 -0.28882564999E+02 -0.25861084542E+02 -0.14522340702E+03  0.19549382651E+03  0.12500000000E+03 0.  0.
</event>
<event>
 5    0  0.5597833E-005  0.3166036E+03  0.7546771E-02  0.1077223E+00
         21   -1    0    0  502  501  0.00000000000E+00  0.00000000000E+00  0.48202428086E+03  0.48202428086E+03  0.00000000000E+00 0.  1.
         21   -1    0    0  501  502 -0.00000000000E+00 -0.00000000000E+00 -0.20795179430E+03  0.20795179430E+03  0.00000000000E+00 0.  1.
         25    1    1    2    0    0  0.27789234395E+02  0.11952510731E+03 -0.52727586157E+02  0.18293083711E+03  0.12500000000E+03 0.  0.
         25    1    1    2    0    0  0.23348281166E+02 -0.63261188262E+01  0.30370996211E+03  0.32931732887E+03  0.12500000000E+03 0.  0.
         25    1    1    2    0    0 -0.51137515561E+02 -0.11319898848E+03  0.23090110602E+02  0.17772790917E+03  0.12500000000E+03 0.  0.
</event>
<event>
 5    0  0.5597833E-005  0.2305036E+03  0.7546771E-02  0.1126286E+00
         21   -1    0    0  502  501  0.00000000000E+00  0.00000000000E+00  0.75099680134E+03  0.75099680134E+03  0.00000000000E+00 0. -1.
         21   -1    0    0  501  502 -0.00000000000E+00 -0.00000000000E+00 -0.70748497603E+02  0.70748497603E+02  0.00000000000E+00 0. -1.
         25    1    1    2    0    0 -0.24597297597E+02 -0.53655576315E+02  0.35875315395E+03  0.38446426803E+03  0.12500000000E+03 0.  0.
         25    1    1    2    0    0 -0.20480170606E+02  0.40445723550E+02  0.64769724904E+02  0.14790338470E+03  0.12500000000E+03 0.  0.
         25    1    1    2    0    0  0.45077468202E+02  0.13209852764E+02  0.25672542488E+03  0.28937764622E+03  0.12500000000E+03 0.  0.
</event>
<event>
 5    0  0.5597833E-005  0.3198841E+03  0.7546771E-02  0.1075703E+00
         21   -1    0    0  502  501  0.00000000000E+00  0.00000000000E+00  0.33108034309E+03  0.33108034309E+03  0.00000000000E+00 0. -1.
         21   -1    0    0  501  502 -0.00000000000E+00 -0.00000000000E+00 -0.30906654915E+03  0.30906654915E+03  0.00000000000E+00 0. -1.
         25    1    1    2    0    0 -0.54352559962E+02  0.16134080465E+03 -0.47090610464E+02  0.21639681516E+03  0.12500000000E+03 0.  0.
         25    1    1    2    0    0 -0.65271489498E+02 -0.12984975885E+03  0.13659806718E+03  0.23538343011E+03  0.12500000000E+03 0.  0.
         25    1    1    2    0    0  0.11962404946E+03 -0.31491045805E+02 -0.67493662775E+02  0.18836664697E+03  0.12500000000E+03 0.  0.
</event>
<event>
 5    0  0.5776639E-005  0.2983620E+03  0.7546771E-02  0.1086062E+00
         21   -1    0    0  502  501  0.00000000000E+00  0.00000000000E+00  0.85396745300E+02  0.85396745300E+02  0.00000000000E+00 0. -1.
         21   -1    0    0  501  502 -0.00000000000E+00 -0.00000000000E+00 -0.10424272326E+04  0.10424272326E+04  0.00000000000E+00 0. -1.
         25    1    1    2    0    0  0.13143373753E+03  0.12006621174E+03 -0.23473200226E+03  0.32002317954E+03  0.12500000000E+03 0.  0.
         25    1    1    2    0    0 -0.82874326343E+01 -0.11922516951E+03 -0.25024726201E+03  0.30419075385E+03  0.12500000000E+03 0.  0.
         25    1    1    2    0    0 -0.12314630489E+03 -0.84104222298E+00 -0.47205122305E+03  0.50361004452E+03  0.12500000000E+03 0.  0.
</event>
<event>
 5    0  0.5597833E-005  0.2740837E+03  0.7546771E-02  0.1098965E+00
         21   -1    0    0  502  501  0.00000000000E+00  0.00000000000E+00  0.10479571041E+03  0.10479571041E+03  0.00000000000E+00 0. -1.
         21   -1    0    0  501  502 -0.00000000000E+00 -0.00000000000E+00 -0.71684117901E+03  0.71684117901E+03  0.00000000000E+00 0. -1.
         25    1    1    2    0    0  0.48212911920E+01  0.50416857562E+02 -0.34497011050E+03  0.37039773422E+03  0.12500000000E+03 0.  0.
         25    1    1    2    0    0 -0.11235964719E+03 -0.93275801296E+02 -0.15918253524E+03  0.24957793362E+03  0.12500000000E+03 0.  0.
         25    1    1    2    0    0  0.10753835600E+03  0.42858943733E+02 -0.10789282286E+03  0.20166122159E+03  0.12500000000E+03 0.  0.
</event>
<event>
 5    0  0.5928402E-005  0.3049918E+03  0.7546771E-02  0.1082772E+00
         21   -1    0    0  502  501  0.00000000000E+00  0.00000000000E+00  0.24904331071E+03  0.24904331071E+03  0.00000000000E+00 0. -1.
         21   -1    0    0  501  502 -0.00000000000E+00 -0.00000000000E+00 -0.37350920704E+03  0.37350920704E+03  0.00000000000E+00 0. -1.
         25    1    1    2    0    0  0.64012819868E+02 -0.62286314414E+02 -0.14119852802E+03  0.20866061053E+03  0.12500000000E+03 0.  0.
         25    1    1    2    0    0 -0.15022643783E+03  0.12344358331E+03 -0.51034043591E+02  0.23671876666E+03  0.12500000000E+03 0.  0.
         25    1    1    2    0    0  0.86213617962E+02 -0.61157268891E+02  0.67766675275E+02  0.17717314057E+03  0.12500000000E+03 0.  0.
</event>
<event>
 5    0  0.5597833E-005  0.2785270E+03  0.7546771E-02  0.1096496E+00
         21   -1    0    0  502  501  0.00000000000E+00  0.00000000000E+00  0.45570053449E+03  0.45570053449E+03  0.00000000000E+00 0.  1.
         21   -1    0    0  501  502 -0.00000000000E+00 -0.00000000000E+00 -0.17023743381E+03  0.17023743381E+03  0.00000000000E+00 0.  1.
         25    1    1    2    0    0 -0.95905990767E+02 -0.28075503137E+02 -0.21057406715E+01  0.16004882719E+03  0.12500000000E+03 0.  0.
         25    1    1    2    0    0  0.14715837919E+03  0.80433614471E+01  0.63384359112E+02  0.20337861542E+03  0.12500000000E+03 0.  0.
         25    1    1    2    0    0 -0.51252388428E+02  0.20032141690E+02  0.22418448223E+03  0.26251052568E+03  0.12500000000E+03 0.  0.
</event>
<event>
 5    0  0.5597833E-005  0.4611517E+03  0.7546771E-02  0.1024448E+00
         21   -1    0    0  502  501  0.00000000000E+00  0.00000000000E+00  0.25903586076E+04  0.25903586076E+04  0.00000000000E+00 0.  1.
         21   -1    0    0  501  502 -0.00000000000E+00 -0.00000000000E+00 -0.82097073104E+02  0.82097073104E+02  0.00000000000E+00 0.  1.
         25    1    1    2    0    0  0.19383013247E+03 -0.10780362315E+02  0.18514518209E+03  0.29595620439E+03  0.12500000000E+03 0.  0.
         25    1    1    2    0    0 -0.64020508709E+02  0.14019359452E+03  0.17615968217E+04  0.17727383427E+04  0.12500000000E+03 0.  0.
         25    1    1    2    0    0 -0.12980962376E+03 -0.12941323220E+03  0.56151953073E+03  0.60376113363E+03  0.12500000000E+03 0.  0.
</event>
<event>
 5    0  0.5597833E-005  0.3700275E+03  0.7546771E-02  0.1054682E+00
         21   -1    0    0  502  501  0.00000000000E+00  0.00000000000E+00  0.13105498414E+03  0.13105498414E+03  0.00000000000E+00 0.  1.
         21   -1    0    0  501  502 -0.00000000000E+00 -0.00000000000E+00 -0.10447552729E+04  0.10447552729E+04  0.00000000000E+00 0. -1.
         25    1    1    2    0    0  0.59011324552E+02  0.26660378584E+03 -0.50086222047E+03  0.58399304700E+03  0.12500000000E+03 0.  0.
         25    1    1    2    0    0  0.44390898302E+02 -0.21543069806E+03 -0.26603095496E+03  0.36712178704E+03  0.12500000000E+03 0.  0.
         25    1    1    2    0    0 -0.10340222285E+03 -0.51173087772E+02 -0.14680711336E+03  0.22469542304E+03  0.12500000000E+03 0.  0.
</event>
<event>
 5    0  0.5597833E-005  0.4424359E+03  0.7546771E-02  0.1030002E+00
         21   -1    0    0  502  501  0.00000000000E+00  0.00000000000E+00  0.78971340610E+03  0.78971340610E+03  0.00000000000E+00 0.  1.
         21   -1    0    0  501  502 -0.00000000000E+00 -0.00000000000E+00 -0.24787415210E+03  0.24787415210E+03  0.00000000000E+00 0.  1.
         25    1    1    2    0    0  0.36916382170E+01 -0.74951903281E+02  0.52699207379E+03  0.54678794960E+03  0.12500000000E+03 0.  0.
         25    1    1    2    0    0 -0.10683171439E+03  0.41753509565E+02  0.18669965980E+03  0.25226599797E+03  0.12500000000E+03 0.  0.
         25    1    1    2    0    0  0.10314007617E+03  0.33198393715E+02 -0.17185247959E+03  0.23853361063E+03  0.12500000000E+03 0.  0.
</event>
<event>
 5    0  0.5597833E-005  0.3693875E+03  0.7546771E-02  0.1054927E+00
         21   -1    0    0  502  501  0.00000000000E+00  0.00000000000E+00  0.57543371033E+03  0.57543371033E+03  0.00000000000E+00 0.  1.
         21   -1    0    0  501  502 -0.00000000000E+00 -0.00000000000E+00 -0.23712045297E+03  0.23712045297E+03  0.00000000000E+00 0.  1.
         25    1    1    2    0    0  0.11830845693E+03  0.79947023454E+02  0.17499299038E+03  0.25813942787E+03  0.12500000000E+03 0.  0.
         25    1    1    2    0    0  0.36492683643E+02 -0.23951946024E+03  0.59525870986E+02  0.27905128043E+03  0.12500000000E+03 0.  0.
         25    1    1    2    0    0 -0.15480114057E+03  0.15957243679E+03  0.10379439600E+03  0.27536345500E+03  0.12500000000E+03 0.  0.
</event>
<event>
 5    0  0.5597833E-005  0.3234079E+03  0.7546771E-02  0.1074091E+00
         21   -1    0    0  502  501  0.00000000000E+00  0.00000000000E+00  0.12134919431E+03  0.12134919431E+03  0.00000000000E+00 0.  1.
         21   -1    0    0  501  502 -0.00000000000E+00 -0.00000000000E+00 -0.86191485947E+03  0.86191485947E+03  0.00000000000E+00 0.  1.
         25    1    1    2    0    0  0.10557450584E+03 -0.65671334649E+01 -0.26167834328E+03  0.30869023125E+03  0.12500000000E+03 0.  0.
         25    1    1    2    0    0  0.42328216635E+02 -0.14302967996E+03 -0.88401131370E+02  0.21374968375E+03  0.12500000000E+03 0.  0.
         25    1    1    2    0    0 -0.14790272248E+03  0.14959681343E+03 -0.39048619051E+03  0.46082413878E+03  0.12500000000E+03 0.  0.
</event>
<event>
 5    0  0.5597833E-005  0.2861408E+03  0.7546771E-02  0.1092381E+00
         21   -1    0    0  502  501  0.00000000000E+00  0.00000000000E+00  0.16230778834E+03  0.16230778834E+03  0.00000000000E+00 0. -1.
         21   -1    0    0  501  502 -0.00000000000E+00 -0.00000000000E+00 -0.50445235408E+03  0.50445235408E+03  0.00000000000E+00 0. -1.
         25    1    1    2    0    0 -0.49843425919E+02 -0.25861791386E+02 -0.14119278345E+03  0.19675772274E+03  0.12500000000E+03 0.  0.
         25    1    1    2    0    0  0.18109150369E+03  0.82416454704E+02 -0.11429514263E+03  0.26129482265E+03  0.12500000000E+03 0.  0.
         25    1    1    2    0    0 -0.13124807777E+03 -0.56554663317E+02 -0.86656639656E+02  0.20870759703E+03  0.12500000000E+03 0.  0.
</event>
<event>
 5    0  0.5597833E-005  0.3135851E+03  0.7546771E-02  0.1078640E+00
         21   -1    0    0  502  501  0.00000000000E+00  0.00000000000E+00  0.24486427901E+03  0.24486427901E+03  0.00000000000E+00 0.  1.
         21   -1    0    0  501  502 -0.00000000000E+00 -0.00000000000E+00 -0.40159240287E+03  0.40159240287E+03  0.00000000000E+00 0.  1.
         25    1    1    2    0    0 -0.85506764381E+02 -0.18593749991E+03 -0.42273333213E+02  0.24350810116E+03  0.12500000000E+03 0.  0.
         25    1    1    2    0    0  0.77235952606E+02  0.16505566951E+03 -0.15466713937E+03  0.26973262764E+03  0.12500000000E+03 0.  0.
         25    1    1    2    0    0  0.82708117750E+01  0.20881830401E+02  0.40212348716E+02  0.13321595309E+03  0.12500000000E+03 0.  0.
</event>
<event>
 5    0  0.5597833E-005  0.2508383E+03  0.7546771E-02  0.1112776E+00
         21   -1    0    0  502  501  0.00000000000E+00  0.00000000000E+00  0.61400598530E+02  0.61400598530E+02  0.00000000000E+00 0.  1.
         21   -1    0    0  501  502 -0.00000000000E+00 -0.00000000000E+00 -0.10247435775E+04  0.10247435775E+04  0.00000000000E+00 0.  1.
         25    1    1    2    0    0 -0.23193821375E+02 -0.60998076307E+02 -0.49913457751E+03  0.51867045908E+03  0.12500000000E+03 0.  0.
         25    1    1    2    0    0 -0.19295941727E+02 -0.62623050389E+02 -0.15814928631E+03  0.21196739506E+03  0.12500000000E+03 0.  0.
         25    1    1    2    0    0  0.42489763102E+02  0.12362112670E+03 -0.30605911514E+03  0.35550632188E+03  0.12500000000E+03 0.  0.
</event>
<event>
 5    0  0.5597833E-005  0.3498177E+03  0.7546771E-02  0.1062690E+00
         21   -1    0    0  502  501  0.00000000000E+00  0.00000000000E+00  0.64225069979E+03  0.64225069979E+03  0.00000000000E+00 0.  1.
         21   -1    0    0  501  502 -0.00000000000E+00 -0.00000000000E+00 -0.19053681810E+03  0.19053681810E+03  0.00000000000E+00 0.  1.
         25    1    1    2    0    0 -0.10893488132E+03  0.69748896549E+02  0.20388768006E+03  0.27189502206E+03  0.12500000000E+03 0.  0.
         25    1    1    2    0    0  0.24251319772E+03 -0.94505997731E+02  0.24109480598E+03  0.37615919522E+03  0.12500000000E+03 0.  0.
         25    1    1    2    0    0 -0.13357831640E+03  0.24757101182E+02  0.67313956457E+01  0.18473330062E+03  0.12500000000E+03 0.  0.
</event>
<event>
 5    0  0.5597833E-005  0.2297832E+03  0.7546771E-02  0.1126792E+00
         21   -1    0    0  502  501  0.00000000000E+00  0.00000000000E+00  0.61388807656E+03  0.61388807656E+03  0.00000000000E+00 0. -1.
         21   -1    0    0  501  502 -0.00000000000E+00 -0.00000000000E+00 -0.86009682452E+02  0.86009682452E+02  0.00000000000E+00 0. -1.
         25    1    1    2    0    0  0.10087491211E+02 -0.67705676381E+02  0.34210824814E+03  0.37060608406E+03  0.12500000000E+03 0.  0.
         25    1    1    2    0    0  0.35567568588E+02  0.27259064400E+02  0.92124556223E+02  0.16161696194E+03  0.12500000000E+03 0.  0.
         25    1    1    2    0    0 -0.45655059799E+02  0.40446611982E+02  0.93645589740E+02  0.16767471301E+03  0.12500000000E+03 0.  0.
</event>
<event>
 5    0  0.5597833E-005  0.2885976E+03  0.7546771E-02  0.1091084E+00
         21   -1    0    0  502  501  0.00000000000E+00  0.00000000000E+00  0.44007487581E+03  0.44007487581E+03  0.00000000000E+00 0.  1.
         21   -1    0    0  501  502 -0.00000000000E+00 -0.00000000000E+00 -0.18925999715E+03  0.18925999715E+03  0.00000000000E+00 0.  1.
         25    1    1    2    0    0 -0.30506927337E+02  0.38511566472E+02 -0.52458737628E+02  0.14418991824E+03  0.12500000000E+03 0.  0.
         25    1    1    2    0    0 -0.62067342314E+02  0.21485483317E+02  0.24665012681E+01  0.14122699672E+03  0.12500000000E+03 0.  0.
         25    1    1    2    0    0  0.92574269651E+02 -0.59997049789E+02  0.30080711503E+03  0.34391795800E+03  0.12500000000E+03 0.  0.
</event>
<event>
 5    0  0.5597833E-005  0.2950368E+03  0.7546771E-02  0.1087748E+00
         21   -1    0    0  502  501  0.00000000000E+00  0.00000000000E+00  0.13316490660E+04  0.13316490660E+04  0.00000000000E+00 0. -1.
         21   -1    0    0  501  502 -0.00000000000E+00 -0.00000000000E+00 -0.65367615751E+02  0.65367615751E+02  0.00000000000E+00 0. -1.
         25    1    1    2    0    0  0.13037224183E+03  0.28894486402E+02  0.89917179267E+03  0.91758744843E+03  0.12500000000E+03 0.  0.
         25    1    1    2    0    0 -0.38817910085E+02  0.19665344107E+02  0.96345138143E+02  0.16370993112E+03  0.12500000000E+03 0.  0.
         25    1    1    2    0    0 -0.91554331742E+02 -0.48559830509E+02  0.27076451944E+03  0.31571930221E+03  0.12500000000E+03 0.  0.
</event>
<event>
 5    0  0.5597833E-005  0.2677174E+03  0.7546771E-02  0.1102593E+00
         21   -1    0    0  502  501  0.00000000000E+00  0.00000000000E+00  0.10083899624E+04  0.10083899624E+04  0.00000000000E+00 0. -1.
         21   -1    0    0  501  502 -0.00000000000E+00 -0.00000000000E+00 -0.71076253270E+02  0.71076253270E+02  0.00000000000E+00 0. -1.
         25    1    1    2    0    0 -0.25583235751E+02 -0.16860418782E+03  0.35619581545E+03  0.41422497879E+03  0.12500000000E+03 0.  0.
         25    1    1    2    0    0  0.48462532188E+02  0.13563098273E+03  0.30906045267E+03  0.36316352227E+03  0.12500000000E+03 0.  0.
         25    1    1    2    0    0 -0.22879296437E+02  0.32973205096E+02  0.27205744099E+03  0.30207771460E+03  0.12500000000E+03 0.  0.
</event>
<event>
 5    0  0.5597833E-005  0.4975144E+03  0.7546771E-02  0.1014430E+00
         21   -1    0    0  502  501  0.00000000000E+00  0.00000000000E+00  0.37520693289E+03  0.37520693289E+03  0.00000000000E+00 0. -1.
         21   -1    0    0  501  502 -0.00000000000E+00 -0.00000000000E+00 -0.65969086749E+03  0.65969086749E+03  0.00000000000E+00 0. -1.
         25    1    1    2    0    0 -0.10465735972E+03  0.21170336510E+03 -0.11717184188E+03  0.29176312013E+03  0.12500000000E+03 0.  0.
         25    1    1    2    0    0 -0.64096247571E+02 -0.39328490700E+01 -0.36268345857E+03  0.38895769355E+03  0.12500000000E+03 0.  0.
         25    1    1    2    0    0  0.16875360729E+03 -0.20777051603E+03  0.19537136584E+03  0.35417698669E+03  0.12500000000E+03 0.  0.
</event>
<event>
 5    0  0.5597833E-005  0.3281809E+03  0.7546771E-02  0.1071945E+00
         21   -1    0    0  502  501  0.00000000000E+00  0.00000000000E+00  0.43102222602E+03  0.43102222602E+03  0.00000000000E+00 0.  1.
         21   -1    0    0  501  502 -0.00000000000E+00 -0.00000000000E+00 -0.24987739818E+03  0.24987739818E+03  0.00000000000E+00 0.  1.
         25    1    1    2    0    0  0.11924438714E+03  0.10895782431E+02 -0.12762910131E+03  0.21506308247E+03  0.12500000000E+03 0.  0.
         25    1    1    2    0    0 -0.51702668502E+02  0.30127147529E+02  0.28383943240E+03  0.31586489886E+03  0.12500000000E+03 0.  0.
         25    1    1    2    0    0 -0.67541718640E+02 -0.41022929960E+02  0.24934496756E+02  0.14997164288E+03  0.12500000000E+03 0.  0.
</event>
<event>
 5    0  0.5597833E-005  0.2379708E+03  0.7546771E-02  0.1121152E+00
         21   -1    0    0  502  501  0.00000000000E+00  0.00000000000E+00  0.30483597154E+03  0.30483597154E+03  0.00000000000E+00 0.  1.
         21   -1    0    0  501  502 -0.00000000000E+00 -0.00000000000E+00 -0.18577242322E+03  0.18577242322E+03  0.00000000000E+00 0.  1.
         25    1    1    2    0    0  0.81336206267E+02  0.28166040557E+02  0.11522718510E+03  0.19055500118E+03  0.12500000000E+03 0.  0.
         25    1    1    2    0    0  0.18002727078E+02  0.16351802794E+02  0.33470662239E+02  0.13166914926E+03  0.12500000000E+03 0.  0.
         25    1    1    2    0    0 -0.99338933344E+02 -0.44517843351E+02 -0.29634299018E+02  0.16838424431E+03  0.12500000000E+03 0.  0.
</event>
<event>
 5    0  0.5597833E-005  0.2775272E+03  0.7546771E-02  0.1097047E+00
         21   -1    0    0  502  501  0.00000000000E+00  0.00000000000E+00  0.24418418516E+03  0.24418418516E+03  0.00000000000E+00 0. -1.
         21   -1    0    0  501  502 -0.00000000000E+00 -0.00000000000E+00 -0.31542320630E+03  0.31542320630E+03  0.00000000000E+00 0. -1.
         25    1    1    2    0    0 -0.16618225018E+03 -0.51192510467E+02 -0.17966920644E+02  0.21490701161E+03  0.12500000000E+03 0.  0.
         25    1    1    2    0    0  0.31477057864E+02  0.76505177593E+02 -0.53618821172E+02  0.15919744142E+03  0.12500000000E+03 0.  0.
         25    1    1    2    0    0  0.13470519231E+03 -0.25312667126E+02  0.34672067055E+00  0.18550293843E+03  0.12500000000E+03 0.  0.
</event>
<event>
 5    0  0.5597833E-005  0.2663968E+03  0.7546771E-02  0.1103360E+00
         21   -1    0    0  502  501  0.00000000000E+00  0.00000000000E+00  0.12805274791E+04  0.12805274791E+04  0.00000000000E+00 0. -1.
         21   -1    0    0  501  502 -0.00000000000E+00 -0.00000000000E+00 -0.55420349518E+02  0.55420349518E+02  0.00000000000E+00 0. -1.
         25    1    1    2    0    0 -0.55476875093E+02  0.53928167379E+02  0.15074655344E+03  0.21055985914E+03  0.12500000000E+03 0.  0.
         25    1    1    2    0    0  0.52587403970E+02 -0.25357737413E+02  0.20805931332E+03  0.24964400205E+03  0.12500000000E+03 0.  0.
         25    1    1    2    0    0  0.28894711229E+01 -0.28570429966E+02  0.86630126278E+03  0.87574396738E+03  0.12500000000E+03 0.  0.
</event>
<event>
 5    0  0.5597833E-005  0.2876143E+03  0.7546771E-02  0.1091601E+00
         21   -1    0    0  502  501  0.00000000000E+00  0.00000000000E+00  0.28181005604E+03  0.28181005604E+03  0.00000000000E+00 0.  1.
         21   -1    0    0  501  502 -0.00000000000E+00 -0.00000000000E+00 -0.29353802777E+03  0.29353802777E+03  0.00000000000E+00 0.  1.
         25    1    1    2    0    0 -0.20335905807E+02 -0.19030836127E+03 -0.46941805575E+02  0.23336528136E+03  0.12500000000E+03 0.  0.
         25    1    1    2    0    0  0.43867720530E+02  0.16287909543E+03  0.25675152805E+02  0.21151404233E+03  0.12500000000E+03 0.  0.
         25    1    1    2    0    0 -0.23531814722E+02  0.27429265840E+02  0.95386810437E+01  0.13046876011E+03  0.12500000000E+03 0.  0.
</event>
<event>
 5    0  0.5597833E-005  0.5320663E+03  0.7546771E-02  0.1005732E+00
         21   -1    0    0  502  501  0.00000000000E+00  0.00000000000E+00  0.46477244874E+03  0.46477244874E+03  0.00000000000E+00 0. -1.
         21   -1    0    0  501  502 -0.00000000000E+00 -0.00000000000E+00 -0.60910344798E+03  0.60910344798E+03  0.00000000000E+00 0. -1.
         25    1    1    2    0    0 -0.21502870474E+03  0.66650815470E+02 -0.12367797997E+03  0.28565874360E+03  0.12500000000E+03 0.  0.
         25    1    1    2    0    0  0.14260825245E+03  0.25951797234E+02  0.33923863118E+03  0.38951053686E+03  0.12500000000E+03 0.  0.
         25    1    1    2    0    0  0.72420452295E+02 -0.92602612704E+02 -0.35989165045E+03  0.39870661627E+03  0.12500000000E+03 0.  0.
</event>
<event>
 5    0  0.5597833E-005  0.3417245E+03  0.7546771E-02  0.1066064E+00
         21   -1    0    0  502  501  0.00000000000E+00  0.00000000000E+00  0.27429681674E+03  0.27429681674E+03  0.00000000000E+00 0. -1.
         21   -1    0    0  501  502 -0.00000000000E+00 -0.00000000000E+00 -0.42572730390E+03  0.42572730390E+03  0.00000000000E+00 0. -1.
         25    1    1    2    0    0 -0.82542623344E+02 -0.21091773415E+03 -0.14080885253E+03  0.29453642932E+03  0.12500000000E+03 0.  0.
         25    1    1    2    0    0  0.12224920217E+03  0.27568150429E+02  0.19420675003E+02  0.17806468759E+03  0.12500000000E+03 0.  0.
         25    1    1    2    0    0 -0.39706578829E+02  0.18334958372E+03 -0.30042309636E+02  0.22742300372E+03  0.12500000000E+03 0.  0.
</event>
<event>
 5    0  0.5597833E-005  0.3598377E+03  0.7546771E-02  0.1058648E+00
         21   -1    0    0  502  501  0.00000000000E+00  0.00000000000E+00  0.73638155265E+02  0.73638155265E+02  0.00000000000E+00 0.  1.
         21   -1    0    0  501  502 -0.00000000000E+00 -0.00000000000E+00 -0.17583702525E+04  0.17583702525E+04  0.00000000000E+00 0.  1.
         25    1    1    2    0    0 -0.89448376979E+02 -0.26008839040E+03 -0.72739448192E+03  0.78763869591E+03  0.12500000000E+03 0.  0.
         25    1    1    2    0    0  0.91520326174E+02  0.36331286274E+02 -0.41675343668E+03  0.44609904668E+03  0.12500000000E+03 0.  0.
         25    1    1    2    0    0 -0.20719491954E+01  0.22375710413E+03 -0.54058417867E+03  0.59827066521E+03  0.12500000000E+03 0.  0.
</event>
<event>
 5    0  0.5597833E-005  0.3499041E+03  0.7546771E-02  0.1062654E+00
         21   -1    0    0  502  501  0.00000000000E+00  0.00000000000E+00  0.93377882099E+03  0.93377882099E+03  0.00000000000E+00 0.  1.
         21   -1    0    0  501  502 -0.00000000000E+00 -0.00000000000E+00 -0.13111552032E+03  0.13111552032E+03  0.00000000000E+00 0.  1.
         25    1    1    2    0    0  0.14223023028E+03  0.15305976075E+02  0.10952344750E+03  0.21928086296E+03  0.12500000000E+03 0.  0.
         25    1    1    2    0    0 -0.14917192207E+03  0.11181327582E+03  0.14029668262E+03  0.26469346448E+03  0.12500000000E+03 0.  0.
         25    1    1    2    0    0  0.69416917876E+01 -0.12711925190E+03  0.55284317055E+03  0.58092001386E+03  0.12500000000E+03 0.  0.
</event>
<event>
 5    0  0.6022832E-005  0.3044279E+03  0.7546771E-02  0.1083048E+00
         21   -1    0    0  502  501  0.00000000000E+00  0.00000000000E+00  0.18659044183E+03  0.18659044183E+03  0.00000000000E+00 0.  1.
         21   -1    0    0  501  502 -0.00000000000E+00 -0.00000000000E+00 -0.49668328616E+03  0.49668328616E+03  0.00000000000E+00 0.  1.
         25    1    1    2    0    0  0.77954379012E+02  0.11543638377E+03 -0.10579022991E+03  0.21498608478E+03  0.12500000000E+03 0.  0.
         25    1    1    2    0    0 -0.14343025125E+03 -0.13144906334E+03 -0.22749346349E+03  0.32439076614E+03  0.12500000000E+03 0.  0.
         25    1    1    2    0    0  0.65475872235E+02  0.16012679570E+02  0.23190849066E+02  0.14389687708E+03  0.12500000000E+03 0.  0.
</event>
<event>
 5    0  0.5597833E-005  0.3810069E+03  0.7546771E-02  0.1050562E+00
         21   -1    0    0  502  501  0.00000000000E+00  0.00000000000E+00  0.51876060885E+03  0.51876060885E+03  0.00000000000E+00 0.  1.
         21   -1    0    0  501  502 -0.00000000000E+00 -0.00000000000E+00 -0.27983289776E+03  0.27983289776E+03  0.00000000000E+00 0.  1.
         25    1    1    2    0    0  0.12919248203E+02 -0.13786417548E+03 -0.14581173725E+03  0.23676887586E+03  0.12500000000E+03 0.  0.
         25    1    1    2    0    0 -0.65535492544E+02  0.75363656969E+02  0.38012159650E+03  0.41242212562E+03  0.12500000000E+03 0.  0.
         25    1    1    2    0    0  0.52616244341E+02  0.62500518511E+02  0.46178518371E+01  0.14940250513E+03  0.12500000000E+03 0.  0.
</event>
<event>
 5    0  0.5597833E-005  0.3332739E+03  0.7546771E-02  0.1069697E+00
         21   -1    0    0  502  501  0.00000000000E+00  0.00000000000E+00  0.18789833097E+03  0.18789833097E+03  0.00000000000E+00 0.  1.
         21   -1    0    0  501  502 -0.00000000000E+00 -0.00000000000E+00 -0.59112542711E+03  0.59112542711E+03  0.00000000000E+00 0.  1.
         25    1    1    2    0    0 -0.14604219870E+03 -0.12851533518E+03 -0.78280562739E+02  0.24412570877E+03  0.12500000000E+03 0.  0.
         25    1    1    2    0    0 -0.25842983679E+02 -0.54596477859E+02 -0.68481511324E+02  0.15480100966E+03  0.12500000000E+03 0.  0.
         25    1    1    2    0    0  0.17188518238E+03  0.18311181304E+03 -0.25646502208E+03  0.38009703965E+03  0.12500000000E+03 0.  0.
</event>
<event>
 5    0  0.5597833E-005  0.3821778E+03  0.7546771E-02  0.1050132E+00
         21   -1    0    0  502  501  0.00000000000E+00  0.00000000000E+00  0.27350505317E+03  0.27350505317E+03  0.00000000000E+00 0. -1.
         21   -1    0    0  501  502 -0.00000000000E+00 -0.00000000000E+00 -0.53402986903E+03  0.53402986903E+03  0.00000000000E+00 0. -1.
         25    1    1    2    0    0 -0.12233381162E+03  0.21620808005E+03 -0.72644201741E+02  0.28742594766E+03  0.12500000000E+03 0.  0.
         25    1    1    2    0    0 -0.56342887925E+02  0.43183400701E+02 -0.79817955539E+02  0.16442394334E+03  0.12500000000E+03 0.  0.
         25    1    1    2    0    0  0.17867669955E+03 -0.25939148075E+03 -0.10806265858E+03  0.35568503121E+03  0.12500000000E+03 0.  0.
</event>
<event>
 5    0  0.5597833E-005  0.2692103E+03  0.7546771E-02  0.1101732E+00
         21   -1    0    0  502  501  0.00000000000E+00  0.00000000000E+00  0.25804469000E+04  0.25804469000E+04  0.00000000000E+00 0. -1.
         21   -1    0    0  501  502 -0.00000000000E+00 -0.00000000000E+00 -0.28085906314E+02  0.28085906314E+02  0.00000000000E+00 0. -1.
         25    1    1    2    0    0  0.45305453938E+02  0.14480098763E+02  0.62280918451E+03  0.63700748639E+03  0.12500000000E+03 0.  0.
         25    1    1    2    0    0 -0.11877031843E+03  0.81119716842E+02  0.57191395127E+03  0.60282448910E+03  0.12500000000E+03 0.  0.
         25    1    1    2    0    0  0.73464864497E+02 -0.95599815605E+02  0.13576378580E+04  0.13687008309E+04  0.12500000000E+03 0.  0.
</event>
<event>
 5    0  0.6358763E-005  0.3789393E+03  0.7546771E-02  0.1051326E+00
         21   -1    0    0  502  501  0.00000000000E+00  0.00000000000E+00  0.78578274265E+03  0.78578274265E+03  0.00000000000E+00 0. -1.
         21   -1    0    0  501  502 -0.00000000000E+00 -0.00000000000E+00 -0.18274134365E+03  0.18274134365E+03  0.00000000000E+00 0. -1.
         25    1    1    2    0    0  0.61065273271E+02 -0.20274155732E+03  0.21191992530E+03  0.32460462320E+03  0.12500000000E+03 0.  0.
         25    1    1    2    0    0  0.11194952614E+03  0.16797234844E+03  0.35132318587E+03  0.42402875748E+03  0.12500000000E+03 0.  0.
         25    1    1    2    0    0 -0.17301479941E+03  0.34769208886E+02  0.39798287826E+02  0.21989070562E+03  0.12500000000E+03 0.  0.
</event>
<event>
 5    0  0.5597833E-005  0.2347907E+03  0.7546771E-02  0.1123313E+00
         21   -1    0    0  502  501  0.00000000000E+00  0.00000000000E+00  0.37955960055E+03  0.37955960055E+03  0.00000000000E+00 0. -1.
         21   -1    0    0  501  502 -0.00000000000E+00 -0.00000000000E+00 -0.14523853889E+03  0.14523853889E+03  0.00000000000E+00 0. -1.
         25    1    1    2    0    0 -0.27348258649E+02 -0.25600261873E+02  0.36748363764E+02  0.13556822230E+03  0.12500000000E+03 0.  0.
         25    1    1    2    0    0  0.64404290907E+02  0.10802982817E+03  0.13459845342E+03  0.22262097862E+03  0.12500000000E+03 0.  0.
         25    1    1    2    0    0 -0.37056032259E+02 -0.82429566292E+02  0.62974244475E+02  0.16660893852E+03  0.12500000000E+03 0.  0.
</event>
<event>
 5    0  0.5597833E-005  0.2371337E+03  0.7546771E-02  0.1121717E+00
         21   -1    0    0  502  501  0.00000000000E+00  0.00000000000E+00  0.41413915174E+02  0.41413915174E+02  0.00000000000E+00 0. -1.
         21   -1    0    0  501  502 -0.00000000000E+00 -0.00000000000E+00 -0.13578144294E+04  0.13578144294E+04  0.00000000000E+00 0. -1.
         25    1    1    2    0    0 -0.93804796359E+01 -0.26660248537E+02 -0.25695499681E+03  0.28714044061E+03  0.12500000000E+03 0.  0.
         25    1    1    2    0    0  0.30929708384E+02  0.10655082381E+03 -0.74797060381E+03  0.76641682464E+03  0.12500000000E+03 0.  0.
         25    1    1    2    0    0 -0.21549228748E+02 -0.79890575272E+02 -0.31147491359E+03  0.34567107932E+03  0.12500000000E+03 0.  0.
</event>
<event>
 5    0  0.5597833E-005  0.2467670E+03  0.7546771E-02  0.1115365E+00
         21   -1    0    0  502  501  0.00000000000E+00  0.00000000000E+00  0.15310367076E+04  0.15310367076E+04  0.00000000000E+00 0. -1.
         21   -1    0    0  501  502 -0.00000000000E+00 -0.00000000000E+00 -0.39773030760E+02  0.39773030760E+02  0.00000000000E+00 0. -1.
         25    1    1    2    0    0 -0.79458263766E+02  0.10942446422E+03  0.38279149084E+03  0.42478424466E+03  0.12500000000E+03 0.  0.
         25    1    1    2    0    0  0.71787938048E+02 -0.59361634448E+02  0.61584286389E+03  0.63526745918E+03  0.12500000000E+03 0.  0.
         25    1    1    2    0    0  0.76703257187E+01 -0.50062829773E+02  0.49262932208E+03  0.51075803449E+03  0.12500000000E+03 0.  0.
</event>
<event>
 5    0  0.5597833E-005  0.2789635E+03  0.7546771E-02  0.1096256E+00
         21   -1    0    0  502  501  0.00000000000E+00  0.00000000000E+00  0.39710438816E+02  0.39710438816E+02  0.00000000000E+00 0. -1.
         21   -1    0    0  501  502 -0.00000000000E+00 -0.00000000000E+00 -0.19597015266E+04  0.19597015266E+04  0.00000000000E+00 0. -1.
         25    1    1    2    0    0  0.29174898415E+02 -0.57534253223E+02 -0.29415660996E+03  0.32605900720E+03  0.12500000000E+03 0.  0.
         25    1    1    2    0    0 -0.12128242187E+03 -0.64953865161E+02 -0.99603811979E+03  0.10132350993E+04  0.12500000000E+03 0.  0.
         25    1    1    2    0    0  0.92107523453E+02  0.12248811838E+03 -0.62979635805E+03  0.66011785890E+03  0.12500000000E+03 0.  0.
</event>
<event>
 5    0  0.5597833E-005  0.3187628E+03  0.7546771E-02  0.1076220E+00
         21   -1    0    0  502  501  0.00000000000E+00  0.00000000000E+00  0.80259549393E+03  0.80259549393E+03  0.00000000000E+00 0.  1.
         21   -1    0    0  501  502 -0.00000000000E+00 -0.00000000000E+00 -0.12660144560E+03  0.12660144560E+03  0.00000000000E+00 0.  1.
         25    1    1    2    0    0 -0.57983973372E+02  0.10932723475E+03  0.38416782874E+03  0.42252160425E+03  0.12500000000E+03 0.  0.
         25    1    1    2    0    0  0.59053502770E+02 -0.63752301524E+02 -0.32894932196E+02  0.15575220288E+03  0.12500000000E+03 0.  0.
         25    1    1    2    0    0 -0.10695293981E+01 -0.45574933224E+02  0.32472115179E+03  0.35092313240E+03  0.12500000000E+03 0.  0.
</event>
<event>
 5    0  0.5597833E-005  0.3060509E+03  0.7546771E-02  0.1082254E+00
         21   -1    0    0  502  501  0.00000000000E+00  0.00000000000E+00  0.79064518224E+02  0.79064518224E+02  0.00000000000E+00 0. -1.
         21   -1    0    0  501  502 -0.00000000000E+00 -0.00000000000E+00 -0.11846924069E+04  0.11846924069E+04  0.00000000000E+00 0. -1.
         25    1    1    2    0    0 -0.53937673213E+02  0.11494282876E+03 -0.40278319449E+03  0.44043209265E+03  0.12500000000E+03 0.  0.
         25    1    1    2    0    0  0.18061096740E+03 -0.26452384984E+02 -0.45241504107E+03  0.50361137755E+03  0.12500000000E+03 0.  0.
         25    1    1    2    0    0 -0.12667329419E+03 -0.88490443771E+02 -0.25042965316E+03  0.31971345496E+03  0.12500000000E+03 0.  0.
</event>
<event>
 5    0  0.5597833E-005  0.2296879E+03  0.7546771E-02  0.1126860E+00
         21   -1    0    0  502  501  0.00000000000E+00  0.00000000000E+00  0.85133517633E+02  0.85133517633E+02  0.00000000000E+00 0.  1.
         21   -1    0    0  501  502 -0.00000000000E+00 -0.00000000000E+00 -0.61969154209E+03  0.61969154209E+03  0.00000000000E+00 0.  1.
         25    1    1    2    0    0  0.52883152787E+02  0.34804205138E+02 -0.30736263102E+03  0.33779394236E+03  0.12500000000E+03 0.  0.
         25    1    1    2    0    0 -0.85278929864E+02 -0.45486011177E+02 -0.13733104686E+03  0.20934729405E+03  0.12500000000E+03 0.  0.
         25    1    1    2    0    0  0.32395777077E+02  0.10681806039E+02 -0.89864346571E+02  0.15768382332E+03  0.12500000000E+03 0.  0.
</event>
<event>
 5    0  0.5597833E-005  0.3213920E+03  0.7546771E-02  0.1075010E+00
         21   -1    0    0  502  501  0.00000000000E+00  0.00000000000E+00  0.12767111944E+04  0.12767111944E+04  0.00000000000E+00 0.  1.
         21   -1    0    0  501  502 -0.00000000000E+00 -0.00000000000E+00 -0.80905375479E+02  0.80905375479E+02  0.00000000000E+00 0.  1.
         25    1    1    2    0    0  0.12573795337E+03 -0.31452747893E+02  0.27008130518E+03  0.32460471295E+03  0.12500000000E+03 0.  0.
         25    1    1    2    0    0 -0.23459835828E+03 -0.78370334999E+01  0.70977569232E+03  0.75796064687E+03  0.12500000000E+03 0.  0.
         25    1    1    2    0    0  0.10886040491E+03  0.39289781392E+02  0.21594882145E+03  0.27505121007E+03  0.12500000000E+03 0.  0.
</event>
<event>
 5    0  0.5597833E-005  0.3373919E+03  0.7546771E-02  0.1067912E+00
         21   -1    0    0  502  501  0.00000000000E+00  0.00000000000E+00  0.88272016986E+02  0.88272016986E+02  0.00000000000E+00 0.  1.
         21   -1    0    0  501  502 -0.00000000000E+00 -0.00000000000E+00 -0.12895739385E+04  0.12895739385E+04  0.00000000000E+00 0.  1.
         25    1    1    2    0    0  0.76658775326E+02  0.78512596082E+02 -0.58047869592E+03  0.60383881293E+03  0.12500000000E+03 0.  0.
         25    1    1    2    0    0 -0.17076880916E+02 -0.10156574026E+03 -0.27473292806E+02  0.16427720863E+03  0.12500000000E+03 0.  0.
         25    1    1    2    0    0 -0.59581894410E+02  0.23053144177E+02 -0.59334993282E+03  0.60972993397E+03  0.12500000000E+03 0.  0.
</event>
<event>
 5    0  0.5597833E-005  0.2476868E+03  0.7546771E-02  0.1114776E+00
         21   -1    0    0  502  501  0.00000000000E+00  0.00000000000E+00  0.10385993216E+04  0.10385993216E+04  0.00000000000E+00 0. -1.
         21   -1    0    0  501  502 -0.00000000000E+00 -0.00000000000E+00 -0.59068719819E+02  0.59068719819E+02  0.00000000000E+00 0. -1.
         25    1    1    2    0    0  0.60698590462E+02 -0.53117439224E+02  0.24177771534E+03  0.28387892643E+03  0.12500000000E+03 0.  0.
         25    1    1    2    0    0  0.37710180284E+02  0.99005197753E+02  0.48225592584E+03  0.50933276439E+03  0.12500000000E+03 0.  0.
         25    1    1    2    0    0 -0.98408770745E+02 -0.45887758529E+02  0.25549696060E+03  0.30445635059E+03  0.12500000000E+03 0.  0.
</event>
<event>
 5    0  0.5597833E-005  0.2651764E+03  0.7546771E-02  0.1104072E+00
         21   -1    0    0  502  501  0.00000000000E+00  0.00000000000E+00  0.51394124530E+02  0.51394124530E+02  0.00000000000E+00 0. -1.
         21   -1    0    0  501  502 -0.00000000000E+00 -0.00000000000E+00 -0.13682209758E+04  0.13682209758E+04  0.00000000000E+00 0. -1.
         25    1    1    2    0    0  0.93039720099E+02 -0.13933140086E+02 -0.36713398297E+03  0.39907754054E+03  0.12500000000E+03 0.  0.
         25    1    1    2    0    0  0.87836857213E+02  0.14984460489E+02 -0.37305372242E+03  0.40340293423E+03  0.12500000000E+03 0.  0.
         25    1    1    2    0    0 -0.18087657731E+03 -0.10513204037E+01 -0.57663914584E+03  0.61713462552E+03  0.12500000000E+03 0.  0.
</event>
<event>
 5    0  0.5597833E-005  0.4178619E+03  0.7546771E-02  0.1037764E+00
         21   -1    0    0  502  501  0.00000000000E+00  0.00000000000E+00  0.34674960229E+03  0.34674960229E+03  0.00000000000E+00 0.  1.
         21   -1    0    0  501  502 -0.00000000000E+00 -0.00000000000E+00 -0.50355797602E+03  0.50355797602E+03  0.00000000000E+00 0.  1.
         25    1    1    2    0    0  0.28801419400E+03  0.15786712548E+03 -0.91137466479E+02  0.36304991812E+03  0.12500000000E+03 0.  0.
         25    1    1    2    0    0 -0.62050496179E+02 -0.27658795341E+01  0.70849535278E+02  0.15653297038E+03  0.12500000000E+03 0.  0.
         25    1    1    2    0    0 -0.22596369782E+03 -0.15510124594E+03 -0.13652044253E+03  0.33072468982E+03  0.12500000000E+03 0.  0.
</event>
<event>
 5    0  0.5597833E-005  0.2402969E+03  0.7546771E-02  0.1119595E+00
         21   -1    0    0  502  501  0.00000000000E+00  0.00000000000E+00  0.11052617872E+03  0.11052617872E+03  0.00000000000E+00 0. -1.
         21   -1    0    0  501  502 -0.00000000000E+00 -0.00000000000E+00 -0.52243370504E+03  0.52243370504E+03  0.00000000000E+00 0. -1.
         25    1    1    2    0    0 -0.47291978968E+02 -0.85679187695E+02 -0.15275492603E+03  0.22031005856E+03  0.12500000000E+03 0.  0.
         25    1    1    2    0    0  0.62469661608E+02  0.28363275572E+02 -0.23100148119E+03  0.27146568538E+03  0.12500000000E+03 0.  0.
         25    1    1    2    0    0 -0.15177682639E+02  0.57315912123E+02 -0.28151119098E+02  0.14118413983E+03  0.12500000000E+03 0.  0.
</event>
<event>
 5    0  0.5597833E-005  0.2748650E+03  0.7546771E-02  0.1098527E+00
         21   -1    0    0  502  501  0.00000000000E+00  0.00000000000E+00  0.22124352245E+03  0.22124352245E+03  0.00000000000E+00 0.  1.
         21   -1    0    0  501  502 -0.00000000000E+00 -0.00000000000E+00 -0.34148234078E+03  0.34148234078E+03  0.00000000000E+00 0.  1.
         25    1    1    2    0    0  0.37885429843E+02  0.69425070147E+02 -0.78250895128E+01  0.14812622383E+03  0.12500000000E+03 0.  0.
         25    1    1    2    0    0 -0.70220653490E+02  0.10031004528E+03 -0.98700200220E+02  0.20089742379E+03  0.12500000000E+03 0.  0.
         25    1    1    2    0    0  0.32335223647E+02 -0.16973511542E+03 -0.13713528600E+02  0.21370221562E+03  0.12500000000E+03 0.  0.
</event>
<event>
 5    0  0.5597833E-005  0.3277784E+03  0.7546771E-02  0.1072124E+00
         21   -1    0    0  502  501  0.00000000000E+00  0.00000000000E+00  0.47236348056E+03  0.47236348056E+03  0.00000000000E+00 0. -1.
         21   -1    0    0  501  502 -0.00000000000E+00 -0.00000000000E+00 -0.22744912699E+03  0.22744912699E+03  0.00000000000E+00 0. -1.
         25    1    1    2    0    0 -0.25999719790E+02 -0.30800435722E+02  0.72639342603E+02  0.15008706261E+03  0.12500000000E+03 0.  0.
         25    1    1    2    0    0  0.24013377083E+03  0.32892347165E+02  0.70361784699E+02  0.28164146559E+03  0.12500000000E+03 0.  0.
         25    1    1    2    0    0 -0.21413405104E+03 -0.20919114426E+01  0.10191322627E+03  0.26808407934E+03  0.12500000000E+03 0.  0.
</event>
<event>
 5    0  0.5597833E-005  0.3073329E+03  0.7546771E-02  0.1081631E+00
         21   -1    0    0  502  501  0.00000000000E+00  0.00000000000E+00  0.39265697665E+03  0.39265697665E+03  0.00000000000E+00 0. -1.
         21   -1    0    0  501  502 -0.00000000000E+00 -0.00000000000E+00 -0.24054966565E+03  0.24054966565E+03  0.00000000000E+00 0. -1.
         25    1    1    2    0    0  0.42100982947E+02 -0.52344082525E+02  0.54397319959E+02  0.15197520903E+03  0.12500000000E+03 0.  0.
         25    1    1    2    0    0 -0.24520477404E+01 -0.15925020517E+02  0.24313015888E+03  0.27385560606E+03  0.12500000000E+03 0.  0.
         25    1    1    2    0    0 -0.39648935206E+02  0.68269103042E+02 -0.14542016784E+03  0.20737582720E+03  0.12500000000E+03 0.  0.
</event>
<event>
 5    0  0.5597833E-005  0.2353226E+03  0.7546771E-02  0.1122949E+00
         21   -1    0    0  502  501  0.00000000000E+00  0.00000000000E+00  0.51422096513E+03  0.51422096513E+03  0.00000000000E+00 0. -1.
         21   -1    0    0  501  502 -0.00000000000E+00 -0.00000000000E+00 -0.10769054281E+03  0.10769054281E+03  0.00000000000E+00 0. -1.
         25    1    1    2    0    0  0.60642452300E+01 -0.86824212502E+02  0.55471070554E+02  0.16210261755E+03  0.12500000000E+03 0.  0.
         25    1    1    2    0    0 -0.65979188780E+01 -0.25439416342E+02  0.13129424469E+03  0.18317716868E+03  0.12500000000E+03 0.  0.
         25    1    1    2    0    0  0.53367364803E+00  0.11226362884E+03  0.21976510708E+03  0.27663172171E+03  0.12500000000E+03 0.  0.
</event>
<event>
 5    0  0.5597833E-005  0.2367544E+03  0.7546771E-02  0.1121974E+00
         21   -1    0    0  502  501  0.00000000000E+00  0.00000000000E+00  0.10525184665E+04  0.10525184665E+04  0.00000000000E+00 0. -1.
         21   -1    0    0  501  502 -0.00000000000E+00 -0.00000000000E+00 -0.53255714309E+02  0.53255714309E+02  0.00000000000E+00 0. -1.
         25    1    1    2    0    0  0.26333090005E+02  0.12148638193E+03  0.32145305022E+03  0.36661892493E+03  0.12500000000E+03 0.  0.
         25    1    1    2    0    0 -0.49049296523E+02 -0.36943282297E+02  0.37587202212E+03  0.40084338165E+03  0.12500000000E+03 0.  0.
         25    1    1    2    0    0  0.22716206518E+02 -0.84543099634E+02  0.30193767990E+03  0.33831187428E+03  0.12500000000E+03 0.  0.
</event>
<event>
 5    0  0.5597833E-005  0.3211845E+03  0.7546771E-02  0.1075105E+00
         21   -1    0    0  502  501  0.00000000000E+00  0.00000000000E+00  0.86879298456E+02  0.86879298456E+02  0.00000000000E+00 0. -1.
         21   -1    0    0  501  502 -0.00000000000E+00 -0.00000000000E+00 -0.11873883010E+04  0.11873883010E+04  0.00000000000E+00 0. -1.
         25    1    1    2    0    0  0.12881050752E+03 -0.72108165421E+02 -0.67649342527E+03  0.70360506593E+03  0.12500000000E+03 0.  0.
         25    1    1    2    0    0 -0.14021921880E+02  0.99982462059E+02 -0.34664966355E+03  0.38207865192E+03  0.12500000000E+03 0.  0.
         25    1    1    2    0    0 -0.11478858564E+03 -0.27874296639E+02 -0.77365913768E+02  0.18858388165E+03  0.12500000000E+03 0.  0.
</event>
<event>
 5    0  0.5597833E-005  0.2673099E+03  0.7546771E-02  0.1102829E+00
         21   -1    0    0  502  501  0.00000000000E+00  0.00000000000E+00  0.66383034049E+03  0.66383034049E+03  0.00000000000E+00 0. -1.
         21   -1    0    0  501  502 -0.00000000000E+00 -0.00000000000E+00 -0.10763983050E+03  0.10763983050E+03  0.00000000000E+00 0. -1.
         25    1    1    2    0    0 -0.14500145479E+03 -0.60235680267E+02  0.30643854334E+03  0.36631044199E+03  0.12500000000E+03 0.  0.
         25    1    1    2    0    0  0.11029849181E+03  0.76568165124E+02  0.11056805317E+03  0.21419322022E+03  0.12500000000E+03 0.  0.
         25    1    1    2    0    0  0.34702962979E+02 -0.16332484857E+02  0.13918391349E+03  0.19096650878E+03  0.12500000000E+03 0.  0.
</event>
<event>
 5    0  0.5597833E-005  0.3103399E+03  0.7546771E-02  0.1080183E+00
         21   -1    0    0  502  501  0.00000000000E+00  0.00000000000E+00  0.46466828315E+02  0.46466828315E+02  0.00000000000E+00 0. -1.
         21   -1    0    0  501  502 -0.00000000000E+00 -0.00000000000E+00 -0.20726799180E+04  0.20726799180E+04  0.00000000000E+00 0. -1.
         25    1    1    2    0    0 -0.63295347977E+02 -0.18926615615E+02 -0.30536895734E+03  0.33651109634E+03  0.12500000000E+03 0.  0.
         25    1    1    2    0    0  0.20226623174E+03  0.18618957162E+02 -0.13063755263E+04  0.13279684897E+04  0.12500000000E+03 0.  0.
         25    1    1    2    0    0 -0.13897088376E+03  0.30765845296E+00 -0.41446860611E+03  0.45466716028E+03  0.12500000000E+03 0.  0.
</event>
<event>
 5    0  0.5597833E-005  0.2119364E+03  0.7546771E-02  0.1140042E+00
         21   -1    0    0  502  501  0.00000000000E+00  0.00000000000E+00  0.13515189539E+03  0.13515189539E+03  0.00000000000E+00 0.  1.
         21   -1    0    0  501  502 -0.00000000000E+00 -0.00000000000E+00 -0.33234473796E+03  0.33234473796E+03  0.00000000000E+00 0.  1.
         25    1    1    2    0    0  0.54960698783E+02  0.36565569681E+02 -0.65221851183E+02  0.15568111372E+03  0.12500000000E+03 0.  0.
         25    1    1    2    0    0 -0.75704440062E+02 -0.24185417795E+02 -0.36150808808E+02  0.15247287515E+03  0.12500000000E+03 0.  0.
         25    1    1    2    0    0  0.20743741278E+02 -0.12380151886E+02 -0.95820182572E+02  0.15934264448E+03  0.12500000000E+03 0.  0.
</event>
<event>
 5    0  0.5597833E-005  0.2715884E+03  0.7546771E-02  0.1100374E+00
         21   -1    0    0  502  501  0.00000000000E+00  0.00000000000E+00  0.30437901034E+04  0.30437901034E+04  0.00000000000E+00 0.  1.
         21   -1    0    0  501  502 -0.00000000000E+00 -0.00000000000E+00 -0.24233025566E+02  0.24233025566E+02  0.00000000000E+00 0.  1.
         25    1    1    2    0    0 -0.63428197752E+02 -0.59861283957E+02  0.60774398505E+03  0.62656544826E+03  0.12500000000E+03 0.  0.
         25    1    1    2    0    0  0.15534622752E+03  0.47652118064E+02  0.98018102292E+03  0.10013905394E+04  0.12500000000E+03 0.  0.
         25    1    1    2    0    0 -0.91918029772E+02  0.12209165893E+02  0.14316320699E+04  0.14400671413E+04  0.12500000000E+03 0.  0.
</event>
<event>
 5    0  0.5597833E-005  0.2615969E+03  0.7546771E-02  0.1106188E+00
         21   -1    0    0  502  501  0.00000000000E+00  0.00000000000E+00  0.17673892378E+03  0.17673892378E+03  0.00000000000E+00 0.  1.
         21   -1    0    0  501  502 -0.00000000000E+00 -0.00000000000E+00 -0.38719802594E+03  0.38719802594E+03  0.00000000000E+00 0.  1.
         25    1    1    2    0    0  0.42600135144E+01 -0.25581506937E+02 -0.27069288993E+03  0.29928615382E+03  0.12500000000E+03 0.  0.
         25    1    1    2    0    0  0.21870710964E+02  0.16331077846E+01  0.40613069913E+02  0.13324945211E+03  0.12500000000E+03 0.  0.
         25    1    1    2    0    0 -0.26130724478E+02  0.23948399153E+02  0.19620717853E+02  0.13140134380E+03  0.12500000000E+03 0.  0.
</event>
<event>
 5    0  0.5597833E-005  0.4024687E+03  0.7546771E-02  0.1042928E+00
         21   -1    0    0  502  501  0.00000000000E+00  0.00000000000E+00  0.11213473940E+04  0.11213473940E+04  0.00000000000E+00 0.  1.
         21   -1    0    0  501  502 -0.00000000000E+00 -0.00000000000E+00 -0.14445218206E+03  0.14445218206E+03  0.00000000000E+00 0. -1.
         25    1    1    2    0    0  0.54088206198E+02  0.12690336514E+03  0.16703181341E+03  0.25010922579E+03  0.12500000000E+03 0.  0.
         25    1    1    2    0    0 -0.21196613445E+03  0.10959637857E+03  0.21518244389E+03  0.34477455316E+03  0.12500000000E+03 0.  0.
         25    1    1    2    0    0  0.15787792825E+03 -0.23649974370E+03  0.59468095465E+03  0.67091579712E+03  0.12500000000E+03 0.  0.
</event>
<event>
 5    0  0.5597833E-005  0.3037819E+03  0.7546771E-02  0.1083365E+00
         21   -1    0    0  502  501  0.00000000000E+00  0.00000000000E+00  0.29646196510E+03  0.29646196510E+03  0.00000000000E+00 0.  1.
         21   -1    0    0  501  502 -0.00000000000E+00 -0.00000000000E+00 -0.31128259072E+03  0.31128259072E+03  0.00000000000E+00 0.  1.
         25    1    1    2    0    0 -0.13851544463E+03 -0.13401340776E+02 -0.91619867093E+02  0.20829144097E+03  0.12500000000E+03 0.  0.
         25    1    1    2    0    0  0.91935907983E+02  0.34242996109E+02 -0.91755503767E+02  0.18349078023E+03  0.12500000000E+03 0.  0.
         25    1    1    2    0    0  0.46579536652E+02 -0.20841655332E+02  0.16855474524E+03  0.21596233462E+03  0.12500000000E+03 0.  0.
</event>
<event>
 5    0  0.5597833E-005  0.4182423E+03  0.7546771E-02  0.1037640E+00
         21   -1    0    0  502  501  0.00000000000E+00  0.00000000000E+00  0.11977502495E+04  0.11977502495E+04  0.00000000000E+00 0. -1.
         21   -1    0    0  501  502 -0.00000000000E+00 -0.00000000000E+00 -0.14604600341E+03  0.14604600341E+03  0.00000000000E+00 0. -1.
         25    1    1    2    0    0  0.26732134222E+03  0.17930183349E+03  0.29916115504E+03  0.45687224055E+03  0.12500000000E+03 0.  0.
         25    1    1    2    0    0 -0.26638563990E+03 -0.97524287256E+02  0.58785246616E+03  0.66458093391E+03  0.12500000000E+03 0.  0.
         25    1    1    2    0    0 -0.93570231870E+00 -0.81777546237E+02  0.16469062488E+03  0.22234307844E+03  0.12500000000E+03 0.  0.
</event>
<event>
 5    0  0.5597833E-005  0.2985832E+03  0.7546771E-02  0.1085951E+00
         21   -1    0    0  502  501  0.00000000000E+00  0.00000000000E+00  0.11937878074E+04  0.11937878074E+04  0.00000000000E+00 0.  1.
         21   -1    0    0  501  502 -0.00000000000E+00 -0.00000000000E+00 -0.74679875814E+02  0.74679875814E+02  0.00000000000E+00 0.  1.
         25    1    1    2    0    0  0.31488344080E+01 -0.23529173858E+02  0.37525546182E+03  0.39623881537E+03  0.12500000000E+03 0.  0.
         25    1    1    2    0    0  0.17671026631E+03 -0.46812849839E+02  0.30745382696E+03  0.37890739877E+03  0.12500000000E+03 0.  0.
         25    1    1    2    0    0 -0.17985910072E+03  0.70342023697E+02  0.43639864282E+03  0.49332146909E+03  0.12500000000E+03 0.  0.
</event>
<event>
 5    0  0.5597833E-005  0.3136148E+03  0.7546771E-02  0.1078626E+00
         21   -1    0    0  502  501  0.00000000000E+00  0.00000000000E+00  0.10012337150E+03  0.10012337150E+03  0.00000000000E+00 0.  1.
         21   -1    0    0  501  502 -0.00000000000E+00 -0.00000000000E+00 -0.98233060962E+03  0.98233060962E+03  0.00000000000E+00 0.  1.
         25    1    1    2    0    0  0.98784706997E+02 -0.16212364018E+03 -0.27443345379E+03  0.35634423469E+03  0.12500000000E+03 0.  0.
         25    1    1    2    0    0 -0.16923799602E+03  0.53948009609E+02 -0.34877094674E+03  0.41087475017E+03  0.12500000000E+03 0.  0.
         25    1    1    2    0    0  0.70453289026E+02  0.10817563057E+03 -0.25900283759E+03  0.31523499625E+03  0.12500000000E+03 0.  0.
</event>
<event>
 5    0  0.5597833E-005  0.2435969E+03  0.7546771E-02  0.1117420E+00
         21   -1    0    0  502  501  0.00000000000E+00  0.00000000000E+00  0.26688041762E+03  0.26688041762E+03  0.00000000000E+00 0. -1.
         21   -1    0    0  501  502 -0.00000000000E+00 -0.00000000000E+00 -0.22234477011E+03  0.22234477011E+03  0.00000000000E+00 0. -1.
         25    1    1    2    0    0 -0.19156373149E+02 -0.16166100335E+02  0.15208949388E+03  0.19845534405E+03  0.12500000000E+03 0.  0.
         25    1    1    2    0    0  0.58378685765E+02  0.10038285063E+02 -0.65425193597E+02  0.15301729992E+03  0.12500000000E+03 0.  0.
         25    1    1    2    0    0 -0.39222312615E+02  0.61278152720E+01 -0.42128652770E+02  0.13775254376E+03  0.12500000000E+03 0.  0.
</event>
<event>
 5    0  0.5597833E-005  0.3459032E+03  0.7546771E-02  0.1064309E+00
         21   -1    0    0  502  501  0.00000000000E+00  0.00000000000E+00  0.36999739870E+03  0.36999739870E+03  0.00000000000E+00 0.  1.
         21   -1    0    0  501  502 -0.00000000000E+00 -0.00000000000E+00 -0.32337792350E+03  0.32337792350E+03  0.00000000000E+00 0.  1.
         25    1    1    2    0    0 -0.14863423831E+02 -0.17053269479E+03  0.11553529206E+03  0.24140365588E+03  0.12500000000E+03 0.  0.
         25    1    1    2    0    0 -0.96206668039E+02  0.36773288443E+02  0.90018801327E+02  0.18530078875E+03  0.12500000000E+03 0.  0.
         25    1    1    2    0    0  0.11107009187E+03  0.13375940635E+03 -0.15893461818E+03  0.26667087758E+03  0.12500000000E+03 0.  0.
</event>
<event>
 5    0  0.5597833E-005  0.2448983E+03  0.7546771E-02  0.1116572E+00
         21   -1    0    0  502  501  0.00000000000E+00  0.00000000000E+00  0.88652507751E+02  0.88652507751E+02  0.00000000000E+00 0. -1.
         21   -1    0    0  501  502 -0.00000000000E+00 -0.00000000000E+00 -0.67651975240E+03  0.67651975240E+03  0.00000000000E+00 0. -1.
         25    1    1    2    0    0  0.51225758711E+02  0.52194133751E+02 -0.19726294409E+03  0.24471611117E+03  0.12500000000E+03 0.  0.
         25    1    1    2    0    0 -0.11531464738E+03 -0.73087144363E+02 -0.13880294208E+03  0.23136649563E+03  0.12500000000E+03 0.  0.
         25    1    1    2    0    0  0.64088888668E+02  0.20893010613E+02 -0.25180135848E+03  0.28908965335E+03  0.12500000000E+03 0.  0.
</event>
<event>
 5    0  0.5597833E-005  0.5395101E+03  0.7546771E-02  0.1003951E+00
         21   -1    0    0  502  501  0.00000000000E+00  0.00000000000E+00  0.27047530219E+03  0.27047530219E+03  0.00000000000E+00 0. -1.
         21   -1    0    0  501  502 -0.00000000000E+00 -0.00000000000E+00 -0.10761469719E+04  0.10761469719E+04  0.00000000000E+00 0. -1.
         25    1    1    2    0    0  0.12027717354E+03 -0.87064090034E+02 -0.23613477632E+03  0.30566548192E+03  0.12500000000E+03 0.  0.
         25    1    1    2    0    0  0.24828552044E+03 -0.12976151517E+03  0.13648934990E+02  0.30707498092E+03  0.12500000000E+03 0.  0.
         25    1    1    2    0    0 -0.36856269398E+03  0.21682560521E+03 -0.58318582836E+03  0.73388181124E+03  0.12500000000E+03 0.  0.
</event>
<event>
 5    0  0.6255483E-005  0.3856097E+03  0.7546771E-02  0.1048880E+00
         21   -1    0    0  502  501  0.00000000000E+00  0.00000000000E+00  0.55477817079E+03  0.55477817079E+03  0.00000000000E+00 0.  1.
         21   -1    0    0  501  502 -0.00000000000E+00 -0.00000000000E+00 -0.26802569537E+03  0.26802569537E+03  0.00000000000E+00 0.  1.
         25    1    1    2    0    0  0.10293657514E+03  0.10063498426E+03  0.33195911319E+03  0.38281221426E+03  0.12500000000E+03 0.  0.
         25    1    1    2    0    0 -0.14106238780E+03 -0.15792742066E+03  0.71029144566E+02  0.25594883635E+03  0.12500000000E+03 0.  0.
         25    1    1    2    0    0  0.38125812664E+02  0.57292436394E+02 -0.11623578234E+03  0.18404281555E+03  0.12500000000E+03 0.  0.
</event>
<event>
 5    0  0.5597833E-005  0.3794143E+03  0.7546771E-02  0.1051150E+00
         21   -1    0    0  502  501  0.00000000000E+00  0.00000000000E+00  0.46510043123E+03  0.46510043123E+03  0.00000000000E+00 0. -1.
         21   -1    0    0  501  502 -0.00000000000E+00 -0.00000000000E+00 -0.30951419607E+03  0.30951419607E+03  0.00000000000E+00 0. -1.
         25    1    1    2    0    0  0.11536346625E+03  0.11301967122E+03 -0.13051830943E+02  0.20463999052E+03  0.12500000000E+03 0.  0.
         25    1    1    2    0    0 -0.21837149911E+03 -0.13674205142E+03  0.25626669447E+03  0.38429431293E+03  0.12500000000E+03 0.  0.
         25    1    1    2    0    0  0.10300803286E+03  0.23722380191E+02 -0.87628628366E+02  0.18568032385E+03  0.12500000000E+03 0.  0.
</event>
<event>
 5    0  0.5597833E-005  0.3418548E+03  0.7546771E-02  0.1066009E+00
         21   -1    0    0  502  501  0.00000000000E+00  0.00000000000E+00  0.24128193033E+04  0.24128193033E+04  0.00000000000E+00 0. -1.
         21   -1    0    0  501  502 -0.00000000000E+00 -0.00000000000E+00 -0.48434917301E+02  0.48434917301E+02  0.00000000000E+00 0. -1.
         25    1    1    2    0    0 -0.69676870634E+02  0.11870756204E+03  0.98194827095E+03  0.99939669722E+03  0.12500000000E+03 0.  0.
         25    1    1    2    0    0  0.15577539043E+02 -0.45198254832E+01  0.84367627582E+02  0.15167723998E+03  0.12500000000E+03 0.  0.
         25    1    1    2    0    0  0.54099331591E+02 -0.11418773656E+03  0.12980684875E+04  0.13101802834E+04  0.12500000000E+03 0.  0.
</event>
<event>
 5    0  0.5597833E-005  0.2933357E+03  0.7546771E-02  0.1088620E+00
         21   -1    0    0  502  501  0.00000000000E+00  0.00000000000E+00  0.48028083495E+03  0.48028083495E+03  0.00000000000E+00 0.  1.
         21   -1    0    0  501  502 -0.00000000000E+00 -0.00000000000E+00 -0.17915736356E+03  0.17915736356E+03  0.00000000000E+00 0.  1.
         25    1    1    2    0    0  0.64064140251E+02 -0.10538726903E+03  0.12593605847E+03  0.21609160410E+03  0.12500000000E+03 0.  0.
         25    1    1    2    0    0  0.10210115427E+03  0.76122559229E+02  0.14692898814E+02  0.17905354228E+03  0.12500000000E+03 0.  0.
         25    1    1    2    0    0 -0.16616529452E+03  0.29264709804E+02  0.16049451410E+03  0.26429305212E+03  0.12500000000E+03 0.  0.
</event>
<event>
 5    0  0.5597833E-005  0.2486706E+03  0.7546771E-02  0.1114148E+00
         21   -1    0    0  502  501  0.00000000000E+00  0.00000000000E+00  0.79308892787E+03  0.79308892787E+03  0.00000000000E+00 0. -1.
         21   -1    0    0  501  502 -0.00000000000E+00 -0.00000000000E+00 -0.77969916984E+02  0.77969916984E+02  0.00000000000E+00 0. -1.
         25    1    1    2    0    0  0.13027414585E+02 -0.90134390095E+01  0.15526061855E+03  0.19995453304E+03  0.12500000000E+03 0.  0.
         25    1    1    2    0    0 -0.16799457449E+02 -0.39289124033E+02  0.51198351264E+03  0.52875133499E+03  0.12500000000E+03 0.  0.
         25    1    1    2    0    0  0.37720428642E+01  0.48302563043E+02  0.47874879703E+02  0.14235297682E+03  0.12500000000E+03 0.  0.
</event>
<event>
 5    0  0.5597833E-005  0.2617091E+03  0.7546771E-02  0.1106121E+00
         21   -1    0    0  502  501  0.00000000000E+00  0.00000000000E+00  0.60327525448E+02  0.60327525448E+02  0.00000000000E+00 0. -1.
         21   -1    0    0  501  502 -0.00000000000E+00 -0.00000000000E+00 -0.11353298648E+04  0.11353298648E+04  0.00000000000E+00 0. -1.
         25    1    1    2    0    0 -0.36003914779E+02 -0.11129257825E+03 -0.59137228330E+03  0.61565290328E+03  0.12500000000E+03 0.  0.
         25    1    1    2    0    0  0.43712549824E+02  0.26236957502E+01 -0.11348513102E+03  0.17441773349E+03  0.12500000000E+03 0.  0.
         25    1    1    2    0    0 -0.77086350445E+01  0.10866888250E+03 -0.37014492502E+03  0.40558675348E+03  0.12500000000E+03 0.  0.
</event>
<event>
 5    0  0.5597833E-005  0.3853528E+03  0.7546771E-02  0.1048973E+00
         21   -1    0    0  502  501  0.00000000000E+00  0.00000000000E+00  0.57571176168E+03  0.57571176168E+03  0.00000000000E+00 0.  1.
         21   -1    0    0  501  502 -0.00000000000E+00 -0.00000000000E+00 -0.25793601119E+03  0.25793601119E+03  0.00000000000E+00 0.  1.
         25    1    1    2    0    0  0.29724917520E+03 -0.11890560163E+03  0.10774063613E+03  0.36017864863E+03  0.12500000000E+03 0.  0.
         25    1    1    2    0    0 -0.10203232703E+03  0.99729728164E+02  0.11754608207E+03  0.22315621401E+03  0.12500000000E+03 0.  0.
         25    1    1    2    0    0 -0.19521684817E+03  0.19175873464E+02  0.92489032291E+02  0.25031291023E+03  0.12500000000E+03 0.  0.
</event>
<event>
 5    0  0.5597833E-005  0.3012138E+03  0.7546771E-02  0.1084635E+00
         21   -1    0    0  502  501  0.00000000000E+00  0.00000000000E+00  0.56213947788E+02  0.56213947788E+02  0.00000000000E+00 0.  1.
         21   -1    0    0  501  502 -0.00000000000E+00 -0.00000000000E+00 -0.16140074625E+04  0.16140074625E+04  0.00000000000E+00 0.  1.
         25    1    1    2    0    0  0.11549496420E+03  0.11986251556E+03 -0.97294755596E+03  0.99496635925E+03  0.12500000000E+03 0.  0.
         25    1    1    2    0    0 -0.96413291697E+02 -0.10551193472E+03 -0.22983007405E+03  0.29811936221E+03  0.12500000000E+03 0.  0.
         25    1    1    2    0    0 -0.19081672507E+02 -0.14350580840E+02 -0.35501588467E+03  0.37713568880E+03  0.12500000000E+03 0.  0.
</event>
<event>
 5    0  0.5597833E-005  0.2081886E+03  0.7546771E-02  0.1143009E+00
         21   -1    0    0  502  501  0.00000000000E+00  0.00000000000E+00  0.85183316598E+02  0.85183316598E+02  0.00000000000E+00 0. -1.
         21   -1    0    0  501  502 -0.00000000000E+00 -0.00000000000E+00 -0.50881427713E+03  0.50881427713E+03  0.00000000000E+00 0. -1.
         25    1    1    2    0    0  0.44343666851E+02  0.46135548510E+02 -0.16545797375E+03  0.21701656781E+03  0.12500000000E+03 0.  0.
         25    1    1    2    0    0 -0.17140486408E+02 -0.58380596956E+01 -0.18555073819E+03  0.22445925167E+03  0.12500000000E+03 0.  0.
         25    1    1    2    0    0 -0.27203180443E+02 -0.40297488814E+02 -0.72622248590E+02  0.15252177425E+03  0.12500000000E+03 0.  0.
</event>
<event>
 5    0  0.5597833E-005  0.3703231E+03  0.7546771E-02  0.1054569E+00
         21   -1    0    0  502  501  0.00000000000E+00  0.00000000000E+00  0.73549372150E+03  0.73549372150E+03  0.00000000000E+00 0. -1.
         21   -1    0    0  501  502 -0.00000000000E+00 -0.00000000000E+00 -0.18645873489E+03  0.18645873489E+03  0.00000000000E+00 0. -1.
         25    1    1    2    0    0  0.10344202953E+03 -0.61861196341E+02  0.43582449442E+03  0.46914288977E+03  0.12500000000E+03 0.  0.
         25    1    1    2    0    0 -0.90232083723E+02  0.53828743779E+02 -0.10973985472E+03  0.19674145039E+03  0.12500000000E+03 0.  0.
         25    1    1    2    0    0 -0.13209945804E+02  0.80324525617E+01  0.22295034691E+03  0.25606811623E+03  0.12500000000E+03 0.  0.
</event>
<event>
 5    0  0.5597833E-005  0.2291530E+03  0.7546771E-02  0.1127237E+00
         21   -1    0    0  502  501  0.00000000000E+00  0.00000000000E+00  0.24608121192E+03  0.24608121192E+03  0.00000000000E+00 0. -1.
         21   -1    0    0  501  502 -0.00000000000E+00 -0.00000000000E+00 -0.21338926208E+03  0.21338926208E+03  0.00000000000E+00 0. -1.
         25    1    1    2    0    0  0.45829765867E+02 -0.93873590652E+02 -0.41742193686E+02  0.16816667088E+03  0.12500000000E+03 0.  0.
         25    1    1    2    0    0 -0.44280648562E+02  0.69159506591E+02  0.66348881072E+02  0.16361841953E+03  0.12500000000E+03 0.  0.
         25    1    1    2    0    0 -0.15491173041E+01  0.24714084062E+02  0.80852624548E+01  0.12768538360E+03  0.12500000000E+03 0.  0.
</event>
<event>
 5    0  0.5597833E-005  0.3939078E+03  0.7546771E-02  0.1045910E+00
         21   -1    0    0  502  501  0.00000000000E+00  0.00000000000E+00  0.48348642448E+03  0.48348642448E+03  0.00000000000E+00 0. -1.
         21   -1    0    0  501  502 -0.00000000000E+00 -0.00000000000E+00 -0.32092590109E+03  0.32092590109E+03  0.00000000000E+00 0. -1.
         25    1    1    2    0    0  0.19736103042E+02 -0.11632132119E+03  0.16936093612E+03  0.24130538786E+03  0.12500000000E+03 0.  0.
         25    1    1    2    0    0  0.20249697246E+03  0.16199892865E+03  0.63298666333E+02  0.29475480980E+03  0.12500000000E+03 0.  0.
         25    1    1    2    0    0 -0.22223307550E+03 -0.45677607466E+02 -0.70099079058E+02  0.26835212791E+03  0.12500000000E+03 0.  0.
</event>
<event>
 5    0  0.5597833E-005  0.2467682E+03  0.7546771E-02  0.1115364E+00
         21   -1    0    0  502  501  0.00000000000E+00  0.00000000000E+00  0.79407624341E+02  0.79407624341E+02  0.00000000000E+00 0. -1.
         21   -1    0    0  501  502 -0.00000000000E+00 -0.00000000000E+00 -0.76686024991E+03  0.76686024991E+03  0.00000000000E+00 0. -1.
         25    1    1    2    0    0  0.51710722985E+01  0.23276018916E+02 -0.20645974010E+03  0.24252657036E+03  0.12500000000E+03 0.  0.
         25    1    1    2    0    0  0.57839706693E+01  0.12066345780E+03 -0.22186590599E+03  0.28185564498E+03  0.12500000000E+03 0.  0.
         25    1    1    2    0    0 -0.10955042968E+02 -0.14393947672E+03 -0.25912697947E+03  0.32188565892E+03  0.12500000000E+03 0.  0.
</event>
<event>
 5    0  0.5597833E-005  0.2430179E+03  0.7546771E-02  0.1117799E+00
         21   -1    0    0  502  501  0.00000000000E+00  0.00000000000E+00  0.82125269140E+03  0.82125269140E+03  0.00000000000E+00 0. -1.
         21   -1    0    0  501  502 -0.00000000000E+00 -0.00000000000E+00 -0.71911727193E+02  0.71911727193E+02  0.00000000000E+00 0. -1.
         25    1    1    2    0    0 -0.62931771805E+02  0.30457010405E+02  0.42388473913E+03  0.44742743485E+03  0.12500000000E+03 0.  0.
         25    1    1    2    0    0  0.25389406737E+02 -0.89214735023E+02  0.21245463224E+03  0.26337399583E+03  0.12500000000E+03 0.  0.
         25    1    1    2    0    0  0.37542365069E+02  0.58757724618E+02  0.11300159283E+03  0.18236298791E+03  0.12500000000E+03 0.  0.
</event>
<event>
 5    0  0.5597833E-005  0.2401130E+03  0.7546771E-02  0.1119718E+00
         21   -1    0    0  502  501  0.00000000000E+00  0.00000000000E+00  0.27286587176E+03  0.27286587176E+03  0.00000000000E+00 0. -1.
         21   -1    0    0  501  502 -0.00000000000E+00 -0.00000000000E+00 -0.21129150359E+03  0.21129150359E+03  0.00000000000E+00 0. -1.
         25    1    1    2    0    0  0.85123043969E+01  0.40394202790E+02  0.87965400498E+02  0.15832581164E+03  0.12500000000E+03 0.  0.
         25    1    1    2    0    0 -0.78108224814E+02  0.44427942071E+02 -0.39678910509E+02  0.15897846634E+03  0.12500000000E+03 0.  0.
         25    1    1    2    0    0  0.69595920417E+02 -0.84822144861E+02  0.13287878189E+02  0.16685309738E+03  0.12500000000E+03 0.  0.
</event>
<event>
 5    0  0.5597833E-005  0.2668561E+03  0.7546771E-02  0.1103093E+00
         21   -1    0    0  502  501  0.00000000000E+00  0.00000000000E+00  0.15660748883E+03  0.15660748883E+03  0.00000000000E+00 0. -1.
         21   -1    0    0  501  502 -0.00000000000E+00 -0.00000000000E+00 -0.45471759639E+03  0.45471759639E+03  0.00000000000E+00 0. -1.
         25    1    1    2    0    0 -0.11394339089E+03 -0.32908301460E+02 -0.15001983720E+02  0.17296274786E+03  0.12500000000E+03 0.  0.
         25    1    1    2    0    0  0.26663118825E+02 -0.27045281233E+02 -0.23286765988E+03  0.26701070420E+03  0.12500000000E+03 0.  0.
         25    1    1    2    0    0  0.87280272062E+02  0.59953582693E+02 -0.50240463963E+02  0.17135163316E+03  0.12500000000E+03 0.  0.
</event>
<event>
 5    0  0.5597833E-005  0.3644711E+03  0.7546771E-02  0.1056827E+00
         21   -1    0    0  502  501  0.00000000000E+00  0.00000000000E+00  0.19526780522E+03  0.19526780522E+03  0.00000000000E+00 0.  1.
         21   -1    0    0  501  502 -0.00000000000E+00 -0.00000000000E+00 -0.68029232889E+03  0.68029232889E+03  0.00000000000E+00 0.  1.
         25    1    1    2    0    0  0.19652561388E+03  0.18566855884E+03 -0.18275968354E+03  0.34945848477E+03  0.12500000000E+03 0.  0.
         25    1    1    2    0    0 -0.17777857559E+03 -0.20323243307E+02 -0.11799451100E+03  0.24812488949E+03  0.12500000000E+03 0.  0.
         25    1    1    2    0    0 -0.18747038285E+02 -0.16534531554E+03 -0.18427032913E+03  0.27797675985E+03  0.12500000000E+03 0.  0.
</event>
<event>
 5    0  0.5597833E-005  0.2516892E+03  0.7546771E-02  0.1112242E+00
         21   -1    0    0  502  501  0.00000000000E+00  0.00000000000E+00  0.19718747631E+03  0.19718747631E+03  0.00000000000E+00 0.  1.
         21   -1    0    0  501  502 -0.00000000000E+00 -0.00000000000E+00 -0.32125490606E+03  0.32125490606E+03  0.00000000000E+00 0.  1.
         25    1    1    2    0    0 -0.69400739583E+02  0.12646948034E+03 -0.65945919455E+02  0.20195260930E+03  0.12500000000E+03 0.  0.
         25    1    1    2    0    0  0.33579006077E+02 -0.72680725513E+02 -0.88096240828E+02  0.17261513595E+03  0.12500000000E+03 0.  0.
         25    1    1    2    0    0  0.35821733506E+02 -0.53788754824E+02  0.29974730527E+02  0.14387463712E+03  0.12500000000E+03 0.  0.
</event>
<event>
 5    0  0.5597833E-005  0.2885984E+03  0.7546771E-02  0.1091083E+00
         21   -1    0    0  502  501  0.00000000000E+00  0.00000000000E+00  0.88459379814E+03  0.88459379814E+03  0.00000000000E+00 0.  1.
         21   -1    0    0  501  502 -0.00000000000E+00 -0.00000000000E+00 -0.94155115407E+02  0.94155115407E+02  0.00000000000E+00 0.  1.
         25    1    1    2    0    0 -0.82027306150E+01  0.12320072521E+03  0.39856092705E+03  0.43557033422E+03  0.12500000000E+03 0.  0.
         25    1    1    2    0    0  0.13052029543E+01 -0.15293601117E+03  0.94110051514E+02  0.21879860343E+03  0.12500000000E+03 0.  0.
         25    1    1    2    0    0  0.68975276607E+01  0.29735285957E+02  0.29776770417E+03  0.32437997590E+03  0.12500000000E+03 0.  0.
</event>
<event>
 5    0  0.5794983E-005  0.3772736E+03  0.7546771E-02  0.1051946E+00
         21   -1    0    0  502  501  0.00000000000E+00  0.00000000000E+00  0.41255661368E+03  0.41255661368E+03  0.00000000000E+00 0.  1.
         21   -1    0    0  501  502 -0.00000000000E+00 -0.00000000000E+00 -0.34500802218E+03  0.34500802218E+03  0.00000000000E+00 0.  1.
         25    1    1    2    0    0 -0.16219090770E+03  0.11945385501E+03 -0.25995137798E+02  0.23848660593E+03  0.12500000000E+03 0.  0.
         25    1    1    2    0    0  0.18717044648E+02 -0.24425755870E+03  0.55053446637E+01  0.27507706477E+03  0.12500000000E+03 0.  0.
         25    1    1    2    0    0  0.14347386306E+03  0.12480370368E+03  0.88038384629E+02  0.24400096516E+03  0.12500000000E+03 0.  0.
</event>
<event>
 5    0  0.5597833E-005  0.2920516E+03  0.7546771E-02  0.1089283E+00
         21   -1    0    0  502  501  0.00000000000E+00  0.00000000000E+00  0.90508426938E+03  0.90508426938E+03  0.00000000000E+00 0. -1.
         21   -1    0    0  501  502 -0.00000000000E+00 -0.00000000000E+00 -0.94238878046E+02  0.94238878046E+02  0.00000000000E+00 0. -1.
         25    1    1    2    0    0  0.99602117640E+02  0.12466499077E+01  0.28811694232E+03  0.32948218226E+03  0.12500000000E+03 0.  0.
         25    1    1    2    0    0  0.34911851186E+02  0.13721974275E+03  0.23677109583E+03  0.30287562955E+03  0.12500000000E+03 0.  0.
         25    1    1    2    0    0 -0.13451396883E+03 -0.13846639266E+03  0.28595735318E+03  0.36696533561E+03  0.12500000000E+03 0.  0.
</event>
<event>
 5    0  0.5597833E-005  0.3346778E+03  0.7546771E-02  0.1069086E+00
         21   -1    0    0  502  501  0.00000000000E+00  0.00000000000E+00  0.15381931241E+03  0.15381931241E+03  0.00000000000E+00 0. -1.
         21   -1    0    0  501  502 -0.00000000000E+00 -0.00000000000E+00 -0.72818688679E+03  0.72818688679E+03  0.00000000000E+00 0. -1.
         25    1    1    2    0    0  0.57977506957E+02 -0.10294272856E+03 -0.11901923535E+03  0.20916303464E+03  0.12500000000E+03 0.  0.
         25    1    1    2    0    0  0.15433398940E+03  0.13656896180E+03 -0.27493386213E+03  0.36562780277E+03  0.12500000000E+03 0.  0.
         25    1    1    2    0    0 -0.21231149636E+03 -0.33626233236E+02 -0.18041447690E+03  0.30721536179E+03  0.12500000000E+03 0.  0.
</event>
<event>
 5    0  0.5597833E-005  0.4742137E+03  0.7546771E-02  0.1020738E+00
         21   -1    0    0  502  501  0.00000000000E+00  0.00000000000E+00  0.29746085093E+03  0.29746085093E+03  0.00000000000E+00 0. -1.
         21   -1    0    0  501  502 -0.00000000000E+00 -0.00000000000E+00 -0.75599392557E+03  0.75599392557E+03  0.00000000000E+00 0. -1.
         25    1    1    2    0    0 -0.30486393947E+03  0.66332117893E+02 -0.29760793163E+03  0.44892922875E+03  0.12500000000E+03 0.  0.
         25    1    1    2    0    0  0.27318648125E+03  0.23763583181E+02  0.84524023252E+02  0.31299340557E+03  0.12500000000E+03 0.  0.
         25    1    1    2    0    0  0.31677458225E+02 -0.90095701074E+02 -0.24544916626E+03  0.29153214219E+03  0.12500000000E+03 0.  0.
</event>
<event>
 5    0  0.5597833E-005  0.2786367E+03  0.7546771E-02  0.1096436E+00
         21   -1    0    0  502  501  0.00000000000E+00  0.00000000000E+00  0.50379368097E+03  0.50379368097E+03  0.00000000000E+00 0.  1.
         21   -1    0    0  501  502 -0.00000000000E+00 -0.00000000000E+00 -0.15410756144E+03  0.15410756144E+03  0.00000000000E+00 0.  1.
         25    1    1    2    0    0  0.72120203432E+02  0.20553199724E+02 -0.14969751388E+02  0.14653617717E+03  0.12500000000E+03 0.  0.
         25    1    1    2    0    0  0.45746460502E+02 -0.40239767450E+01  0.32555365958E+02  0.13709041867E+03  0.12500000000E+03 0.  0.
         25    1    1    2    0    0 -0.11786666393E+03 -0.16529222979E+02  0.33210050496E+03  0.37427464658E+03  0.12500000000E+03 0.  0.
</event>
<event>
 5    0  0.5597833E-005  0.4836260E+03  0.7546771E-02  0.1018143E+00
         21   -1    0    0  502  501  0.00000000000E+00  0.00000000000E+00  0.60381933348E+03  0.60381933348E+03  0.00000000000E+00 0.  1.
         21   -1    0    0  501  502 -0.00000000000E+00 -0.00000000000E+00 -0.38735784220E+03  0.38735784220E+03  0.00000000000E+00 0.  1.
         25    1    1    2    0    0  0.18537417115E+02  0.47401147870E+02  0.65884269587E+01  0.13512554171E+03  0.12500000000E+03 0.  0.
         25    1    1    2    0    0  0.38008741952E+03 -0.68412958790E+02  0.15351490221E+03  0.43397995876E+03  0.12500000000E+03 0.  0.
         25    1    1    2    0    0 -0.39862483663E+03  0.21011810919E+02  0.56358162114E+02  0.42207167521E+03  0.12500000000E+03 0.  0.
</event>
<event>
 5    0  0.5597833E-005  0.2882915E+03  0.7546771E-02  0.1091245E+00
         21   -1    0    0  502  501  0.00000000000E+00  0.00000000000E+00  0.39144893451E+03  0.39144893451E+03  0.00000000000E+00 0. -1.
         21   -1    0    0  501  502 -0.00000000000E+00 -0.00000000000E+00 -0.21231883265E+03  0.21231883265E+03  0.00000000000E+00 0. -1.
         25    1    1    2    0    0  0.98051747546E+02  0.44543449324E+02 -0.32614017775E+02  0.16818721185E+03  0.12500000000E+03 0.  0.
         25    1    1    2    0    0 -0.10822462462E+01  0.78323329918E+02  0.48341381762E+01  0.14759432292E+03  0.12500000000E+03 0.  0.
         25    1    1    2    0    0 -0.96969501299E+02 -0.12286677924E+03  0.20690998146E+03  0.28798623240E+03  0.12500000000E+03 0.  0.
</event>
<event>
 5    0  0.5597833E-005  0.2596829E+03  0.7546771E-02  0.1107334E+00
         21   -1    0    0  502  501  0.00000000000E+00  0.00000000000E+00  0.31930754236E+04  0.31930754236E+04  0.00000000000E+00 0.  1.
         21   -1    0    0  501  502 -0.00000000000E+00 -0.00000000000E+00 -0.21119209020E+02  0.21119209020E+02  0.00000000000E+00 0.  1.
         25    1    1    2    0    0  0.20682376959E+02  0.27594420329E+01  0.18073001905E+04  0.18117379374E+04  0.12500000000E+03 0.  0.
         25    1    1    2    0    0 -0.13982663133E+02  0.19269203193E+02  0.11156878423E+04  0.11229208246E+04  0.12500000000E+03 0.  0.
         25    1    1    2    0    0 -0.66997138264E+01 -0.22028645226E+02  0.24896818179E+03  0.27953587054E+03  0.12500000000E+03 0.  0.
</event>
<event>
 5    0  0.5597833E-005  0.2748648E+03  0.7546771E-02  0.1098527E+00
         21   -1    0    0  502  501  0.00000000000E+00  0.00000000000E+00  0.52194597405E+02  0.52194597405E+02  0.00000000000E+00 0.  1.
         21   -1    0    0  501  502 -0.00000000000E+00 -0.00000000000E+00 -0.14474803486E+04  0.14474803486E+04  0.00000000000E+00 0.  1.
         25    1    1    2    0    0  0.13074024355E+03  0.53028911145E+02 -0.55180910773E+03  0.58311522710E+03  0.12500000000E+03 0.  0.
         25    1    1    2    0    0 -0.11673110162E+03  0.40590862744E+02 -0.27114823601E+03  0.32314104368E+03  0.12500000000E+03 0.  0.
         25    1    1    2    0    0 -0.14009141935E+02 -0.93619773889E+02 -0.57232840749E+03  0.59341867526E+03  0.12500000000E+03 0.  0.
</event>
<event>
 5    0  0.5597833E-005  0.3046753E+03  0.7546771E-02  0.1082927E+00
         21   -1    0    0  502  501  0.00000000000E+00  0.00000000000E+00  0.16251777091E+03  0.16251777091E+03  0.00000000000E+00 0. -1.
         21   -1    0    0  501  502 -0.00000000000E+00 -0.00000000000E+00 -0.57118093296E+03  0.57118093296E+03  0.00000000000E+00 0. -1.
         25    1    1    2    0    0 -0.21221797197E+02 -0.50109112394E+00 -0.33977886870E+02  0.13126352336E+03  0.12500000000E+03 0.  0.
         25    1    1    2    0    0  0.76881343233E+02 -0.71613789449E+02 -0.41212506327E+03  0.44329599993E+03  0.12500000000E+03 0.  0.
         25    1    1    2    0    0 -0.55659546037E+02  0.72114880573E+02  0.37439788087E+02  0.15913918058E+03  0.12500000000E+03 0.  0.
</event>
<event>
 5    0  0.5597833E-005  0.2564575E+03  0.7546771E-02  0.1109290E+00
         21   -1    0    0  502  501  0.00000000000E+00  0.00000000000E+00  0.29890180596E+03  0.29890180596E+03  0.00000000000E+00 0.  1.
         21   -1    0    0  501  502 -0.00000000000E+00 -0.00000000000E+00 -0.22004036325E+03  0.22004036325E+03  0.00000000000E+00 0.  1.
         25    1    1    2    0    0  0.85972113193E+02 -0.12714679293E+03  0.35928290444E+02  0.20117990271E+03  0.12500000000E+03 0.  0.
         25    1    1    2    0    0  0.87446727670E+01  0.77370119955E+02  0.42291119630E+02  0.15321926629E+03  0.12500000000E+03 0.  0.
         25    1    1    2    0    0 -0.94716785960E+02  0.49776672970E+02  0.64203263662E+00  0.16454300022E+03  0.12500000000E+03 0.  0.
</event>
<event>
 5    0  0.5597833E-005  0.3913214E+03  0.7546771E-02  0.1046827E+00
         21   -1    0    0  502  501  0.00000000000E+00  0.00000000000E+00  0.13848277225E+03  0.13848277225E+03  0.00000000000E+00 0.  1.
         21   -1    0    0  501  502 -0.00000000000E+00 -0.00000000000E+00 -0.11057869568E+04  0.11057869568E+04  0.00000000000E+00 0.  1.
         25    1    1    2    0    0 -0.11049938658E+02  0.44962237419E+02  0.37377414363E+02  0.13844051084E+03  0.12500000000E+03 0.  0.
         25    1    1    2    0    0 -0.33384710379E+01  0.12635413262E+03 -0.17537567523E+03  0.24971611819E+03  0.12500000000E+03 0.  0.
         25    1    1    2    0    0  0.14388409696E+02 -0.17131637004E+03 -0.82930592364E+03  0.85611309998E+03  0.12500000000E+03 0.  0.
</event>
<event>
 5    0  0.5597833E-005  0.4859512E+03  0.7546771E-02  0.1017512E+00
         21   -1    0    0  502  501  0.00000000000E+00  0.00000000000E+00  0.15058896159E+03  0.15058896159E+03  0.00000000000E+00 0. -1.
         21   -1    0    0  501  502 -0.00000000000E+00 -0.00000000000E+00 -0.15681662184E+04  0.15681662184E+04  0.00000000000E+00 0. -1.
         25    1    1    2    0    0  0.13592482634E+02  0.20520991561E+03 -0.23773399967E+03  0.33828733297E+03  0.12500000000E+03 0.  0.
         25    1    1    2    0    0  0.16216880362E+03  0.88984318099E+02 -0.88116301819E+03  0.90900505739E+03  0.12500000000E+03 0.  0.
         25    1    1    2    0    0 -0.17576128625E+03 -0.29419423370E+03 -0.29868023898E+03  0.47146278968E+03  0.12500000000E+03 0.  0.
</event>
<event>
 5    0  0.5597833E-005  0.2511649E+03  0.7546771E-02  0.1112571E+00
         21   -1    0    0  502  501  0.00000000000E+00  0.00000000000E+00  0.12845425193E+04  0.12845425193E+04  0.00000000000E+00 0. -1.
         21   -1    0    0  501  502 -0.00000000000E+00 -0.00000000000E+00 -0.49109939305E+02  0.49109939305E+02  0.00000000000E+00 0. -1.
         25    1    1    2    0    0  0.11694025313E+02  0.31561402346E+02  0.45092343592E+03  0.46913731189E+03  0.12500000000E+03 0.  0.
         25    1    1    2    0    0 -0.17834944466E+02 -0.54141756019E+02  0.69635399306E+03  0.70977693583E+03  0.12500000000E+03 0.  0.
         25    1    1    2    0    0  0.61409191532E+01  0.22580353673E+02  0.88155151043E+02  0.15473821091E+03  0.12500000000E+03 0.  0.
</event>
<event>
 5    0  0.5597833E-005  0.4329476E+03  0.7546771E-02  0.1032933E+00
         21   -1    0    0  502  501  0.00000000000E+00  0.00000000000E+00  0.10857320923E+04  0.10857320923E+04  0.00000000000E+00 0. -1.
         21   -1    0    0  501  502 -0.00000000000E+00 -0.00000000000E+00 -0.17264264453E+03  0.17264264453E+03  0.00000000000E+00 0. -1.
         25    1    1    2    0    0  0.92300739366E+02  0.89544484960E+02 -0.33277677394E+02  0.18240078149E+03  0.12500000000E+03 0.  0.
         25    1    1    2    0    0  0.94692858071E+02 -0.10103840210E+03  0.12565761151E+03  0.22492294547E+03  0.12500000000E+03 0.  0.
         25    1    1    2    0    0 -0.18699359744E+03  0.11493917136E+02  0.82070951367E+03  0.85105100989E+03  0.12500000000E+03 0.  0.
</event>
<event>
 5    0  0.5597833E-005  0.3193563E+03  0.7546771E-02  0.1075946E+00
         21   -1    0    0  502  501  0.00000000000E+00  0.00000000000E+00  0.62879942857E+02  0.62879942857E+02  0.00000000000E+00 0. -1.
         21   -1    0    0  501  502 -0.00000000000E+00 -0.00000000000E+00 -0.16219555188E+04  0.16219555188E+04  0.00000000000E+00 0. -1.
         25    1    1    2    0    0  0.15979439036E+03 -0.71799428819E+02 -0.82949328654E+03  0.85695596012E+03  0.12500000000E+03 0.  0.
         25    1    1    2    0    0 -0.19214651686E+03 -0.21145797428E+02 -0.38986402304E+03  0.45275422157E+03  0.12500000000E+03 0.  0.
         25    1    1    2    0    0  0.32352126499E+02  0.92945226247E+02 -0.33971826639E+03  0.37512527999E+03  0.12500000000E+03 0.  0.
</event>
<event>
 5    0  0.5597833E-005  0.4348314E+03  0.7546771E-02  0.1032345E+00
         21   -1    0    0  502  501  0.00000000000E+00  0.00000000000E+00  0.51607010807E+03  0.51607010807E+03  0.00000000000E+00 0. -1.
         21   -1    0    0  501  502 -0.00000000000E+00 -0.00000000000E+00 -0.36638116153E+03  0.36638116153E+03  0.00000000000E+00 0. -1.
         25    1    1    2    0    0 -0.45185413200E+02  0.86591575813E+02  0.65657003254E+02  0.17168478280E+03  0.12500000000E+03 0.  0.
         25    1    1    2    0    0  0.17792935450E+03 -0.31089113275E+03 -0.66000784337E+02  0.38508863285E+03  0.12500000000E+03 0.  0.
         25    1    1    2    0    0 -0.13274394130E+03  0.22429955694E+03  0.15003272762E+03  0.32567785395E+03  0.12500000000E+03 0.  0.
</event>
<event>
 5    0  0.5597833E-005  0.2876803E+03  0.7546771E-02  0.1091567E+00
         21   -1    0    0  502  501  0.00000000000E+00  0.00000000000E+00  0.58644857514E+03  0.58644857514E+03  0.00000000000E+00 0.  1.
         21   -1    0    0  501  502 -0.00000000000E+00 -0.00000000000E+00 -0.14112056830E+03  0.14112056830E+03  0.00000000000E+00 0.  1.
         25    1    1    2    0    0  0.35772374508E+02  0.58833017483E+02  0.12419066851E+03  0.18918062499E+03  0.12500000000E+03 0.  0.
         25    1    1    2    0    0 -0.61003176647E+02  0.35452840393E+02  0.34900240775E+03  0.37736715817E+03  0.12500000000E+03 0.  0.
         25    1    1    2    0    0  0.25230802139E+02 -0.94285857876E+02 -0.27865069423E+02  0.16102136028E+03  0.12500000000E+03 0.  0.
</event>
<event>
 5    0  0.5597833E-005  0.3658635E+03  0.7546771E-02  0.1056286E+00
         21   -1    0    0  502  501  0.00000000000E+00  0.00000000000E+00  0.14339712551E+04  0.14339712551E+04  0.00000000000E+00 0. -1.
         21   -1    0    0  501  502 -0.00000000000E+00 -0.00000000000E+00 -0.93346442159E+02  0.93346442159E+02  0.00000000000E+00 0. -1.
         25    1    1    2    0    0  0.97813110277E+01 -0.25714715298E+03  0.50973628292E+03  0.58453093200E+03  0.12500000000E+03 0.  0.
         25    1    1    2    0    0  0.37024576430E+02  0.28155453242E+02  0.50710301519E+03  0.52434913638E+03  0.12500000000E+03 0.  0.
         25    1    1    2    0    0 -0.46805887458E+02  0.22899169974E+03  0.32378551480E+03  0.41843762886E+03  0.12500000000E+03 0.  0.
</event>
<event>
 5    0  0.5597833E-005  0.2796666E+03  0.7546771E-02  0.1095871E+00
         21   -1    0    0  502  501  0.00000000000E+00  0.00000000000E+00  0.60183132572E+02  0.60183132572E+02  0.00000000000E+00 0. -1.
         21   -1    0    0  501  502 -0.00000000000E+00 -0.00000000000E+00 -0.12995900704E+04  0.12995900704E+04  0.00000000000E+00 0. -1.
         25    1    1    2    0    0 -0.64372486373E+02  0.46968743978E+02 -0.32178103859E+03  0.35428507830E+03  0.12500000000E+03 0.  0.
         25    1    1    2    0    0  0.10715269487E+03  0.11530958182E+03 -0.48085074576E+03  0.52117217824E+03  0.12500000000E+03 0.  0.
         25    1    1    2    0    0 -0.42780208499E+02 -0.16227832580E+03 -0.43677515345E+03  0.48431594640E+03  0.12500000000E+03 0.  0.
</event>
<event>
 5    0  0.5597833E-005  0.2646373E+03  0.7546771E-02  0.1104389E+00
         21   -1    0    0  502  501  0.00000000000E+00  0.00000000000E+00  0.63120159638E+02  0.63120159638E+02  0.00000000000E+00 0.  1.
         21   -1    0    0  501  502 -0.00000000000E+00 -0.00000000000E+00 -0.11095174500E+04  0.11095174500E+04  0.00000000000E+00 0.  1.
         25    1    1    2    0    0 -0.19195582428E+02  0.11540327523E+02 -0.31035170100E+03  0.33532794077E+03  0.12500000000E+03 0.  0.
         25    1    1    2    0    0  0.13128561966E+03  0.71132639754E+02 -0.25290458585E+03  0.31918880919E+03  0.12500000000E+03 0.  0.
         25    1    1    2    0    0 -0.11209003723E+03 -0.82672967277E+02 -0.48314100353E+03  0.51812085970E+03  0.12500000000E+03 0.  0.
</event>
<event>
 5    0  0.5597833E-005  0.2079065E+03  0.7546771E-02  0.1143235E+00
         21   -1    0    0  502  501  0.00000000000E+00  0.00000000000E+00  0.56760706292E+03  0.56760706292E+03  0.00000000000E+00 0.  1.
         21   -1    0    0  501  502 -0.00000000000E+00 -0.00000000000E+00 -0.76153264744E+02  0.76153264744E+02  0.00000000000E+00 0.  1.
         25    1    1    2    0    0  0.24428772968E+01 -0.61202315326E+02  0.10970281862E+03  0.17723261400E+03  0.12500000000E+03 0.  0.
         25    1    1    2    0    0  0.10982482835E+02  0.44748312714E+01  0.22558253845E+03  0.25817265676E+03  0.12500000000E+03 0.  0.
         25    1    1    2    0    0 -0.13425360132E+02  0.56727484055E+02  0.15616844111E+03  0.20835505691E+03  0.12500000000E+03 0.  0.
</event>
<event>
 5    0  0.5597833E-005  0.2979400E+03  0.7546771E-02  0.1086275E+00
         21   -1    0    0  502  501  0.00000000000E+00  0.00000000000E+00  0.18434948658E+03  0.18434948658E+03  0.00000000000E+00 0.  1.
         21   -1    0    0  501  502 -0.00000000000E+00 -0.00000000000E+00 -0.48152149530E+03  0.48152149530E+03  0.00000000000E+00 0.  1.
         25    1    1    2    0    0 -0.40984283613E+02  0.10166249418E+03 -0.83023754632E+02  0.18583034752E+03  0.12500000000E+03 0.  0.
         25    1    1    2    0    0 -0.27180132191E+02  0.23813729686E+02  0.62663252318E+02  0.14442138518E+03  0.12500000000E+03 0.  0.
         25    1    1    2    0    0  0.68164415804E+02 -0.12547622387E+03 -0.27681150641E+03  0.33561924918E+03  0.12500000000E+03 0.  0.
</event>
<event>
 5    0  0.5597833E-005  0.5757490E+03  0.7546771E-02  0.9957037E-01
         21   -1    0    0  502  501  0.00000000000E+00  0.00000000000E+00  0.35844801542E+03  0.35844801542E+03  0.00000000000E+00 0.  1.
         21   -1    0    0  501  502 -0.00000000000E+00 -0.00000000000E+00 -0.92478391631E+03  0.92478391631E+03  0.00000000000E+00 0.  1.
         25    1    1    2    0    0 -0.32184883591E+03  0.11777007687E+02  0.15253205192E+03  0.37764586315E+03  0.12500000000E+03 0.  0.
         25    1    1    2    0    0  0.15777991244E+03 -0.15208745195E+03 -0.17443080519E+03  0.30671843702E+03  0.12500000000E+03 0.  0.
         25    1    1    2    0    0  0.16406892347E+03  0.14031044426E+03 -0.54443714763E+03  0.59886763157E+03  0.12500000000E+03 0.  0.
</event>
<event>
 5    0  0.5597833E-005  0.2761321E+03  0.7546771E-02  0.1097820E+00
         21   -1    0    0  502  501  0.00000000000E+00  0.00000000000E+00  0.15328367099E+04  0.15328367099E+04  0.00000000000E+00 0.  1.
         21   -1    0    0  501  502 -0.00000000000E+00 -0.00000000000E+00 -0.49743679303E+02  0.49743679303E+02  0.00000000000E+00 0.  1.
         25    1    1    2    0    0 -0.67297587759E+01  0.67435209948E+02  0.12376691340E+03  0.18851006882E+03  0.12500000000E+03 0.  0.
         25    1    1    2    0    0  0.14693576349E+02 -0.79593940891E+02  0.40551875425E+03  0.43199717205E+03  0.12500000000E+03 0.  0.
         25    1    1    2    0    0 -0.79638175727E+01  0.12158730943E+02  0.95380736295E+03  0.96207314834E+03  0.12500000000E+03 0.  0.
</event>
<event>
 5    0  0.5597833E-005  0.2904467E+03  0.7546771E-02  0.1090116E+00
         21   -1    0    0  502  501  0.00000000000E+00  0.00000000000E+00  0.26731428798E+03  0.26731428798E+03  0.00000000000E+00 0. -1.
         21   -1    0    0  501  502 -0.00000000000E+00 -0.00000000000E+00 -0.31558088545E+03  0.31558088545E+03  0.00000000000E+00 0. -1.
         25    1    1    2    0    0  0.18243066932E+02  0.22767866274E+02 -0.10037647084E+02  0.12875146440E+03  0.12500000000E+03 0.  0.
         25    1    1    2    0    0 -0.15729934626E+03 -0.85476110846E+02  0.69862441577E+02  0.22924879630E+03  0.12500000000E+03 0.  0.
         25    1    1    2    0    0  0.13905627933E+03  0.62708244571E+02 -0.10809139196E+03  0.22489491274E+03  0.12500000000E+03 0.  0.
</event>
<event>
 5    0  0.5597833E-005  0.4801620E+03  0.7546771E-02  0.1019091E+00
         21   -1    0    0  502  501  0.00000000000E+00  0.00000000000E+00  0.58100039275E+03  0.58100039275E+03  0.00000000000E+00 0.  1.
         21   -1    0    0  501  502 -0.00000000000E+00 -0.00000000000E+00 -0.39682513473E+03  0.39682513473E+03  0.00000000000E+00 0.  1.
         25    1    1    2    0    0  0.22678898132E+03 -0.25478938267E+03 -0.96277352366E+02  0.37582602378E+03  0.12500000000E+03 0.  0.
         25    1    1    2    0    0  0.61296770798E+01  0.23658319930E+03  0.14577275106E+03  0.30476856479E+03  0.12500000000E+03 0.  0.
         25    1    1    2    0    0 -0.23291865840E+03  0.18206183369E+02  0.13467985933E+03  0.29723093892E+03  0.12500000000E+03 0.  0.
</event>
<event>
 5    0  0.5597833E-005  0.3292033E+03  0.7546771E-02  0.1071490E+00
         21   -1    0    0  502  501  0.00000000000E+00  0.00000000000E+00  0.31191832646E+03  0.31191832646E+03  0.00000000000E+00 0. -1.
         21   -1    0    0  501  502 -0.00000000000E+00 -0.00000000000E+00 -0.34744615952E+03  0.34744615952E+03  0.00000000000E+00 0. -1.
         25    1    1    2    0    0  0.25712404160E+02  0.32957156523E+02  0.65572121998E+02  0.14721414700E+03  0.12500000000E+03 0.  0.
         25    1    1    2    0    0  0.16569038021E+03 -0.13246907076E+03 -0.91388027377E+02  0.26263687546E+03  0.12500000000E+03 0.  0.
         25    1    1    2    0    0 -0.19140278437E+03  0.99511914237E+02 -0.97119276777E+01  0.24951346352E+03  0.12500000000E+03 0.  0.
</event>
<event>
 5    0  0.5597833E-005  0.2620093E+03  0.7546771E-02  0.1105942E+00
         21   -1    0    0  502  501  0.00000000000E+00  0.00000000000E+00  0.13002759947E+04  0.13002759947E+04  0.00000000000E+00 0. -1.
         21   -1    0    0  501  502 -0.00000000000E+00 -0.00000000000E+00 -0.52795604916E+02  0.52795604916E+02  0.00000000000E+00 0. -1.
         25    1    1    2    0    0  0.10001802134E+03  0.12432529581E+03  0.52001090991E+03  0.55811892120E+03  0.12500000000E+03 0.  0.
         25    1    1    2    0    0 -0.67249255955E+02 -0.12304567173E+03  0.37238434884E+03  0.41708248946E+03  0.12500000000E+03 0.  0.
         25    1    1    2    0    0 -0.32768765381E+02 -0.12796240756E+01  0.35508513108E+03  0.37787018900E+03  0.12500000000E+03 0.  0.
</event>
<event>
 5    0  0.5597833E-005  0.2346635E+03  0.7546771E-02  0.1123400E+00
         21   -1    0    0  502  501  0.00000000000E+00  0.00000000000E+00  0.71592205044E+02  0.71592205044E+02  0.00000000000E+00 0. -1.
         21   -1    0    0  501  502 -0.00000000000E+00 -0.00000000000E+00 -0.76917518086E+03  0.76917518086E+03  0.00000000000E+00 0. -1.
         25    1    1    2    0    0  0.40882330477E+02  0.40242389828E+02 -0.10863005423E+03  0.17526067319E+03  0.12500000000E+03 0.  0.
         25    1    1    2    0    0 -0.83677002760E+02 -0.80800955971E+02 -0.29962053063E+03  0.34485953322E+03  0.12500000000E+03 0.  0.
         25    1    1    2    0    0  0.42794672283E+02  0.40558566143E+02 -0.28933239096E+03  0.32064717950E+03  0.12500000000E+03 0.  0.
</event>
<event>
 5    0  0.5597833E-005  0.2110775E+03  0.7546771E-02  0.1140716E+00
         21   -1    0    0  502  501  0.00000000000E+00  0.00000000000E+00  0.12444057862E+03  0.12444057862E+03  0.00000000000E+00 0.  1.
         21   -1    0    0  501  502 -0.00000000000E+00 -0.00000000000E+00 -0.35803187715E+03  0.35803187715E+03  0.00000000000E+00 0.  1.
         25    1    1    2    0    0  0.31114902483E+02  0.28497957497E+02 -0.11256176195E+03  0.17342266574E+03  0.12500000000E+03 0.  0.
         25    1    1    2    0    0  0.94701124471E+01 -0.59112776064E+02 -0.19033910427E+02  0.13989743768E+03  0.12500000000E+03 0.  0.
         25    1    1    2    0    0 -0.40585014930E+02  0.30614818567E+02 -0.10199562615E+03  0.16915235235E+03  0.12500000000E+03 0.  0.
</event>
<event>
 5    0  0.5597833E-005  0.4026368E+03  0.7546771E-02  0.1042870E+00
         21   -1    0    0  502  501  0.00000000000E+00  0.00000000000E+00  0.16142789459E+04  0.16142789459E+04  0.00000000000E+00 0.  1.
         21   -1    0    0  501  502 -0.00000000000E+00 -0.00000000000E+00 -0.10042650781E+03  0.10042650781E+03  0.00000000000E+00 0.  1.
         25    1    1    2    0    0  0.29503816048E+03  0.53778845669E+02  0.85226471566E+03  0.91209639071E+03  0.12500000000E+03 0.  0.
         25    1    1    2    0    0 -0.24819738875E+03 -0.86001968346E+02  0.30980371685E+03  0.42497249948E+03  0.12500000000E+03 0.  0.
         25    1    1    2    0    0 -0.46840771725E+02  0.32223122677E+02  0.35178400559E+03  0.37763656353E+03  0.12500000000E+03 0.  0.
</event>
<event>
 5    0  0.5597833E-005  0.2895483E+03  0.7546771E-02  0.1090585E+00
         21   -1    0    0  502  501  0.00000000000E+00  0.00000000000E+00  0.99927232919E+02  0.99927232919E+02  0.00000000000E+00 0. -1.
         21   -1    0    0  501  502 -0.00000000000E+00 -0.00000000000E+00 -0.83899265649E+03  0.83899265649E+03  0.00000000000E+00 0. -1.
         25    1    1    2    0    0  0.12233627431E+03  0.12036448360E+03 -0.49799650893E+03  0.54136798559E+03  0.12500000000E+03 0.  0.
         25    1    1    2    0    0 -0.10372373822E+03 -0.67260605860E+02 -0.16329829039E+03  0.23994569097E+03  0.12500000000E+03 0.  0.
         25    1    1    2    0    0 -0.18612536088E+02 -0.53103877738E+02 -0.77770624255E+02  0.15760621285E+03  0.12500000000E+03 0.  0.
</event>
<event>
 5    0  0.5597833E-005  0.4313321E+03  0.7546771E-02  0.1033440E+00
         21   -1    0    0  502  501  0.00000000000E+00  0.00000000000E+00  0.82066019054E+02  0.82066019054E+02  0.00000000000E+00 0.  1.
         21   -1    0    0  501  502 -0.00000000000E+00 -0.00000000000E+00 -0.22670456152E+04  0.22670456152E+04  0.00000000000E+00 0.  1.
         25    1    1    2    0    0  0.19639285545E+03  0.19413837041E+03 -0.14696322839E+04  0.15005678627E+04  0.12500000000E+03 0.  0.
         25    1    1    2    0    0  0.38767237307E+02 -0.11118446151E+03 -0.33990776821E+03  0.38082433491E+03  0.12500000000E+03 0.  0.
         25    1    1    2    0    0 -0.23516009276E+03 -0.82953908903E+02 -0.37543954399E+03  0.46771943665E+03  0.12500000000E+03 0.  0.
</event>
<event>
 5    0  0.5597833E-005  0.2605746E+03  0.7546771E-02  0.1106799E+00
         21   -1    0    0  502  501  0.00000000000E+00  0.00000000000E+00  0.23509049985E+03  0.23509049985E+03  0.00000000000E+00 0.  1.
         21   -1    0    0  501  502 -0.00000000000E+00 -0.00000000000E+00 -0.28882110338E+03  0.28882110338E+03  0.00000000000E+00 0.  1.
         25    1    1    2    0    0  0.17910964080E+02  0.30796104101E+02 -0.12965300690E+02  0.13062274566E+03  0.12500000000E+03 0.  0.
         25    1    1    2    0    0  0.11587513220E+03 -0.86991596313E+02  0.19879506964E+02  0.19239225267E+03  0.12500000000E+03 0.  0.
         25    1    1    2    0    0 -0.13378609628E+03  0.56195492212E+02 -0.60644809807E+02  0.20089660490E+03  0.12500000000E+03 0.  0.
</event>
<event>
 5    0  0.5597833E-005  0.2889790E+03  0.7546771E-02  0.1090883E+00
         21   -1    0    0  502  501  0.00000000000E+00  0.00000000000E+00  0.47976897416E+03  0.47976897416E+03  0.00000000000E+00 0. -1.
         21   -1    0    0  501  502 -0.00000000000E+00 -0.00000000000E+00 -0.17406059316E+03  0.17406059316E+03  0.00000000000E+00 0. -1.
         25    1    1    2    0    0 -0.20217568724E+03  0.27879284836E+02  0.11666044195E+03  0.26624597978E+03  0.12500000000E+03 0.  0.
         25    1    1    2    0    0  0.94393699495E+02 -0.12547958374E+02  0.34350413261E+02  0.16084953421E+03  0.12500000000E+03 0.  0.
         25    1    1    2    0    0  0.10778198774E+03 -0.15331326462E+02  0.15469752580E+03  0.22673405333E+03  0.12500000000E+03 0.  0.
</event>
<event>
 5    0  0.5597833E-005  0.2098550E+03  0.7546771E-02  0.1141681E+00
         21   -1    0    0  502  501  0.00000000000E+00  0.00000000000E+00  0.43377793832E+02  0.43377793832E+02  0.00000000000E+00 0.  1.
         21   -1    0    0  501  502 -0.00000000000E+00 -0.00000000000E+00 -0.10152458558E+04  0.10152458558E+04  0.00000000000E+00 0.  1.
         25    1    1    2    0    0 -0.42152543350E+02 -0.18834176319E+01 -0.31602547326E+03  0.34245800315E+03  0.12500000000E+03 0.  0.
         25    1    1    2    0    0  0.32827231584E+02 -0.65571806603E+02 -0.35019407950E+03  0.37899628266E+03  0.12500000000E+03 0.  0.
         25    1    1    2    0    0  0.93253117662E+01  0.67455224235E+02 -0.30564850920E+03  0.33716936381E+03  0.12500000000E+03 0.  0.
</event>
<event>
 5    0  0.5597833E-005  0.3209167E+03  0.7546771E-02  0.1075228E+00
         21   -1    0    0  502  501  0.00000000000E+00  0.00000000000E+00  0.21379318352E+03  0.21379318352E+03  0.00000000000E+00 0.  1.
         21   -1    0    0  501  502 -0.00000000000E+00 -0.00000000000E+00 -0.48171560494E+03  0.48171560494E+03  0.00000000000E+00 0.  1.
         25    1    1    2    0    0 -0.19918285689E+03 -0.26837496293E+02 -0.39002991635E+02  0.23987558243E+03  0.12500000000E+03 0.  0.
         25    1    1    2    0    0  0.27592611875E+02 -0.20160677959E+02  0.13146216453E+02  0.13025217147E+03  0.12500000000E+03 0.  0.
         25    1    1    2    0    0  0.17159024502E+03  0.46998174252E+02 -0.24206564623E+03  0.32538103457E+03  0.12500000000E+03 0.  0.
</event>
<event>
 5    0  0.5597833E-005  0.3277400E+03  0.7546771E-02  0.1072141E+00
         21   -1    0    0  502  501  0.00000000000E+00  0.00000000000E+00  0.20700054186E+04  0.20700054186E+04  0.00000000000E+00 0. -1.
         21   -1    0    0  501  502 -0.00000000000E+00 -0.00000000000E+00 -0.51890445179E+02  0.51890445179E+02  0.00000000000E+00 0. -1.
         25    1    1    2    0    0 -0.73713148492E+02  0.13834089177E+03  0.76026227530E+03  0.78625413057E+03  0.12500000000E+03 0.  0.
         25    1    1    2    0    0  0.13594728502E+03 -0.21862341993E+03  0.74437298008E+03  0.79749231815E+03  0.12500000000E+03 0.  0.
         25    1    1    2    0    0 -0.62234136525E+02  0.80282528157E+02  0.51347971802E+03  0.53814941503E+03  0.12500000000E+03 0.  0.
</event>
<event>
 5    0  0.5597833E-005  0.2991583E+03  0.7546771E-02  0.1085662E+00
         21   -1    0    0  502  501  0.00000000000E+00  0.00000000000E+00  0.43813327849E+03  0.43813327849E+03  0.00000000000E+00 0. -1.
         21   -1    0    0  501  502 -0.00000000000E+00 -0.00000000000E+00 -0.20426592768E+03  0.20426592768E+03  0.00000000000E+00 0. -1.
         25    1    1    2    0    0 -0.58291937925E+02  0.44155833623E+02  0.47462695114E+02  0.15239880281E+03  0.12500000000E+03 0.  0.
         25    1    1    2    0    0 -0.74061513589E+02 -0.67202811514E+02  0.24908184286E+03  0.29608797698E+03  0.12500000000E+03 0.  0.
         25    1    1    2    0    0  0.13235345151E+03  0.23046977892E+02 -0.62677187158E+02  0.19391242639E+03  0.12500000000E+03 0.  0.
</event>
<event>
 5    0  0.5597833E-005  0.2483560E+03  0.7546771E-02  0.1114348E+00
         21   -1    0    0  502  501  0.00000000000E+00  0.00000000000E+00  0.95598066449E+03  0.95598066449E+03  0.00000000000E+00 0.  1.
         21   -1    0    0  501  502 -0.00000000000E+00 -0.00000000000E+00 -0.64520876893E+02  0.64520876893E+02  0.00000000000E+00 0.  1.
         25    1    1    2    0    0 -0.88721835668E+01  0.90258216906E+02  0.61375361488E+03  0.63288526696E+03  0.12500000000E+03 0.  0.
         25    1    1    2    0    0  0.12430659348E+02 -0.29247338729E+02  0.15888950062E+03  0.20464799418E+03  0.12500000000E+03 0.  0.
         25    1    1    2    0    0 -0.35584757815E+01 -0.61010878177E+02  0.11881667210E+03  0.18296828024E+03  0.12500000000E+03 0.  0.
</event>
<event>
 5    0  0.5597833E-005  0.2684402E+03  0.7546771E-02  0.1102176E+00
         21   -1    0    0  502  501  0.00000000000E+00  0.00000000000E+00  0.18182681037E+03  0.18182681037E+03  0.00000000000E+00 0. -1.
         21   -1    0    0  501  502 -0.00000000000E+00 -0.00000000000E+00 -0.39631196922E+03  0.39631196922E+03  0.00000000000E+00 0. -1.
         25    1    1    2    0    0  0.93981431794E+02 -0.74129381791E+02 -0.84968892727E+02  0.19280141985E+03  0.12500000000E+03 0.  0.
         25    1    1    2    0    0  0.70646547429E+02  0.52634918303E+02 -0.34212828776E+02  0.15670637173E+03  0.12500000000E+03 0.  0.
         25    1    1    2    0    0 -0.16462797922E+03  0.21494463488E+02 -0.95303437353E+02  0.22863098800E+03  0.12500000000E+03 0.  0.
</event>
<event>
 5    0  0.5597833E-005  0.4322618E+03  0.7546771E-02  0.1033148E+00
         21   -1    0    0  502  501  0.00000000000E+00  0.00000000000E+00  0.18153691377E+03  0.18153691377E+03  0.00000000000E+00 0. -1.
         21   -1    0    0  501  502 -0.00000000000E+00 -0.00000000000E+00 -0.10292688714E+04  0.10292688714E+04  0.00000000000E+00 0. -1.
         25    1    1    2    0    0  0.91924390915E+02 -0.21087225302E+03 -0.19816848499E+03  0.32834882241E+03  0.12500000000E+03 0.  0.
         25    1    1    2    0    0 -0.23692603185E+02  0.34689782145E+03 -0.27965352151E+03  0.46339025677E+03  0.12500000000E+03 0.  0.
         25    1    1    2    0    0 -0.68231787729E+02 -0.13602556843E+03 -0.36990995115E+03  0.41906670601E+03  0.12500000000E+03 0.  0.
</event>
<event>
 5    0  0.5597833E-005  0.3469247E+03  0.7546771E-02  0.1063884E+00
         21   -1    0    0  502  501  0.00000000000E+00  0.00000000000E+00  0.97354642055E+03  0.97354642055E+03  0.00000000000E+00 0.  1.
         21   -1    0    0  501  502 -0.00000000000E+00 -0.00000000000E+00 -0.12362712164E+03  0.12362712164E+03  0.00000000000E+00 0.  1.
         25    1    1    2    0    0  0.47489103175E+02 -0.26474047972E+03  0.24536493967E+03  0.38493076019E+03  0.12500000000E+03 0.  0.
         25    1    1    2    0    0 -0.52548238645E+02  0.14142870272E+03  0.37596872064E+03  0.42395857609E+03  0.12500000000E+03 0.  0.
         25    1    1    2    0    0  0.50591354701E+01  0.12331177701E+03  0.22858563859E+03  0.28828420590E+03  0.12500000000E+03 0.  0.
</event>
<event>
 5    0  0.5597833E-005  0.3418808E+03  0.7546771E-02  0.1065998E+00
         21   -1    0    0  502  501  0.00000000000E+00  0.00000000000E+00  0.85165118012E+02  0.85165118012E+02  0.00000000000E+00 0.  1.
         21   -1    0    0  501  502 -0.00000000000E+00 -0.00000000000E+00 -0.13724223186E+04  0.13724223186E+04  0.00000000000E+00 0.  1.
         25    1    1    2    0    0  0.49918076954E+02  0.67111702965E+02 -0.66173819891E+03  0.67861494162E+03  0.12500000000E+03 0.  0.
         25    1    1    2    0    0 -0.13568926472E+03  0.54675716522E+02 -0.52690079330E+03  0.56093712349E+03  0.12500000000E+03 0.  0.
         25    1    1    2    0    0  0.85771187763E+02 -0.12178741949E+03 -0.98618208346E+02  0.21803537147E+03  0.12500000000E+03 0.  0.
</event>
<event>
 5    0  0.5597833E-005  0.4752260E+03  0.7546771E-02  0.1020456E+00
         21   -1    0    0  502  501  0.00000000000E+00  0.00000000000E+00  0.22728465439E+03  0.22728465439E+03  0.00000000000E+00 0. -1.
         21   -1    0    0  501  502 -0.00000000000E+00 -0.00000000000E+00 -0.99364265741E+03  0.99364265741E+03  0.00000000000E+00 0. -1.
         25    1    1    2    0    0 -0.11127238929E+03 -0.28524668151E+03 -0.26972395713E+02  0.33181278466E+03  0.12500000000E+03 0.  0.
         25    1    1    2    0    0  0.13732896196E+03  0.30338516624E+03 -0.61186133145E+03  0.70774366250E+03  0.12500000000E+03 0.  0.
         25    1    1    2    0    0 -0.26056572670E+02 -0.18138484730E+02 -0.12752427586E+03  0.18137086464E+03  0.12500000000E+03 0.  0.
</event>
<event>
 5    0  0.5597833E-005  0.2145910E+03  0.7546771E-02  0.1137981E+00
         21   -1    0    0  502  501  0.00000000000E+00  0.00000000000E+00  0.95459549413E+02  0.95459549413E+02  0.00000000000E+00 0. -1.
         21   -1    0    0  501  502 -0.00000000000E+00 -0.00000000000E+00 -0.48239585067E+03  0.48239585067E+03  0.00000000000E+00 0. -1.
         25    1    1    2    0    0 -0.60668577951E+01 -0.14082261801E+02 -0.12203972824E+03  0.17536764847E+03  0.12500000000E+03 0.  0.
         25    1    1    2    0    0 -0.78181118721E+02  0.27557241335E+02 -0.11058777538E+03  0.18635006021E+03  0.12500000000E+03 0.  0.
         25    1    1    2    0    0  0.84247976516E+02 -0.13474979534E+02 -0.15430879763E+03  0.21613769141E+03  0.12500000000E+03 0.  0.
</event>
<event>
 5    0  0.5597833E-005  0.3417420E+03  0.7546771E-02  0.1066056E+00
         21   -1    0    0  502  501  0.00000000000E+00  0.00000000000E+00  0.14113784319E+03  0.14113784319E+03  0.00000000000E+00 0.  1.
         21   -1    0    0  501  502 -0.00000000000E+00 -0.00000000000E+00 -0.82747170507E+03  0.82747170507E+03  0.00000000000E+00 0. -1.
         25    1    1    2    0    0  0.61324806157E+02 -0.23337735848E+03 -0.14092150231E+03  0.30612022657E+03  0.12500000000E+03 0.  0.
         25    1    1    2    0    0 -0.57958447245E+02  0.15193609193E+03 -0.42060108422E+03  0.46794660987E+03  0.12500000000E+03 0.  0.
         25    1    1    2    0    0 -0.33663589111E+01  0.81441266542E+02 -0.12481127536E+03  0.19454271182E+03  0.12500000000E+03 0.  0.
</event>
<event>
 5    0  0.5597833E-005  0.3379724E+03  0.7546771E-02  0.1067663E+00
         21   -1    0    0  502  501  0.00000000000E+00  0.00000000000E+00  0.19047642148E+04  0.19047642148E+04  0.00000000000E+00 0.  1.
         21   -1    0    0  501  502 -0.00000000000E+00 -0.00000000000E+00 -0.59968222562E+02  0.59968222562E+02  0.00000000000E+00 0.  1.
         25    1    1    2    0    0  0.94219839935E+02  0.11887264062E+03  0.38343749266E+03  0.43087979032E+03  0.12500000000E+03 0.  0.
         25    1    1    2    0    0  0.75359475096E+02 -0.10058587995E+03  0.11077167409E+04  0.11218101211E+04  0.12500000000E+03 0.  0.
         25    1    1    2    0    0 -0.16957931503E+03 -0.18286760668E+02  0.35364175864E+03  0.41204252591E+03  0.12500000000E+03 0.  0.
</event>
<event>
 5    0  0.5597833E-005  0.2308023E+03  0.7546771E-02  0.1126076E+00
         21   -1    0    0  502  501  0.00000000000E+00  0.00000000000E+00  0.32274784239E+03  0.32274784239E+03  0.00000000000E+00 0.  1.
         21   -1    0    0  501  502 -0.00000000000E+00 -0.00000000000E+00 -0.16505049050E+03  0.16505049050E+03  0.00000000000E+00 0.  1.
         25    1    1    2    0    0  0.44486370093E+02  0.55655073276E+02  0.13148458338E+03  0.19490951740E+03  0.12500000000E+03 0.  0.
         25    1    1    2    0    0 -0.44808893929E+02  0.28522647896E+02 -0.15027322759E+02  0.13664625442E+03  0.12500000000E+03 0.  0.
         25    1    1    2    0    0  0.32252383677E+00 -0.84177721172E+02  0.41240091270E+02  0.15624256108E+03  0.12500000000E+03 0.  0.
</event>
<event>
 5    0  0.5597833E-005  0.3349488E+03  0.7546771E-02  0.1068968E+00
         21   -1    0    0  502  501  0.00000000000E+00  0.00000000000E+00  0.17300691955E+04  0.17300691955E+04  0.00000000000E+00 0.  1.
         21   -1    0    0  501  502 -0.00000000000E+00 -0.00000000000E+00 -0.64847538302E+02  0.64847538302E+02  0.00000000000E+00 0.  1.
         25    1    1    2    0    0 -0.11695071877E+03  0.60928378947E+02  0.55252223893E+03  0.58163181008E+03  0.12500000000E+03 0.  0.
         25    1    1    2    0    0 -0.86960810130E+02  0.30118256009E+02  0.77046521458E+03  0.78594588791E+03  0.12500000000E+03 0.  0.
         25    1    1    2    0    0  0.20391152890E+03 -0.91046634956E+02  0.34223420367E+03  0.42733903580E+03  0.12500000000E+03 0.  0.
</event>
<event>
 5    0  0.5597833E-005  0.4767225E+03  0.7546771E-02  0.1020040E+00
         21   -1    0    0  502  501  0.00000000000E+00  0.00000000000E+00  0.27932036408E+04  0.27932036408E+04  0.00000000000E+00 0.  1.
         21   -1    0    0  501  502 -0.00000000000E+00 -0.00000000000E+00 -0.81363342190E+02  0.81363342190E+02  0.00000000000E+00 0.  1.
         25    1    1    2    0    0 -0.84552234734E+02  0.18205664533E+03  0.16087656629E+04  0.16260521703E+04  0.12500000000E+03 0.  0.
         25    1    1    2    0    0  0.23779057810E+03 -0.13380502566E+02  0.29289745510E+03  0.39766482883E+03  0.12500000000E+03 0.  0.
         25    1    1    2    0    0 -0.15323834336E+03 -0.16867614276E+03  0.81017718061E+03  0.85084998384E+03  0.12500000000E+03 0.  0.
</event>
<event>
 5    0  0.5597833E-005  0.2717095E+03  0.7546771E-02  0.1100305E+00
         21   -1    0    0  502  501  0.00000000000E+00  0.00000000000E+00  0.11428379283E+04  0.11428379283E+04  0.00000000000E+00 0. -1.
         21   -1    0    0  501  502 -0.00000000000E+00 -0.00000000000E+00 -0.64598864193E+02  0.64598864193E+02  0.00000000000E+00 0. -1.
         25    1    1    2    0    0 -0.12316769525E+03  0.15633854982E+02  0.21688353322E+03  0.27942470463E+03  0.12500000000E+03 0.  0.
         25    1    1    2    0    0  0.13950510003E+03  0.58082088496E+02  0.55502134949E+03  0.58865006611E+03  0.12500000000E+03 0.  0.
         25    1    1    2    0    0 -0.16337404779E+02 -0.73715943477E+02  0.30633418136E+03  0.33936202172E+03  0.12500000000E+03 0.  0.
</event>
<event>
 5    0  0.5597833E-005  0.3256581E+03  0.7546771E-02  0.1073074E+00
         21   -1    0    0  502  501  0.00000000000E+00  0.00000000000E+00  0.61011093334E+03  0.61011093334E+03  0.00000000000E+00 0. -1.
         21   -1    0    0  501  502 -0.00000000000E+00 -0.00000000000E+00 -0.17382610909E+03  0.17382610909E+03  0.00000000000E+00 0. -1.
         25    1    1    2    0    0 -0.85073108040E+02 -0.54518694880E+02  0.16820211905E+03  0.23265140158E+03  0.12500000000E+03 0.  0.
         25    1    1    2    0    0  0.14763922901E+03  0.10486258853E+03 -0.26228034588E+02  0.22159967106E+03  0.12500000000E+03 0.  0.
         25    1    1    2    0    0 -0.62566120971E+02 -0.50343893647E+02  0.29431073979E+03  0.32968596979E+03  0.12500000000E+03 0.  0.
</event>
<event>
 5    0  0.5597833E-005  0.2913928E+03  0.7546771E-02  0.1089624E+00
         21   -1    0    0  502  501  0.00000000000E+00  0.00000000000E+00  0.82270327467E+03  0.82270327467E+03  0.00000000000E+00 0.  1.
         21   -1    0    0  501  502 -0.00000000000E+00 -0.00000000000E+00 -0.10320822069E+03  0.10320822069E+03  0.00000000000E+00 0.  1.
         25    1    1    2    0    0  0.48892502466E+02  0.12119898805E+02  0.38288177485E+03  0.40590740602E+03  0.12500000000E+03 0.  0.
         25    1    1    2    0    0  0.14647370305E+02 -0.12200177162E+03  0.49543124975E+02  0.18214966091E+03  0.12500000000E+03 0.  0.
         25    1    1    2    0    0 -0.63539872772E+02  0.10988187282E+03  0.28707015416E+03  0.33785442843E+03  0.12500000000E+03 0.  0.
</event>
<event>
 5    0  0.5597833E-005  0.5136775E+03  0.7546771E-02  0.1010269E+00
         21   -1    0    0  502  501  0.00000000000E+00  0.00000000000E+00  0.11341612163E+03  0.11341612163E+03  0.00000000000E+00 0. -1.
         21   -1    0    0  501  502 -0.00000000000E+00 -0.00000000000E+00 -0.23265173964E+04  0.23265173964E+04  0.00000000000E+00 0. -1.
         25    1    1    2    0    0 -0.21117343200E+02 -0.20556351124E+03 -0.39797803915E+03  0.46552531508E+03  0.12500000000E+03 0.  0.
         25    1    1    2    0    0  0.53181777315E+02 -0.25624161779E+03 -0.55644680617E+03  0.62749192523E+03  0.12500000000E+03 0.  0.
         25    1    1    2    0    0 -0.32064434114E+02  0.46180512903E+03 -0.12586764294E+04  0.13469162777E+04  0.12500000000E+03 0.  0.
</event>
<event>
 5    0  0.5597833E-005  0.3800151E+03  0.7546771E-02  0.1050928E+00
         21   -1    0    0  502  501  0.00000000000E+00  0.00000000000E+00  0.73768520829E+03  0.73768520829E+03  0.00000000000E+00 0. -1.
         21   -1    0    0  501  502 -0.00000000000E+00 -0.00000000000E+00 -0.19576299032E+03  0.19576299032E+03  0.00000000000E+00 0. -1.
         25    1    1    2    0    0  0.24519195788E+02  0.25038774331E+03  0.17943052618E+03  0.33333995663E+03  0.12500000000E+03 0.  0.
         25    1    1    2    0    0  0.27521800946E+02 -0.26490077939E+03  0.35864738799E+03  0.46387802423E+03  0.12500000000E+03 0.  0.
         25    1    1    2    0    0 -0.52040996733E+02  0.14513036086E+02  0.38443038064E+01  0.13623021775E+03  0.12500000000E+03 0.  0.
</event>
<event>
 5    0  0.5597833E-005  0.3400544E+03  0.7546771E-02  0.1066773E+00
         21   -1    0    0  502  501  0.00000000000E+00  0.00000000000E+00  0.79132495964E+02  0.79132495964E+02  0.00000000000E+00 0.  1.
         21   -1    0    0  501  502 -0.00000000000E+00 -0.00000000000E+00 -0.14613086200E+04  0.14613086200E+04  0.00000000000E+00 0.  1.
         25    1    1    2    0    0 -0.19367883239E+02  0.97064419103E+02 -0.66041005301E+03  0.67938432015E+03  0.12500000000E+03 0.  0.
         25    1    1    2    0    0 -0.44657277035E+02 -0.18906466062E+03 -0.17704671214E+03  0.29105026467E+03  0.12500000000E+03 0.  0.
         25    1    1    2    0    0  0.64025160274E+02  0.92000241519E+02 -0.54471935888E+03  0.57000653113E+03  0.12500000000E+03 0.  0.
</event>
<event>
 5    0  0.5597833E-005  0.2707886E+03  0.7546771E-02  0.1100829E+00
         21   -1    0    0  502  501  0.00000000000E+00  0.00000000000E+00  0.40769969634E+02  0.40769969634E+02  0.00000000000E+00 0.  1.
         21   -1    0    0  501  502 -0.00000000000E+00 -0.00000000000E+00 -0.17985414214E+04  0.17985414214E+04  0.00000000000E+00 0.  1.
         25    1    1    2    0    0 -0.59459886596E+02  0.13587892100E+03 -0.64547816579E+03  0.67399230100E+03  0.12500000000E+03 0.  0.
         25    1    1    2    0    0  0.97176442740E+02 -0.13595590561E+03 -0.55511554792E+03  0.59304767164E+03  0.12500000000E+03 0.  0.
         25    1    1    2    0    0 -0.37716556145E+02  0.76984611187E-01 -0.55717773805E+03  0.57227141839E+03  0.12500000000E+03 0.  0.
</event>
<event>
 5    0  0.5597833E-005  0.2301256E+03  0.7546771E-02  0.1126551E+00
         21   -1    0    0  502  501  0.00000000000E+00  0.00000000000E+00  0.46369635645E+03  0.46369635645E+03  0.00000000000E+00 0. -1.
         21   -1    0    0  501  502 -0.00000000000E+00 -0.00000000000E+00 -0.11420795825E+03  0.11420795825E+03  0.00000000000E+00 0. -1.
         25    1    1    2    0    0 -0.59821821118E+02 -0.48281542879E+01  0.21905235908E+03  0.25925064585E+03  0.12500000000E+03 0.  0.
         25    1    1    2    0    0  0.84942355988E+02 -0.29535225165E+02  0.41617665728E+02  0.15951352127E+03  0.12500000000E+03 0.  0.
         25    1    1    2    0    0 -0.25120534870E+02  0.34363379453E+02  0.88818373392E+02  0.15914014758E+03  0.12500000000E+03 0.  0.
</event>
<event>
 5    0  0.5597833E-005  0.3222002E+03  0.7546771E-02  0.1074641E+00
         21   -1    0    0  502  501  0.00000000000E+00  0.00000000000E+00  0.33304989475E+03  0.33304989475E+03  0.00000000000E+00 0.  1.
         21   -1    0    0  501  502 -0.00000000000E+00 -0.00000000000E+00 -0.31170385758E+03  0.31170385758E+03  0.00000000000E+00 0.  1.
         25    1    1    2    0    0 -0.16927062085E+03  0.72435106365E+02  0.61144207060E+01  0.22262473775E+03  0.12500000000E+03 0.  0.
         25    1    1    2    0    0  0.15401810380E+03  0.57341124387E+02 -0.75451048723E+02  0.21983503269E+03  0.12500000000E+03 0.  0.
         25    1    1    2    0    0  0.15252517051E+02 -0.12977623075E+03  0.90682665187E+02  0.20229398189E+03  0.12500000000E+03 0.  0.
</event>
<event>
 5    0  0.5597833E-005  0.2899533E+03  0.7546771E-02  0.1090374E+00
         21   -1    0    0  502  501  0.00000000000E+00  0.00000000000E+00  0.45426349720E+03  0.45426349720E+03  0.00000000000E+00 0.  1.
         21   -1    0    0  501  502 -0.00000000000E+00 -0.00000000000E+00 -0.18507518453E+03  0.18507518453E+03  0.00000000000E+00 0.  1.
         25    1    1    2    0    0  0.69353624616E+02 -0.96628067250E+02  0.17291640575E+03  0.24427851319E+03  0.12500000000E+03 0.  0.
         25    1    1    2    0    0 -0.10405840403E+02  0.27467012224E+02  0.17859209989E+03  0.21996103386E+03  0.12500000000E+03 0.  0.
         25    1    1    2    0    0 -0.58947784213E+02  0.69161055026E+02 -0.82320192968E+02  0.17509913468E+03  0.12500000000E+03 0.  0.
</event>
<event>
 5    0  0.5597833E-005  0.2253531E+03  0.7546771E-02  0.1129954E+00
         21   -1    0    0  502  501  0.00000000000E+00  0.00000000000E+00  0.22823431541E+02  0.22823431541E+02  0.00000000000E+00 0. -1.
         21   -1    0    0  501  502 -0.00000000000E+00 -0.00000000000E+00 -0.22250832030E+04  0.22250832030E+04  0.00000000000E+00 0. -1.
         25    1    1    2    0    0  0.32628768072E+02 -0.25788481670E+02 -0.72966111599E+03  0.74145804094E+03  0.12500000000E+03 0.  0.
         25    1    1    2    0    0 -0.36062620981E+02 -0.50312652309E+02 -0.39401753283E+03  0.41797929589E+03  0.12500000000E+03 0.  0.
         25    1    1    2    0    0  0.34338529086E+01  0.76101133979E+02 -0.10785811226E+04  0.10884692977E+04  0.12500000000E+03 0.  0.
</event>
<event>
 5    0  0.5597833E-005  0.3081730E+03  0.7546771E-02  0.1081225E+00
         21   -1    0    0  502  501  0.00000000000E+00  0.00000000000E+00  0.41292382768E+03  0.41292382768E+03  0.00000000000E+00 0.  1.
         21   -1    0    0  501  502 -0.00000000000E+00 -0.00000000000E+00 -0.22999551075E+03  0.22999551075E+03  0.00000000000E+00 0.  1.
         25    1    1    2    0    0 -0.48993206383E+02 -0.74625718815E+02 -0.49689848930E+01  0.15368481705E+03  0.12500000000E+03 0.  0.
         25    1    1    2    0    0 -0.53724944081E+02  0.12164325722E+03 -0.57692270862E+02  0.19140754886E+03  0.12500000000E+03 0.  0.
         25    1    1    2    0    0  0.10271815046E+03 -0.47017538401E+02  0.24558957269E+03  0.29782697253E+03  0.12500000000E+03 0.  0.
</event>
<event>
 5    0  0.5597833E-005  0.2140391E+03  0.7546771E-02  0.1138407E+00
         21   -1    0    0  502  501  0.00000000000E+00  0.00000000000E+00  0.11645686635E+03  0.11645686635E+03  0.00000000000E+00 0.  1.
         21   -1    0    0  501  502 -0.00000000000E+00 -0.00000000000E+00 -0.39338786676E+03  0.39338786676E+03  0.00000000000E+00 0.  1.
         25    1    1    2    0    0  0.29635503948E+01  0.47393539701E+02 -0.17956589593E+02  0.13491615673E+03  0.12500000000E+03 0.  0.
         25    1    1    2    0    0 -0.23995358502E+02 -0.55913298231E+02 -0.17108336512E+03  0.22044634715E+03  0.12500000000E+03 0.  0.
         25    1    1    2    0    0  0.21031808107E+02  0.85197585308E+01 -0.87891045694E+02  0.15448222924E+03  0.12500000000E+03 0.  0.
</event>
<event>
 5    0  0.5597833E-005  0.3917263E+03  0.7546771E-02  0.1046683E+00
         21   -1    0    0  502  501  0.00000000000E+00  0.00000000000E+00  0.15699193605E+03  0.15699193605E+03  0.00000000000E+00 0. -1.
         21   -1    0    0  501  502 -0.00000000000E+00 -0.00000000000E+00 -0.97743529950E+03  0.97743529950E+03  0.00000000000E+00 0. -1.
         25    1    1    2    0    0 -0.13338712856E+03  0.10615872798E+03 -0.46126587826E+03  0.50739827752E+03  0.12500000000E+03 0.  0.
         25    1    1    2    0    0 -0.14981410355E+02  0.18155366293E+02  0.66096445825E+02  0.14334503874E+03  0.12500000000E+03 0.  0.
         25    1    1    2    0    0  0.14836853892E+03 -0.12431409428E+03 -0.42527393101E+03  0.48368391928E+03  0.12500000000E+03 0.  0.
</event>
<event>
 5    0  0.5597833E-005  0.3132438E+03  0.7546771E-02  0.1078801E+00
         21   -1    0    0  502  501  0.00000000000E+00  0.00000000000E+00  0.13253286128E+04  0.13253286128E+04  0.00000000000E+00 0.  1.
         21   -1    0    0  501  502 -0.00000000000E+00 -0.00000000000E+00 -0.74035747355E+02  0.74035747355E+02  0.00000000000E+00 0.  1.
         25    1    1    2    0    0 -0.15910797999E+03 -0.16574073395E+03  0.62741432582E+03  0.67974927468E+03  0.12500000000E+03 0.  0.
         25    1    1    2    0    0  0.94371611207E+02  0.10292584084E+03  0.44872371982E+03  0.48628973508E+03  0.12500000000E+03 0.  0.
         25    1    1    2    0    0  0.64736368786E+02  0.62814893117E+02  0.17515481985E+03  0.23332535044E+03  0.12500000000E+03 0.  0.
</event>
<event>
 5    0  0.5597833E-005  0.2813365E+03  0.7546771E-02  0.1094961E+00
         21   -1    0    0  502  501  0.00000000000E+00  0.00000000000E+00  0.31261818350E+04  0.31261818350E+04  0.00000000000E+00 0.  1.
         21   -1    0    0  501  502 -0.00000000000E+00 -0.00000000000E+00 -0.25318492072E+02  0.25318492072E+02  0.00000000000E+00 0.  1.
         25    1    1    2    0    0 -0.32994773735E+02 -0.12093879685E+03  0.49773531954E+03  0.52828050882E+03  0.12500000000E+03 0.  0.
         25    1    1    2    0    0 -0.58132045060E+02  0.93959053808E+02  0.13859004576E+04  0.13959056977E+04  0.12500000000E+03 0.  0.
         25    1    1    2    0    0  0.91126818795E+02  0.26979743039E+02  0.12172275658E+04  0.12273141206E+04  0.12500000000E+03 0.  0.
</event>
<event>
 5    0  0.5718097E-005  0.3336457E+03  0.7546771E-02  0.1069535E+00
         21   -1    0    0  502  501  0.00000000000E+00  0.00000000000E+00  0.25497290046E+03  0.25497290046E+03  0.00000000000E+00 0.  1.
         21   -1    0    0  501  502 -0.00000000000E+00 -0.00000000000E+00 -0.43659315659E+03  0.43659315659E+03  0.00000000000E+00 0.  1.
         25    1    1    2    0    0  0.36229189461E+02  0.13203134606E+03 -0.20850574921E+02  0.18655984827E+03  0.12500000000E+03 0.  0.
         25    1    1    2    0    0 -0.42340807947E+02 -0.12635830000E+03  0.10532420920E+03  0.21089654582E+03  0.12500000000E+03 0.  0.
         25    1    1    2    0    0  0.61116184868E+01 -0.56730460578E+01 -0.26609389041E+03  0.29410966296E+03  0.12500000000E+03 0.  0.
</event>
<event>
 5    0  0.5597833E-005  0.3084860E+03  0.7546771E-02  0.1081074E+00
         21   -1    0    0  502  501  0.00000000000E+00  0.00000000000E+00  0.73878977147E+02  0.73878977147E+02  0.00000000000E+00 0.  1.
         21   -1    0    0  501  502 -0.00000000000E+00 -0.00000000000E+00 -0.12881012756E+04  0.12881012756E+04  0.00000000000E+00 0.  1.
         25    1    1    2    0    0 -0.39112417055E+02  0.13585091929E+03 -0.65818149647E+03  0.68469930315E+03  0.12500000000E+03 0.  0.
         25    1    1    2    0    0  0.82844169777E+02 -0.63587164330E+02 -0.48288464019E+03  0.50961658104E+03  0.12500000000E+03 0.  0.
         25    1    1    2    0    0 -0.43731752722E+02 -0.72263754964E+02 -0.73156161799E+02  0.16766436857E+03  0.12500000000E+03 0.  0.
</event>
<event>
 5    0  0.5597833E-005  0.4393381E+03  0.7546771E-02  0.1030950E+00
         21   -1    0    0  502  501  0.00000000000E+00  0.00000000000E+00  0.52930001084E+03  0.52930001084E+03  0.00000000000E+00 0.  1.
         21   -1    0    0  501  502 -0.00000000000E+00 -0.00000000000E+00 -0.36466645349E+03  0.36466645349E+03  0.00000000000E+00 0.  1.
         25    1    1    2    0    0  0.30153474905E+03  0.10835589830E+03  0.11155261820E+03  0.36157045262E+03  0.12500000000E+03 0.  0.
         25    1    1    2    0    0 -0.31183223497E+03 -0.18416272616E+03  0.42301105742E+02  0.38544731938E+03  0.12500000000E+03 0.  0.
         25    1    1    2    0    0  0.10297485913E+02  0.75806827869E+02  0.10779833402E+02  0.14694869232E+03  0.12500000000E+03 0.  0.
</event>
<event>
 5    0  0.5597833E-005  0.3033229E+03  0.7546771E-02  0.1083591E+00
         21   -1    0    0  502  501  0.00000000000E+00  0.00000000000E+00  0.36332871164E+03  0.36332871164E+03  0.00000000000E+00 0.  1.
         21   -1    0    0  501  502 -0.00000000000E+00 -0.00000000000E+00 -0.25322735294E+03  0.25322735294E+03  0.00000000000E+00 0.  1.
         25    1    1    2    0    0  0.11103411909E+03  0.11135888250E+03  0.19862480550E+03  0.28249989322E+03  0.12500000000E+03 0.  0.
         25    1    1    2    0    0 -0.92548438780E+02 -0.16666067708E+02 -0.75573053609E+01  0.15660486646E+03  0.12500000000E+03 0.  0.
         25    1    1    2    0    0 -0.18485680310E+02 -0.94692814794E+02 -0.80966141436E+02  0.17745130490E+03  0.12500000000E+03 0.  0.
</event>
<event>
 5    0  0.5597833E-005  0.3582481E+03  0.7546771E-02  0.1059280E+00
         21   -1    0    0  502  501  0.00000000000E+00  0.00000000000E+00  0.12024873295E+04  0.12024873295E+04  0.00000000000E+00 0. -1.
         21   -1    0    0  501  502 -0.00000000000E+00 -0.00000000000E+00 -0.10673017098E+03  0.10673017098E+03  0.00000000000E+00 0. -1.
         25    1    1    2    0    0  0.26206896605E+02 -0.61697223713E+02 -0.53121244340E+01  0.14193860472E+03  0.12500000000E+03 0.  0.
         25    1    1    2    0    0  0.94822068809E+02 -0.51735172190E+02  0.65034779498E+03  0.67100298599E+03  0.12500000000E+03 0.  0.
         25    1    1    2    0    0 -0.12102896541E+03  0.11343239590E+03  0.45072148802E+03  0.49627590982E+03  0.12500000000E+03 0.  0.
</event>
<event>
 5    0  0.5597833E-005  0.3278255E+03  0.7546771E-02  0.1072103E+00
         21   -1    0    0  502  501  0.00000000000E+00  0.00000000000E+00  0.61433887017E+02  0.61433887017E+02  0.00000000000E+00 0.  1.
         21   -1    0    0  501  502 -0.00000000000E+00 -0.00000000000E+00 -0.17493530107E+04  0.17493530107E+04  0.00000000000E+00 0.  1.
         25    1    1    2    0    0 -0.16666271750E+02 -0.50488174835E+01 -0.95448889729E+03  0.96279660896E+03  0.12500000000E+03 0.  0.
         25    1    1    2    0    0 -0.67594933496E+02  0.13359612302E+02 -0.54997773295E+02  0.15296179047E+03  0.12500000000E+03 0.  0.
         25    1    1    2    0    0  0.84261205245E+02 -0.83107948186E+01 -0.67843245306E+03  0.69502849825E+03  0.12500000000E+03 0.  0.
</event>
<event>
 5    0  0.5597833E-005  0.1971634E+03  0.7546771E-02  0.1152155E+00
         21   -1    0    0  502  501  0.00000000000E+00  0.00000000000E+00  0.73019770815E+02  0.73019770815E+02  0.00000000000E+00 0. -1.
         21   -1    0    0  501  502 -0.00000000000E+00 -0.00000000000E+00 -0.53236801987E+03  0.53236801987E+03  0.00000000000E+00 0. -1.
         25    1    1    2    0    0 -0.30066164431E+02  0.31610406642E+02 -0.14439357827E+03  0.19590226517E+03  0.12500000000E+03 0.  0.
         25    1    1    2    0    0  0.31285593044E+02 -0.20960142414E+02 -0.20290136728E+03  0.24127179849E+03  0.12500000000E+03 0.  0.
         25    1    1    2    0    0 -0.12194286125E+01 -0.10650264228E+02 -0.11205330350E+03  0.16821372702E+03  0.12500000000E+03 0.  0.
</event>
<event>
 5    0  0.5597833E-005  0.3856112E+03  0.7546771E-02  0.1048879E+00
         21   -1    0    0  502  501  0.00000000000E+00  0.00000000000E+00  0.16677233268E+03  0.16677233268E+03  0.00000000000E+00 0.  1.
         21   -1    0    0  501  502 -0.00000000000E+00 -0.00000000000E+00 -0.89161067160E+03  0.89161067160E+03  0.00000000000E+00 0.  1.
         25    1    1    2    0    0 -0.16105345242E+03 -0.12706641655E+03  0.19397658215E+02  0.24100904111E+03  0.12500000000E+03 0.  0.
         25    1    1    2    0    0  0.72682277531E+02  0.34714012642E+02 -0.44054924223E+03  0.46496925809E+03  0.12500000000E+03 0.  0.
         25    1    1    2    0    0  0.88371174888E+02  0.92352403911E+02 -0.30368675490E+03  0.35240470508E+03  0.12500000000E+03 0.  0.
</event>
<event>
 5    0  0.5597833E-005  0.2579974E+03  0.7546771E-02  0.1108352E+00
         21   -1    0    0  502  501  0.00000000000E+00  0.00000000000E+00  0.11726005663E+03  0.11726005663E+03  0.00000000000E+00 0.  1.
         21   -1    0    0  501  502 -0.00000000000E+00 -0.00000000000E+00 -0.56764995149E+03  0.56764995149E+03  0.00000000000E+00 0.  1.
         25    1    1    2    0    0 -0.72812990676E+02 -0.11727435753E+03 -0.22544227521E+03  0.29241105656E+03  0.12500000000E+03 0.  0.
         25    1    1    2    0    0  0.49832770822E+02  0.10442311644E+03 -0.19936571431E+03  0.26221971768E+03  0.12500000000E+03 0.  0.
         25    1    1    2    0    0  0.22980219854E+02  0.12851241093E+02 -0.25581905333E+02  0.13027923389E+03  0.12500000000E+03 0.  0.
</event>
<event>
 5    0  0.5597833E-005  0.3068455E+03  0.7546771E-02  0.1081868E+00
         21   -1    0    0  502  501  0.00000000000E+00  0.00000000000E+00  0.34976934984E+03  0.34976934984E+03  0.00000000000E+00 0.  1.
         21   -1    0    0  501  502 -0.00000000000E+00 -0.00000000000E+00 -0.26918932494E+03  0.26918932494E+03  0.00000000000E+00 0.  1.
         25    1    1    2    0    0 -0.12980693890E+03  0.87233900139E+02 -0.38944693446E+01  0.20024924871E+03  0.12500000000E+03 0.  0.
         25    1    1    2    0    0  0.16645780716E+03 -0.72468333758E+02  0.15536594389E+03  0.26967283416E+03  0.12500000000E+03 0.  0.
         25    1    1    2    0    0 -0.36650868260E+02 -0.14765566381E+02 -0.70891449653E+02  0.14903659191E+03  0.12500000000E+03 0.  0.
</event>
<event>
 5    0  0.5597833E-005  0.3588346E+03  0.7546771E-02  0.1059046E+00
         21   -1    0    0  502  501  0.00000000000E+00  0.00000000000E+00  0.17108360367E+04  0.17108360367E+04  0.00000000000E+00 0. -1.
         21   -1    0    0  501  502 -0.00000000000E+00 -0.00000000000E+00 -0.75262785556E+02  0.75262785556E+02  0.00000000000E+00 0. -1.
         25    1    1    2    0    0 -0.97231621533E+02  0.47841639051E+01  0.47764911135E+03  0.50324005208E+03  0.12500000000E+03 0.  0.
         25    1    1    2    0    0 -0.84058887036E+02 -0.20215596474E+03  0.61408286180E+03  0.66381902031E+03  0.12500000000E+03 0.  0.
         25    1    1    2    0    0  0.18129050857E+03  0.19737180083E+03  0.54384127801E+03  0.61903974988E+03  0.12500000000E+03 0.  0.
</event>
<event>
 5    0  0.5597833E-005  0.3043502E+03  0.7546771E-02  0.1083086E+00
         21   -1    0    0  502  501  0.00000000000E+00  0.00000000000E+00  0.11137806249E+04  0.11137806249E+04  0.00000000000E+00 0.  1.
         21   -1    0    0  501  502 -0.00000000000E+00 -0.00000000000E+00 -0.83166300853E+02  0.83166300853E+02  0.00000000000E+00 0.  1.
         25    1    1    2    0    0 -0.49518420484E+02  0.15195245887E+02  0.21115304524E+03  0.25078592061E+03  0.12500000000E+03 0.  0.
         25    1    1    2    0    0 -0.13858345632E+03  0.44843244273E+02  0.17168736574E+03  0.25752250868E+03  0.12500000000E+03 0.  0.
         25    1    1    2    0    0  0.18810187680E+03 -0.60038490160E+02  0.64777391308E+03  0.68863849648E+03  0.12500000000E+03 0.  0.
</event>
<event>
 5    0  0.5597833E-005  0.2490949E+03  0.7546771E-02  0.1113878E+00
         21   -1    0    0  502  501  0.00000000000E+00  0.00000000000E+00  0.51532094275E+03  0.51532094275E+03  0.00000000000E+00 0.  1.
         21   -1    0    0  501  502 -0.00000000000E+00 -0.00000000000E+00 -0.12040705552E+03  0.12040705552E+03  0.00000000000E+00 0.  1.
         25    1    1    2    0    0  0.58172770566E+02  0.41432934597E+02  0.22014509576E+03  0.26303920334E+03  0.12500000000E+03 0.  0.
         25    1    1    2    0    0 -0.71274512621E+02 -0.41216050625E+02 -0.91144872865E+01  0.14995630316E+03  0.12500000000E+03 0.  0.
         25    1    1    2    0    0  0.13101742055E+02 -0.21688397251E+00  0.18388327876E+03  0.22273249177E+03  0.12500000000E+03 0.  0.
</event>
<event>
 5    0  0.5597833E-005  0.2741494E+03  0.7546771E-02  0.1098928E+00
         21   -1    0    0  502  501  0.00000000000E+00  0.00000000000E+00  0.11081003439E+04  0.11081003439E+04  0.00000000000E+00 0. -1.
         21   -1    0    0  501  502 -0.00000000000E+00 -0.00000000000E+00 -0.67825884556E+02  0.67825884556E+02  0.00000000000E+00 0. -1.
         25    1    1    2    0    0  0.59877830402E+02  0.97742046349E+01  0.46066938258E+03  0.48116750690E+03  0.12500000000E+03 0.  0.
         25    1    1    2    0    0 -0.50006519361E+02  0.12227395620E+03  0.18129040588E+03  0.25679327018E+03  0.12500000000E+03 0.  0.
         25    1    1    2    0    0 -0.98713110407E+01 -0.13204816083E+03  0.39831467086E+03  0.43796545136E+03  0.12500000000E+03 0.  0.
</event>
<event>
 5    0  0.5597833E-005  0.2621308E+03  0.7546771E-02  0.1105870E+00
         21   -1    0    0  502  501  0.00000000000E+00  0.00000000000E+00  0.84291988784E+03  0.84291988784E+03  0.00000000000E+00 0. -1.
         21   -1    0    0  501  502 -0.00000000000E+00 -0.00000000000E+00 -0.81517332685E+02  0.81517332685E+02  0.00000000000E+00 0. -1.
         25    1    1    2    0    0  0.90682504056E+02 -0.39306841162E+02  0.11829638953E+03  0.19846254075E+03  0.12500000000E+03 0.  0.
         25    1    1    2    0    0  0.28962781340E+01  0.10872125136E+03  0.33075619903E+03  0.36993697047E+03  0.12500000000E+03 0.  0.
         25    1    1    2    0    0 -0.93578782190E+02 -0.69414410193E+02  0.31234996658E+03  0.35603770930E+03  0.12500000000E+03 0.  0.
</event>
<event>
 5    0  0.5820476E-005  0.2693234E+03  0.7546771E-02  0.1101667E+00
         21   -1    0    0  502  501  0.00000000000E+00  0.00000000000E+00  0.11090229203E+04  0.11090229203E+04  0.00000000000E+00 0. -1.
         21   -1    0    0  501  502 -0.00000000000E+00 -0.00000000000E+00 -0.65404515687E+02  0.65404515687E+02  0.00000000000E+00 0. -1.
         25    1    1    2    0    0  0.35008267327E+02 -0.80046068848E+02  0.45219657559E+03  0.47722080308E+03  0.12500000000E+03 0.  0.
         25    1    1    2    0    0 -0.51797914184E+02  0.83770708283E+02  0.95744465866E+02  0.18572172254E+03  0.12500000000E+03 0.  0.
         25    1    1    2    0    0  0.16789646857E+02 -0.37246394351E+01  0.49567736311E+03  0.51148491032E+03  0.12500000000E+03 0.  0.
</event>
<event>
 5    0  0.5597833E-005  0.4817544E+03  0.7546771E-02  0.1018654E+00
         21   -1    0    0  502  501  0.00000000000E+00  0.00000000000E+00  0.38182683618E+03  0.38182683618E+03  0.00000000000E+00 0. -1.
         21   -1    0    0  501  502 -0.00000000000E+00 -0.00000000000E+00 -0.60783379811E+03  0.60783379811E+03  0.00000000000E+00 0. -1.
         25    1    1    2    0    0 -0.39683248726E+03 -0.14846156831E+03 -0.49364996192E+02  0.44449832740E+03  0.12500000000E+03 0.  0.
         25    1    1    2    0    0  0.17255865914E+03  0.94740570521E+01 -0.12921351082E+03  0.24937397615E+03  0.12500000000E+03 0.  0.
         25    1    1    2    0    0  0.22427382812E+03  0.13898751125E+03 -0.47428454911E+02  0.29578833074E+03  0.12500000000E+03 0.  0.
</event>
<event>
 5    0  0.5597833E-005  0.4511586E+03  0.7546771E-02  0.1027377E+00
         21   -1    0    0  502  501  0.00000000000E+00  0.00000000000E+00  0.18941066038E+03  0.18941066038E+03  0.00000000000E+00 0. -1.
         21   -1    0    0  501  502 -0.00000000000E+00 -0.00000000000E+00 -0.10746178451E+04  0.10746178451E+04  0.00000000000E+00 0. -1.
         25    1    1    2    0    0 -0.29602192244E+02  0.26984436178E+03 -0.25975659156E+03  0.39596812526E+03  0.12500000000E+03 0.  0.
         25    1    1    2    0    0 -0.90287569073E+02 -0.37072100942E+03 -0.41684402015E+03  0.57876579813E+03  0.12500000000E+03 0.  0.
         25    1    1    2    0    0  0.11988976132E+03  0.10087664764E+03 -0.20860657297E+03  0.28929458204E+03  0.12500000000E+03 0.  0.
</event>
<event>
 5    0  0.5597833E-005  0.4424993E+03  0.7546771E-02  0.1029983E+00
         21   -1    0    0  502  501  0.00000000000E+00  0.00000000000E+00  0.24302949451E+03  0.24302949451E+03  0.00000000000E+00 0. -1.
         21   -1    0    0  501  502 -0.00000000000E+00 -0.00000000000E+00 -0.80568659947E+03  0.80568659947E+03  0.00000000000E+00 0. -1.
         25    1    1    2    0    0 -0.36384363634E+03  0.97591161826E+02 -0.21818604812E+03  0.45291983636E+03  0.12500000000E+03 0.  0.
         25    1    1    2    0    0  0.12549432802E+03  0.40222831017E+02 -0.10276691077E+03  0.20869293340E+03  0.12500000000E+03 0.  0.
         25    1    1    2    0    0  0.23834930832E+03 -0.13781399284E+03 -0.24170414607E+03  0.38710332423E+03  0.12500000000E+03 0.  0.
</event>
<event>
 5    0  0.5597833E-005  0.2732393E+03  0.7546771E-02  0.1099440E+00
         21   -1    0    0  502  501  0.00000000000E+00  0.00000000000E+00  0.36297972066E+03  0.36297972066E+03  0.00000000000E+00 0. -1.
         21   -1    0    0  501  502 -0.00000000000E+00 -0.00000000000E+00 -0.20568568167E+03  0.20568568167E+03  0.00000000000E+00 0. -1.
         25    1    1    2    0    0  0.49171529327E+02 -0.13475004922E+03 -0.24418277643E+02  0.19182457440E+03  0.12500000000E+03 0.  0.
         25    1    1    2    0    0 -0.90670283470E+02  0.11680627738E+03  0.13460948286E+03  0.23581670767E+03  0.12500000000E+03 0.  0.
         25    1    1    2    0    0  0.41498754143E+02  0.17943771845E+02  0.47102833768E+02  0.14102412025E+03  0.12500000000E+03 0.  0.
</event>
<event>
 5    0  0.5597833E-005  0.2742602E+03  0.7546771E-02  0.1098866E+00
         21   -1    0    0  502  501  0.00000000000E+00  0.00000000000E+00  0.65225497356E+02  0.65225497356E+02  0.00000000000E+00 0.  1.
         21   -1    0    0  501  502 -0.00000000000E+00 -0.00000000000E+00 -0.11532094504E+04  0.11532094504E+04  0.00000000000E+00 0.  1.
         25    1    1    2    0    0  0.12247694363E+03 -0.46346507636E+02 -0.22626884873E+03  0.28977783283E+03  0.12500000000E+03 0.  0.
         25    1    1    2    0    0 -0.14599810524E+03 -0.21802949932E+02 -0.59151756754E+03  0.62234142404E+03  0.12500000000E+03 0.  0.
         25    1    1    2    0    0  0.23521161607E+02  0.68149457568E+02 -0.27019753675E+03  0.30631569088E+03  0.12500000000E+03 0.  0.
</event>
<event>
 5    0  0.5654802E-005  0.3809681E+03  0.7546771E-02  0.1050577E+00
         21   -1    0    0  502  501  0.00000000000E+00  0.00000000000E+00  0.65460054753E+03  0.65460054753E+03  0.00000000000E+00 0.  1.
         21   -1    0    0  501  502 -0.00000000000E+00 -0.00000000000E+00 -0.22171800630E+03  0.22171800630E+03  0.00000000000E+00 0.  1.
         25    1    1    2    0    0 -0.18705023044E+02 -0.68188493033E+02  0.29051514416E+03  0.32407344454E+03  0.12500000000E+03 0.  0.
         25    1    1    2    0    0  0.16527447425E+03  0.94321423612E+02  0.24329304558E+03  0.33320967696E+03  0.12500000000E+03 0.  0.
         25    1    1    2    0    0 -0.14656945120E+03 -0.26132930579E+02 -0.10092564851E+03  0.21903543233E+03  0.12500000000E+03 0.  0.
</event>
<event>
 5    0  0.5597833E-005  0.4734688E+03  0.7546771E-02  0.1020946E+00
         21   -1    0    0  502  501  0.00000000000E+00  0.00000000000E+00  0.66758437064E+03  0.66758437064E+03  0.00000000000E+00 0.  1.
         21   -1    0    0  501  502 -0.00000000000E+00 -0.00000000000E+00 -0.33579685289E+03  0.33579685289E+03  0.00000000000E+00 0.  1.
         25    1    1    2    0    0  0.13180396030E+03 -0.14377687010E+03 -0.12423384326E+02  0.23199873449E+03  0.12500000000E+03 0.  0.
         25    1    1    2    0    0 -0.17079659819E+03 -0.29054493904E+02 -0.12990798177E+03  0.25003344836E+03  0.12500000000E+03 0.  0.
         25    1    1    2    0    0  0.38992637887E+02  0.17283136400E+03  0.47411888385E+03  0.52134904068E+03  0.12500000000E+03 0.  0.
</event>
<event>
 5    0  0.5597833E-005  0.2708640E+03  0.7546771E-02  0.1100786E+00
         21   -1    0    0  502  501  0.00000000000E+00  0.00000000000E+00  0.11262073016E+04  0.11262073016E+04  0.00000000000E+00 0. -1.
         21   -1    0    0  501  502 -0.00000000000E+00 -0.00000000000E+00 -0.65145457845E+02  0.65145457845E+02  0.00000000000E+00 0. -1.
         25    1    1    2    0    0 -0.73380670099E+02 -0.47549309299E+02  0.61771489355E+03  0.63627222890E+03  0.12500000000E+03 0.  0.
         25    1    1    2    0    0  0.12114948829E+02  0.30406890778E+02  0.51870909269E+02  0.13923700018E+03  0.12500000000E+03 0.  0.
         25    1    1    2    0    0  0.61265721271E+02  0.17142418522E+02  0.39147604095E+03  0.41584353037E+03  0.12500000000E+03 0.  0.
</event>
<event>
 5    0  0.5597833E-005  0.4100810E+03  0.7546771E-02  0.1040344E+00
         21   -1    0    0  502  501  0.00000000000E+00  0.00000000000E+00  0.13186804388E+04  0.13186804388E+04  0.00000000000E+00 0. -1.
         21   -1    0    0  501  502 -0.00000000000E+00 -0.00000000000E+00 -0.12752626305E+03  0.12752626305E+03  0.00000000000E+00 0. -1.
         25    1    1    2    0    0  0.11013648140E+03 -0.16279951189E+03  0.10698014709E+03  0.25632689573E+03  0.12500000000E+03 0.  0.
         25    1    1    2    0    0 -0.14580846627E+03  0.19694572582E+03  0.35857716281E+03  0.45194060389E+03  0.12500000000E+03 0.  0.
         25    1    1    2    0    0  0.35671984875E+02 -0.34146213936E+02  0.72559686584E+03  0.73793920220E+03  0.12500000000E+03 0.  0.
</event>
<event>
 5    0  0.5597833E-005  0.2691320E+03  0.7546771E-02  0.1101777E+00
         21   -1    0    0  502  501  0.00000000000E+00  0.00000000000E+00  0.47987823220E+03  0.47987823220E+03  0.00000000000E+00 0.  1.
         21   -1    0    0  501  502 -0.00000000000E+00 -0.00000000000E+00 -0.15093831490E+03  0.15093831490E+03  0.00000000000E+00 0.  1.
         25    1    1    2    0    0 -0.67364184388E+02  0.12336909037E+03  0.19051112364E+03  0.26772626697E+03  0.12500000000E+03 0.  0.
         25    1    1    2    0    0 -0.49903169711E+02 -0.35394003314E+02  0.31274025390E+02  0.14263984886E+03  0.12500000000E+03 0.  0.
         25    1    1    2    0    0  0.11726735410E+03 -0.87975087059E+02  0.10715476828E+03  0.22045043126E+03  0.12500000000E+03 0.  0.
</event>
<event>
 5    0  0.5597833E-005  0.3316894E+03  0.7546771E-02  0.1070392E+00
         21   -1    0    0  502  501  0.00000000000E+00  0.00000000000E+00  0.20434065593E+03  0.20434065593E+03  0.00000000000E+00 0.  1.
         21   -1    0    0  501  502 -0.00000000000E+00 -0.00000000000E+00 -0.53840430929E+03  0.53840430929E+03  0.00000000000E+00 0.  1.
         25    1    1    2    0    0  0.16361272287E+03  0.50572425054E+02  0.27353071451E+01  0.21203578746E+03  0.12500000000E+03 0.  0.
         25    1    1    2    0    0 -0.22046820447E+03 -0.83364786318E+02 -0.19379223592E+03  0.32975194842E+03  0.12500000000E+03 0.  0.
         25    1    1    2    0    0  0.56855481604E+02  0.32792361264E+02 -0.14300672458E+03  0.20095722933E+03  0.12500000000E+03 0.  0.
</event>
<event>
 5    0  0.5597833E-005  0.2707898E+03  0.7546771E-02  0.1100828E+00
         21   -1    0    0  502  501  0.00000000000E+00  0.00000000000E+00  0.23532173683E+03  0.23532173683E+03  0.00000000000E+00 0.  1.
         21   -1    0    0  501  502 -0.00000000000E+00 -0.00000000000E+00 -0.31160377350E+03  0.31160377350E+03  0.00000000000E+00 0.  1.
         25    1    1    2    0    0 -0.10384091729E+03  0.67882616021E+02 -0.15607753525E+03  0.23532144541E+03  0.12500000000E+03 0.  0.
         25    1    1    2    0    0  0.13916797246E+02  0.14444494884E+02  0.34278862044E+02  0.13115777164E+03  0.12500000000E+03 0.  0.
         25    1    1    2    0    0  0.89924120045E+02 -0.82327110905E+02  0.45516636539E+02  0.18044629328E+03  0.12500000000E+03 0.  0.
</event>
<event>
 5    0  0.5597833E-005  0.2916399E+03  0.7546771E-02  0.1089496E+00
         21   -1    0    0  502  501  0.00000000000E+00  0.00000000000E+00  0.10451253184E+03  0.10451253184E+03  0.00000000000E+00 0.  1.
         21   -1    0    0  501  502 -0.00000000000E+00 -0.00000000000E+00 -0.81381483990E+03  0.81381483990E+03  0.00000000000E+00 0.  1.
         25    1    1    2    0    0 -0.48573174066E+02 -0.15812569119E+03 -0.42497500874E+03  0.47285499416E+03  0.12500000000E+03 0.  0.
         25    1    1    2    0    0 -0.52756031057E+02  0.91172082826E+02 -0.17630936930E+03  0.24042782951E+03  0.12500000000E+03 0.  0.
         25    1    1    2    0    0  0.10132920512E+03  0.66953608363E+02 -0.10801793002E+03  0.20504454806E+03  0.12500000000E+03 0.  0.
</event>
<event>
 5    0  0.5597833E-005  0.4010153E+03  0.7546771E-02  0.1043429E+00
         21   -1    0    0  502  501  0.00000000000E+00  0.00000000000E+00  0.14947700400E+03  0.14947700400E+03  0.00000000000E+00 0. -1.
         21   -1    0    0  501  502 -0.00000000000E+00 -0.00000000000E+00 -0.10758395704E+04  0.10758395704E+04  0.00000000000E+00 0. -1.
         25    1    1    2    0    0  0.79964356926E+02  0.14034700050E+03 -0.95700715050E+02  0.22555532756E+03  0.12500000000E+03 0.  0.
         25    1    1    2    0    0 -0.17152775498E+03 -0.16086620617E+03 -0.79640122322E+03  0.83974973377E+03  0.12500000000E+03 0.  0.
         25    1    1    2    0    0  0.91563398057E+02  0.20519205672E+02 -0.34260628081E+02  0.16001151303E+03  0.12500000000E+03 0.  0.
</event>
<event>
 5    0  0.5597833E-005  0.3032704E+03  0.7546771E-02  0.1083617E+00
         21   -1    0    0  502  501  0.00000000000E+00  0.00000000000E+00  0.39076365622E+03  0.39076365622E+03  0.00000000000E+00 0. -1.
         21   -1    0    0  501  502 -0.00000000000E+00 -0.00000000000E+00 -0.23536711423E+03  0.23536711423E+03  0.00000000000E+00 0. -1.
         25    1    1    2    0    0  0.72670077398E+02  0.17365633372E+03  0.49989472046E+02  0.23143338071E+03  0.12500000000E+03 0.  0.
         25    1    1    2    0    0  0.17287362863E+01 -0.13667850281E+03 -0.35762722081E+02  0.18864775098E+03  0.12500000000E+03 0.  0.
         25    1    1    2    0    0 -0.74398813685E+02 -0.36977830910E+02  0.14116979202E+03  0.20604963877E+03  0.12500000000E+03 0.  0.
</event>
<event>
 5    0  0.5597833E-005  0.2241446E+03  0.7546771E-02  0.1130830E+00
         21   -1    0    0  502  501  0.00000000000E+00  0.00000000000E+00  0.26508733778E+03  0.26508733778E+03  0.00000000000E+00 0. -1.
         21   -1    0    0  501  502 -0.00000000000E+00 -0.00000000000E+00 -0.18952543691E+03  0.18952543691E+03  0.00000000000E+00 0. -1.
         25    1    1    2    0    0 -0.96219614591E+02 -0.41981437374E+02  0.22067521323E+01  0.16324988536E+03  0.12500000000E+03 0.  0.
         25    1    1    2    0    0  0.62322270615E+02  0.20135772410E+01  0.68878145006E+02  0.15574761240E+03  0.12500000000E+03 0.  0.
         25    1    1    2    0    0  0.33897343976E+02  0.39967860133E+02  0.44770037324E+01  0.13561527692E+03  0.12500000000E+03 0.  0.
</event>
<event>
 5    0  0.5597833E-005  0.3120724E+03  0.7546771E-02  0.1079357E+00
         21   -1    0    0  502  501  0.00000000000E+00  0.00000000000E+00  0.45978346938E+03  0.45978346938E+03  0.00000000000E+00 0. -1.
         21   -1    0    0  501  502 -0.00000000000E+00 -0.00000000000E+00 -0.21181530397E+03  0.21181530397E+03  0.00000000000E+00 0. -1.
         25    1    1    2    0    0 -0.24321940402E+02  0.64220621514E+02  0.30043679874E+03  0.33257046629E+03  0.12500000000E+03 0.  0.
         25    1    1    2    0    0  0.68869953620E+02 -0.23057357175E+02 -0.11686133341E+03  0.18589320449E+03  0.12500000000E+03 0.  0.
         25    1    1    2    0    0 -0.44548013217E+02 -0.41163264338E+02  0.64392700081E+02  0.15313510256E+03  0.12500000000E+03 0.  0.
</event>
<event>
 5    0  0.5597833E-005  0.2561651E+03  0.7546771E-02  0.1109469E+00
         21   -1    0    0  502  501  0.00000000000E+00  0.00000000000E+00  0.44927514652E+03  0.44927514652E+03  0.00000000000E+00 0.  1.
         21   -1    0    0  501  502 -0.00000000000E+00 -0.00000000000E+00 -0.14605870876E+03  0.14605870876E+03  0.00000000000E+00 0.  1.
         25    1    1    2    0    0  0.70954960181E+02  0.15765059907E+02  0.20030056532E+03  0.24703938948E+03  0.12500000000E+03 0.  0.
         25    1    1    2    0    0 -0.13230337224E+03 -0.33303218004E+02  0.94319181740E+02  0.20768821507E+03  0.12500000000E+03 0.  0.
         25    1    1    2    0    0  0.61348412060E+02  0.17538158096E+02  0.85966906975E+01  0.14060625072E+03  0.12500000000E+03 0.  0.
</event>
<event>
 5    0  0.5597833E-005  0.2327897E+03  0.7546771E-02  0.1124691E+00
         21   -1    0    0  502  501  0.00000000000E+00  0.00000000000E+00  0.20635922306E+03  0.20635922306E+03  0.00000000000E+00 0.  1.
         21   -1    0    0  501  502 -0.00000000000E+00 -0.00000000000E+00 -0.26260543830E+03  0.26260543830E+03  0.00000000000E+00 0.  1.
         25    1    1    2    0    0  0.32945672886E+02 -0.91055233904E+02 -0.10395233259E+03  0.18922885730E+03  0.12500000000E+03 0.  0.
         25    1    1    2    0    0 -0.20848086965E+02  0.22290127019E+02 -0.46048911214E+00  0.12867285861E+03  0.12500000000E+03 0.  0.
         25    1    1    2    0    0 -0.12097585922E+02  0.68765106885E+02  0.48166606455E+02  0.15106294545E+03  0.12500000000E+03 0.  0.
</event>
<event>
 5    0  0.5597833E-005  0.4139097E+03  0.7546771E-02  0.1039067E+00
         21   -1    0    0  502  501  0.00000000000E+00  0.00000000000E+00  0.13711294956E+04  0.13711294956E+04  0.00000000000E+00 0.  1.
         21   -1    0    0  501  502 -0.00000000000E+00 -0.00000000000E+00 -0.12494898697E+03  0.12494898697E+03  0.00000000000E+00 0.  1.
         25    1    1    2    0    0 -0.91785543513E+02  0.19956482720E+03  0.60913894323E+03  0.65948916474E+03  0.12500000000E+03 0.  0.
         25    1    1    2    0    0  0.51215329208E+02  0.31971613979E+02 -0.77120949464E+01  0.13903118519E+03  0.12500000000E+03 0.  0.
         25    1    1    2    0    0  0.40570214305E+02 -0.23153644118E+03  0.64475366034E+03  0.69755813264E+03  0.12500000000E+03 0.  0.
</event>
<event>
 5    0  0.5597833E-005  0.2359804E+03  0.7546771E-02  0.1122500E+00
         21   -1    0    0  502  501  0.00000000000E+00  0.00000000000E+00  0.13813083114E+03  0.13813083114E+03  0.00000000000E+00 0.  1.
         21   -1    0    0  501  502 -0.00000000000E+00 -0.00000000000E+00 -0.40314486363E+03  0.40314486363E+03  0.00000000000E+00 0.  1.
         25    1    1    2    0    0  0.90733997051E+02  0.43278777858E+02 -0.10424593364E+03  0.19130584286E+03  0.12500000000E+03 0.  0.
         25    1    1    2    0    0 -0.12225892699E+03 -0.79602086336E+01 -0.11142873536E+03  0.20748969424E+03  0.12500000000E+03 0.  0.
         25    1    1    2    0    0  0.31524929940E+02 -0.35318569224E+02 -0.49339363492E+02  0.14248015767E+03  0.12500000000E+03 0.  0.
</event>
<event>
 5    0  0.5597833E-005  0.3550207E+03  0.7546771E-02  0.1060573E+00
         21   -1    0    0  502  501  0.00000000000E+00  0.00000000000E+00  0.17320209276E+04  0.17320209276E+04  0.00000000000E+00 0. -1.
         21   -1    0    0  501  502 -0.00000000000E+00 -0.00000000000E+00 -0.72770308126E+02  0.72770308126E+02  0.00000000000E+00 0. -1.
         25    1    1    2    0    0 -0.28925463008E+02 -0.97192134016E+02  0.16648617220E+03  0.23157210294E+03  0.12500000000E+03 0.  0.
         25    1    1    2    0    0  0.10405659825E+03  0.84467691534E+02  0.19644678282E+03  0.26866132031E+03  0.12500000000E+03 0.  0.
         25    1    1    2    0    0 -0.75131135238E+02  0.12724442482E+02  0.12963176645E+04  0.13045578125E+04  0.12500000000E+03 0.  0.
</event>
<event>
 5    0  0.5597833E-005  0.3793256E+03  0.7546771E-02  0.1051183E+00
         21   -1    0    0  502  501  0.00000000000E+00  0.00000000000E+00  0.42581438527E+03  0.42581438527E+03  0.00000000000E+00 0. -1.
         21   -1    0    0  501  502 -0.00000000000E+00 -0.00000000000E+00 -0.33791223915E+03  0.33791223915E+03  0.00000000000E+00 0. -1.
         25    1    1    2    0    0  0.27643846557E+03  0.90302962214E+02  0.23653224996E+02  0.31742294385E+03  0.12500000000E+03 0.  0.
         25    1    1    2    0    0 -0.26834387813E+03 -0.25087097241E+02  0.69014732834E+02  0.30500136512E+03  0.12500000000E+03 0.  0.
         25    1    1    2    0    0 -0.80945874405E+01 -0.65215864973E+02 -0.47658117052E+01  0.14130231545E+03  0.12500000000E+03 0.  0.
</event>
<event>
 5    0  0.5597833E-005  0.2443893E+03  0.7546771E-02  0.1116903E+00
         21   -1    0    0  502  501  0.00000000000E+00  0.00000000000E+00  0.47332581836E+02  0.47332581836E+02  0.00000000000E+00 0. -1.
         21   -1    0    0  501  502 -0.00000000000E+00 -0.00000000000E+00 -0.12618393566E+04  0.12618393566E+04  0.00000000000E+00 0. -1.
         25    1    1    2    0    0 -0.44542321267E+01  0.90559675789E+01 -0.16821124304E+03  0.20981390091E+03  0.12500000000E+03 0.  0.
         25    1    1    2    0    0  0.10842075208E+03  0.26354329514E+02 -0.44629006917E+03  0.47670686591E+03  0.12500000000E+03 0.  0.
         25    1    1    2    0    0 -0.10396651996E+03 -0.35410297093E+02 -0.60000546259E+03  0.62265117164E+03  0.12500000000E+03 0.  0.
</event>
<event>
 5    0  0.5597833E-005  0.5456914E+03  0.7546771E-02  0.1002496E+00
         21   -1    0    0  502  501  0.00000000000E+00  0.00000000000E+00  0.33560000417E+03  0.33560000417E+03  0.00000000000E+00 0. -1.
         21   -1    0    0  501  502 -0.00000000000E+00 -0.00000000000E+00 -0.88730369793E+03  0.88730369793E+03  0.00000000000E+00 0. -1.
         25    1    1    2    0    0  0.22784737260E+03 -0.31695280861E+03 -0.24076272569E+03  0.47535796845E+03  0.12500000000E+03 0.  0.
         25    1    1    2    0    0 -0.89770320588E+02  0.41074239511E+03 -0.31325067108E+03  0.53899815262E+03  0.12500000000E+03 0.  0.
         25    1    1    2    0    0 -0.13807705201E+03 -0.93789586495E+02  0.23097030133E+01  0.20854758103E+03  0.12500000000E+03 0.  0.
</event>
<event>
 5    0  0.5597833E-005  0.3545152E+03  0.7546771E-02  0.1060777E+00
         21   -1    0    0  502  501  0.00000000000E+00  0.00000000000E+00  0.38773831205E+03  0.38773831205E+03  0.00000000000E+00 0. -1.
         21   -1    0    0  501  502 -0.00000000000E+00 -0.00000000000E+00 -0.32413879724E+03  0.32413879724E+03  0.00000000000E+00 0. -1.
         25    1    1    2    0    0 -0.22295774860E+02 -0.12095757778E+03 -0.15074850755E+03  0.23125299939E+03  0.12500000000E+03 0.  0.
         25    1    1    2    0    0 -0.68519268169E+01  0.10604189499E+03 -0.62135262210E+02  0.17543552435E+03  0.12500000000E+03 0.  0.
         25    1    1    2    0    0  0.29147701677E+02  0.14915682790E+02  0.27648328456E+03  0.30518858555E+03  0.12500000000E+03 0.  0.
</event>
<event>
 5    0  0.5597833E-005  0.5429806E+03  0.7546771E-02  0.1003132E+00
         21   -1    0    0  502  501  0.00000000000E+00  0.00000000000E+00  0.67633141387E+03  0.67633141387E+03  0.00000000000E+00 0. -1.
         21   -1    0    0  501  502 -0.00000000000E+00 -0.00000000000E+00 -0.43592223545E+03  0.43592223545E+03  0.00000000000E+00 0. -1.
         25    1    1    2    0    0  0.34069967826E+02 -0.14013463295E+02 -0.99555597611E+02  0.16399224639E+03  0.12500000000E+03 0.  0.
         25    1    1    2    0    0 -0.31036530195E+03  0.25180864907E+03  0.37391037939E+03  0.56139842199E+03  0.12500000000E+03 0.  0.
         25    1    1    2    0    0  0.27629533412E+03 -0.23779518577E+03 -0.33945603363E+02  0.38686298094E+03  0.12500000000E+03 0.  0.
</event>
<event>
 5    0  0.5597833E-005  0.8347662E+03  0.7546771E-02  0.9511014E-01
         21   -1    0    0  502  501  0.00000000000E+00  0.00000000000E+00  0.50323110385E+03  0.50323110385E+03  0.00000000000E+00 0. -1.
         21   -1    0    0  501  502 -0.00000000000E+00 -0.00000000000E+00 -0.13847208944E+04  0.13847208944E+04  0.00000000000E+00 0. -1.
         25    1    1    2    0    0 -0.56497573887E+02  0.27740375704E+03 -0.56103427565E+02  0.31451139067E+03  0.12500000000E+03 0.  0.
         25    1    1    2    0    0 -0.80773737390E+02  0.19325107672E+03  0.27181113746E+03  0.36520770768E+03  0.12500000000E+03 0.  0.
         25    1    1    2    0    0  0.13727131128E+03 -0.47065483376E+03 -0.10971975005E+04  0.12082328999E+04  0.12500000000E+03 0.  0.
</event>
<event>
 5    0  0.5597833E-005  0.3171509E+03  0.7546771E-02  0.1076968E+00
         21   -1    0    0  502  501  0.00000000000E+00  0.00000000000E+00  0.12715073723E+04  0.12715073723E+04  0.00000000000E+00 0.  1.
         21   -1    0    0  501  502 -0.00000000000E+00 -0.00000000000E+00 -0.79106639934E+02  0.79106639934E+02  0.00000000000E+00 0.  1.
         25    1    1    2    0    0  0.34220862180E+02  0.65905943770E+02  0.24063586287E+03  0.28114992323E+03  0.12500000000E+03 0.  0.
         25    1    1    2    0    0 -0.14527734187E+02  0.17314028434E+03  0.36014113711E+03  0.41894540427E+03  0.12500000000E+03 0.  0.
         25    1    1    2    0    0 -0.19693127992E+02 -0.23904622811E+03  0.59162373237E+03  0.65051868472E+03  0.12500000000E+03 0.  0.
</event>
<event>
 5    0  0.5597833E-005  0.3052700E+03  0.7546771E-02  0.1082635E+00
         21   -1    0    0  502  501  0.00000000000E+00  0.00000000000E+00  0.42977648540E+03  0.42977648540E+03  0.00000000000E+00 0.  1.
         21   -1    0    0  501  502 -0.00000000000E+00 -0.00000000000E+00 -0.21683308774E+03  0.21683308774E+03  0.00000000000E+00 0.  1.
         25    1    1    2    0    0  0.39538408696E+02 -0.14498092080E+02  0.21949323755E+03  0.25607764793E+03  0.12500000000E+03 0.  0.
         25    1    1    2    0    0 -0.14773780106E+02  0.15134042435E+03 -0.39220492567E+02  0.20071232065E+03  0.12500000000E+03 0.  0.
         25    1    1    2    0    0 -0.24764628590E+02 -0.13684233227E+03  0.32670652680E+02  0.18981960457E+03  0.12500000000E+03 0.  0.
</event>
<event>
 5    0  0.5597833E-005  0.5537221E+03  0.7546771E-02  0.1000636E+00
         21   -1    0    0  502  501  0.00000000000E+00  0.00000000000E+00  0.43397161805E+03  0.43397161805E+03  0.00000000000E+00 0.  1.
         21   -1    0    0  501  502 -0.00000000000E+00 -0.00000000000E+00 -0.70651670426E+03  0.70651670426E+03  0.00000000000E+00 0.  1.
         25    1    1    2    0    0  0.14378331590E+03 -0.21265688563E+03 -0.90555855212E+02  0.29953623462E+03  0.12500000000E+03 0.  0.
         25    1    1    2    0    0 -0.40804433590E+02 -0.91425266620E+02  0.24475411578E+03  0.29249471511E+03  0.12500000000E+03 0.  0.
         25    1    1    2    0    0 -0.10297888231E+03  0.30408215225E+03 -0.42674334678E+03  0.54845737258E+03  0.12500000000E+03 0.  0.
</event>
<event>
 5    0  0.5597833E-005  0.2068384E+03  0.7546771E-02  0.1144094E+00
         21   -1    0    0  502  501  0.00000000000E+00  0.00000000000E+00  0.36060622351E+02  0.36060622351E+02  0.00000000000E+00 0. -1.
         21   -1    0    0  501  502 -0.00000000000E+00 -0.00000000000E+00 -0.11863941951E+04  0.11863941951E+04  0.00000000000E+00 0. -1.
         25    1    1    2    0    0  0.37920982737E+02  0.37395714717E+02 -0.53108789485E+03  0.54819320724E+03  0.12500000000E+03 0.  0.
         25    1    1    2    0    0 -0.40193602902E+02 -0.51288157709E+02 -0.33017722453E+03  0.35900974977E+03  0.12500000000E+03 0.  0.
         25    1    1    2    0    0  0.22726201651E+01  0.13892442992E+02 -0.28906845339E+03  0.31525186045E+03  0.12500000000E+03 0.  0.
</event>
<event>
 5    0  0.5597833E-005  0.3332368E+03  0.7546771E-02  0.1069714E+00
         21   -1    0    0  502  501  0.00000000000E+00  0.00000000000E+00  0.15352801566E+04  0.15352801566E+04  0.00000000000E+00 0. -1.
         21   -1    0    0  501  502 -0.00000000000E+00 -0.00000000000E+00 -0.72329975360E+02  0.72329975360E+02  0.00000000000E+00 0. -1.
         25    1    1    2    0    0  0.12445796855E+03  0.12546362496E+03  0.22816998267E+03  0.31451144354E+03  0.12500000000E+03 0.  0.
         25    1    1    2    0    0 -0.29391716747E+01 -0.37469427815E+02  0.86622598458E+03  0.87600516729E+03  0.12500000000E+03 0.  0.
         25    1    1    2    0    0 -0.12151879688E+03 -0.87994197143E+02  0.36855421399E+03  0.41709352114E+03  0.12500000000E+03 0.  0.
</event>
<event>
 5    0  0.5597833E-005  0.3204299E+03  0.7546771E-02  0.1075452E+00
         21   -1    0    0  502  501  0.00000000000E+00  0.00000000000E+00  0.22342833012E+03  0.22342833012E+03  0.00000000000E+00 0. -1.
         21   -1    0    0  501  502 -0.00000000000E+00 -0.00000000000E+00 -0.45954488733E+03  0.45954488733E+03  0.00000000000E+00 0. -1.
         25    1    1    2    0    0  0.14742384050E+03 -0.49470462806E+02 -0.14238026325E+03  0.24510865917E+03  0.12500000000E+03 0.  0.
         25    1    1    2    0    0 -0.17002084517E+03  0.15555821778E+03 -0.60676405816E+02  0.26909491473E+03  0.12500000000E+03 0.  0.
         25    1    1    2    0    0  0.22597004666E+02 -0.10608775498E+03 -0.33059888143E+02  0.16876964354E+03  0.12500000000E+03 0.  0.
</event>
<event>
 5    0  0.5597833E-005  0.2526500E+03  0.7546771E-02  0.1111641E+00
         21   -1    0    0  502  501  0.00000000000E+00  0.00000000000E+00  0.16485580357E+03  0.16485580357E+03  0.00000000000E+00 0. -1.
         21   -1    0    0  501  502 -0.00000000000E+00 -0.00000000000E+00 -0.38719905866E+03  0.38719905866E+03  0.00000000000E+00 0. -1.
         25    1    1    2    0    0  0.12184721744E+03 -0.22770988810E+02 -0.17735161060E+03  0.24988768699E+03  0.12500000000E+03 0.  0.
         25    1    1    2    0    0 -0.11203675000E+03  0.31351006692E+02 -0.44589461413E+02  0.17648892045E+03  0.12500000000E+03 0.  0.
         25    1    1    2    0    0 -0.98104674369E+01 -0.85800178823E+01 -0.40218307293E+00  0.12567825480E+03  0.12500000000E+03 0.  0.
</event>
<event>
 5    0  0.5597833E-005  0.3489002E+03  0.7546771E-02  0.1063067E+00
         21   -1    0    0  502  501  0.00000000000E+00  0.00000000000E+00  0.10323975956E+04  0.10323975956E+04  0.00000000000E+00 0. -1.
         21   -1    0    0  501  502 -0.00000000000E+00 -0.00000000000E+00 -0.11791131718E+03  0.11791131718E+03  0.00000000000E+00 0. -1.
         25    1    1    2    0    0 -0.19401939273E+03 -0.16843841515E+03  0.55263355925E+03  0.62212850382E+03  0.12500000000E+03 0.  0.
         25    1    1    2    0    0  0.14005612084E+02  0.73705147917E+02  0.14577796043E+03  0.20616697055E+03  0.12500000000E+03 0.  0.
         25    1    1    2    0    0  0.18001378065E+03  0.94733267233E+02  0.21607475872E+03  0.32201343838E+03  0.12500000000E+03 0.  0.
</event>
<event>
 5    0  0.5597833E-005  0.2881234E+03  0.7546771E-02  0.1091333E+00
         21   -1    0    0  502  501  0.00000000000E+00  0.00000000000E+00  0.35471689865E+02  0.35471689865E+02  0.00000000000E+00 0. -1.
         21   -1    0    0  501  502 -0.00000000000E+00 -0.00000000000E+00 -0.23403194714E+04  0.23403194714E+04  0.00000000000E+00 0. -1.
         25    1    1    2    0    0  0.39841172100E+02  0.51038880559E+02 -0.17332404949E+03  0.22329019785E+03  0.12500000000E+03 0.  0.
         25    1    1    2    0    0 -0.88669872850E+02 -0.32242790063E+02 -0.89774204412E+03  0.91130001736E+03  0.12500000000E+03 0.  0.
         25    1    1    2    0    0  0.48828700750E+02 -0.18796090496E+02 -0.12337816879E+04  0.12412009461E+04  0.12500000000E+03 0.  0.
</event>
<event>
 5    0  0.5597833E-005  0.3659710E+03  0.7546771E-02  0.1056244E+00
         21   -1    0    0  502  501  0.00000000000E+00  0.00000000000E+00  0.53121237879E+03  0.53121237879E+03  0.00000000000E+00 0. -1.
         21   -1    0    0  501  502 -0.00000000000E+00 -0.00000000000E+00 -0.25213033897E+03  0.25213033897E+03  0.00000000000E+00 0. -1.
         25    1    1    2    0    0  0.42343584160E+02 -0.19749269588E+03  0.18669567160E+03  0.30212020429E+03  0.12500000000E+03 0.  0.
         25    1    1    2    0    0 -0.54097714957E+02 -0.10731721440E+02  0.17715719882E+03  0.22372171486E+03  0.12500000000E+03 0.  0.
         25    1    1    2    0    0  0.11754130797E+02  0.20822441732E+03 -0.84770830603E+02  0.25750079860E+03  0.12500000000E+03 0.  0.
</event>
<event>
 5    0  0.6910928E-005  0.2642745E+03  0.7546771E-02  0.1104602E+00
         21   -1    0    0  502  501  0.00000000000E+00  0.00000000000E+00  0.58125996617E+03  0.58125996617E+03  0.00000000000E+00 0.  1.
         21   -1    0    0  501  502 -0.00000000000E+00 -0.00000000000E+00 -0.12015449409E+03  0.12015449409E+03  0.00000000000E+00 0.  1.
         25    1    1    2    0    0  0.47966886762E+02 -0.68633688520E+02  0.28190019668E+03  0.31953736294E+03  0.12500000000E+03 0.  0.
         25    1    1    2    0    0  0.25078393497E+02 -0.45574469043E+02  0.17314969877E+02  0.13649456484E+03  0.12500000000E+03 0.  0.
         25    1    1    2    0    0 -0.73045280259E+02  0.11420815756E+03  0.16189030553E+03  0.24538253248E+03  0.12500000000E+03 0.  0.
</event>
<event>
 5    0  0.5597833E-005  0.2486235E+03  0.7546771E-02  0.1114178E+00
         21   -1    0    0  502  501  0.00000000000E+00  0.00000000000E+00  0.18875024534E+03  0.18875024534E+03  0.00000000000E+00 0. -1.
         21   -1    0    0  501  502 -0.00000000000E+00 -0.00000000000E+00 -0.32748919736E+03  0.32748919736E+03  0.00000000000E+00 0. -1.
         25    1    1    2    0    0 -0.31517979657E+02  0.97151445833E+02 -0.12981260694E+02  0.16194227243E+03  0.12500000000E+03 0.  0.
         25    1    1    2    0    0 -0.19441583248E+02 -0.49285586056E+02 -0.15715030883E+03  0.20767345453E+03  0.12500000000E+03 0.  0.
         25    1    1    2    0    0  0.50959562906E+02 -0.47865859777E+02  0.31392617500E+02  0.14662371574E+03  0.12500000000E+03 0.  0.
</event>
<event>
 5    0  0.5597833E-005  0.2531276E+03  0.7546771E-02  0.1111344E+00
         21   -1    0    0  502  501  0.00000000000E+00  0.00000000000E+00  0.30233879842E+03  0.30233879842E+03  0.00000000000E+00 0.  1.
         21   -1    0    0  501  502 -0.00000000000E+00 -0.00000000000E+00 -0.21192643782E+03  0.21192643782E+03  0.00000000000E+00 0.  1.
         25    1    1    2    0    0  0.10741716548E+01  0.45154160843E+02  0.24961091416E+02  0.13523353198E+03  0.12500000000E+03 0.  0.
         25    1    1    2    0    0  0.75515668369E+02  0.71879194551E+02 -0.34638336789E+02  0.16641529123E+03  0.12500000000E+03 0.  0.
         25    1    1    2    0    0 -0.76589840023E+02 -0.11703335539E+03  0.10008960598E+03  0.21261641304E+03  0.12500000000E+03 0.  0.
</event>
<event>
 5    0  0.5597833E-005  0.2669790E+03  0.7546771E-02  0.1103021E+00
         21   -1    0    0  502  501  0.00000000000E+00  0.00000000000E+00  0.12128110275E+04  0.12128110275E+04  0.00000000000E+00 0. -1.
         21   -1    0    0  501  502 -0.00000000000E+00 -0.00000000000E+00 -0.58770741647E+02  0.58770741647E+02  0.00000000000E+00 0. -1.
         25    1    1    2    0    0  0.89226726798E+02 -0.87010247820E+02  0.63450597352E+03  0.65860080658E+03  0.12500000000E+03 0.  0.
         25    1    1    2    0    0 -0.14503384417E+02  0.36494459841E+02  0.39070537179E+03  0.41208965203E+03  0.12500000000E+03 0.  0.
         25    1    1    2    0    0 -0.74723342381E+02  0.50515787979E+02  0.12882894056E+03  0.20089131056E+03  0.12500000000E+03 0.  0.
</event>
<event>
 5    0  0.5636497E-005  0.3213924E+03  0.7546771E-02  0.1075010E+00
         21   -1    0    0  502  501  0.00000000000E+00  0.00000000000E+00  0.56229432976E+03  0.56229432976E+03  0.00000000000E+00 0. -1.
         21   -1    0    0  501  502 -0.00000000000E+00 -0.00000000000E+00 -0.18369931420E+03  0.18369931420E+03  0.00000000000E+00 0. -1.
         25    1    1    2    0    0 -0.41481566383E+02 -0.87481158461E+02  0.19081801045E+02  0.15925698907E+03  0.12500000000E+03 0.  0.
         25    1    1    2    0    0  0.15530955674E+03  0.59722802762E+02  0.35951880669E+03  0.41541141528E+03  0.12500000000E+03 0.  0.
         25    1    1    2    0    0 -0.11382799036E+03  0.27758355699E+02 -0.55921664397E-02  0.17132523962E+03  0.12500000000E+03 0.  0.
</event>
<event>
 5    0  0.5597833E-005  0.3102954E+03  0.7546771E-02  0.1080204E+00
         21   -1    0    0  502  501  0.00000000000E+00  0.00000000000E+00  0.45520756107E+03  0.45520756107E+03  0.00000000000E+00 0.  1.
         21   -1    0    0  501  502 -0.00000000000E+00 -0.00000000000E+00 -0.21151500293E+03  0.21151500293E+03  0.00000000000E+00 0.  1.
         25    1    1    2    0    0 -0.34827217385E+02 -0.64261775061E+02  0.70726388573E+02  0.16115127317E+03  0.12500000000E+03 0.  0.
         25    1    1    2    0    0  0.12579442454E+03  0.20133046249E+03  0.91287290823E+02  0.28340176753E+03  0.12500000000E+03 0.  0.
         25    1    1    2    0    0 -0.90967207159E+02 -0.13706868743E+03  0.81678878736E+02  0.22216952330E+03  0.12500000000E+03 0.  0.
</event>
<event>
 5    0  0.5597833E-005  0.2139507E+03  0.7546771E-02  0.1138475E+00
         21   -1    0    0  502  501  0.00000000000E+00  0.00000000000E+00  0.61546592596E+02  0.61546592596E+02  0.00000000000E+00 0.  1.
         21   -1    0    0  501  502 -0.00000000000E+00 -0.00000000000E+00 -0.74374372933E+03  0.74374372933E+03  0.00000000000E+00 0.  1.
         25    1    1    2    0    0 -0.28598551910E+02 -0.59684973740E+02 -0.32700764877E+03  0.35628524474E+03  0.12500000000E+03 0.  0.
         25    1    1    2    0    0 -0.19732135518E+01  0.65198434352E+02 -0.14326400908E+03  0.20100822300E+03  0.12500000000E+03 0.  0.
         25    1    1    2    0    0  0.30571765462E+02 -0.55134606118E+01 -0.21192547887E+03  0.24799685419E+03  0.12500000000E+03 0.  0.
</event>
<event>
 5    0  0.5597833E-005  0.5100859E+03  0.7546771E-02  0.1011179E+00
         21   -1    0    0  502  501  0.00000000000E+00  0.00000000000E+00  0.79127157186E+03  0.79127157186E+03  0.00000000000E+00 0. -1.
         21   -1    0    0  501  502 -0.00000000000E+00 -0.00000000000E+00 -0.32882211102E+03  0.32882211102E+03  0.00000000000E+00 0. -1.
         25    1    1    2    0    0  0.10478288441E+03  0.74148764718E+02 -0.36900570415E+02  0.18293207557E+03  0.12500000000E+03 0.  0.
         25    1    1    2    0    0  0.30732985839E+03 -0.11486135591E+03  0.15287164437E+03  0.38293538958E+03  0.12500000000E+03 0.  0.
         25    1    1    2    0    0 -0.41211274279E+03  0.40712591192E+02  0.34647838688E+03  0.55422621774E+03  0.12500000000E+03 0.  0.
</event>
<event>
 5    0  0.5597833E-005  0.3551141E+03  0.7546771E-02  0.1060535E+00
         21   -1    0    0  502  501  0.00000000000E+00  0.00000000000E+00  0.40663770734E+02  0.40663770734E+02  0.00000000000E+00 0.  1.
         21   -1    0    0  501  502 -0.00000000000E+00 -0.00000000000E+00 -0.31011890095E+04  0.31011890095E+04  0.00000000000E+00 0.  1.
         25    1    1    2    0    0  0.13867535320E+03 -0.11062191698E+03 -0.46407428452E+03  0.51230655242E+03  0.12500000000E+03 0.  0.
         25    1    1    2    0    0  0.62334510833E+02  0.14728660088E+02 -0.13441461810E+04  0.13514645687E+04  0.12500000000E+03 0.  0.
         25    1    1    2    0    0 -0.20100986403E+03  0.95893256890E+02 -0.12523047732E+04  0.12780816591E+04  0.12500000000E+03 0.  0.
</event>
<event>
 5    0  0.5597833E-005  0.4187436E+03  0.7546771E-02  0.1037476E+00
         21   -1    0    0  502  501  0.00000000000E+00  0.00000000000E+00  0.58583216086E+03  0.58583216086E+03  0.00000000000E+00 0.  1.
         21   -1    0    0  501  502 -0.00000000000E+00 -0.00000000000E+00 -0.29931127363E+03  0.29931127363E+03  0.00000000000E+00 0.  1.
         25    1    1    2    0    0 -0.68601483205E+02 -0.26016032184E+02  0.42206686737E+03  0.44626050459E+03  0.12500000000E+03 0.  0.
         25    1    1    2    0    0  0.97509388000E+02  0.14813114223E+02 -0.22960003194E+03  0.27940773749E+03  0.12500000000E+03 0.  0.
         25    1    1    2    0    0 -0.28907904795E+02  0.11202917961E+02  0.94054051801E+02  0.15947519240E+03  0.12500000000E+03 0.  0.
</event>
<event>
 5    0  0.5597833E-005  0.2493248E+03  0.7546771E-02  0.1113732E+00
         21   -1    0    0  502  501  0.00000000000E+00  0.00000000000E+00  0.11173784216E+03  0.11173784216E+03  0.00000000000E+00 0.  1.
         21   -1    0    0  501  502 -0.00000000000E+00 -0.00000000000E+00 -0.55632751113E+03  0.55632751113E+03  0.00000000000E+00 0.  1.
         25    1    1    2    0    0  0.47497047133E+02 -0.11416547296E+03 -0.10602411183E+03  0.20531886663E+03  0.12500000000E+03 0.  0.
         25    1    1    2    0    0 -0.60139431024E+02  0.28746166509E+02 -0.79567857397E+02  0.16247811294E+03  0.12500000000E+03 0.  0.
         25    1    1    2    0    0  0.12642383892E+02  0.85419306455E+02 -0.25899769974E+03  0.30026837372E+03  0.12500000000E+03 0.  0.
</event>
<event>
 5    0  0.5597833E-005  0.4113841E+03  0.7546771E-02  0.1039908E+00
         21   -1    0    0  502  501  0.00000000000E+00  0.00000000000E+00  0.34056234190E+03  0.34056234190E+03  0.00000000000E+00 0. -1.
         21   -1    0    0  501  502 -0.00000000000E+00 -0.00000000000E+00 -0.49693357468E+03  0.49693357468E+03  0.00000000000E+00 0. -1.
         25    1    1    2    0    0  0.13705966842E+02 -0.82983785486E+02  0.43936168299E+02  0.15693804212E+03  0.12500000000E+03 0.  0.
         25    1    1    2    0    0 -0.19631578649E+03  0.95625467174E+02  0.12965795649E+03  0.28305530145E+03  0.12500000000E+03 0.  0.
         25    1    1    2    0    0  0.18260981965E+03 -0.12641681688E+02 -0.32996535757E+03  0.39750257301E+03  0.12500000000E+03 0.  0.
</event>
<event>
 5    0  0.5597833E-005  0.2633137E+03  0.7546771E-02  0.1105168E+00
         21   -1    0    0  502  501  0.00000000000E+00  0.00000000000E+00  0.45913988840E+03  0.45913988840E+03  0.00000000000E+00 0. -1.
         21   -1    0    0  501  502 -0.00000000000E+00 -0.00000000000E+00 -0.15100867962E+03  0.15100867962E+03  0.00000000000E+00 0. -1.
         25    1    1    2    0    0 -0.46579901327E+02  0.16904134848E+02 -0.24307819775E+02  0.13664299135E+03  0.12500000000E+03 0.  0.
         25    1    1    2    0    0  0.36395258957E+02  0.87389767562E+02  0.88486853425E+02  0.18004585410E+03  0.12500000000E+03 0.  0.
         25    1    1    2    0    0  0.10184642370E+02 -0.10429390241E+03  0.24395217513E+03  0.29345972257E+03  0.12500000000E+03 0.  0.
</event>
<event>
 5    0  0.5597833E-005  0.2916695E+03  0.7546771E-02  0.1089481E+00
         21   -1    0    0  502  501  0.00000000000E+00  0.00000000000E+00  0.73775267899E+02  0.73775267899E+02  0.00000000000E+00 0.  1.
         21   -1    0    0  501  502 -0.00000000000E+00 -0.00000000000E+00 -0.11531110901E+04  0.11531110901E+04  0.00000000000E+00 0.  1.
         25    1    1    2    0    0  0.49458813441E+02  0.10243576015E+03 -0.25409761041E+03  0.30517184470E+03  0.12500000000E+03 0.  0.
         25    1    1    2    0    0  0.93266674052E+02 -0.68594925222E+02 -0.17802608070E+03  0.24641879325E+03  0.12500000000E+03 0.  0.
         25    1    1    2    0    0 -0.14272548749E+03 -0.33840834923E+02 -0.64721213109E+03  0.67529572005E+03  0.12500000000E+03 0.  0.
</event>
<event>
 5    0  0.5597833E-005  0.5903642E+03  0.7546771E-02  0.9925601E-01
         21   -1    0    0  502  501  0.00000000000E+00  0.00000000000E+00  0.37159434742E+03  0.37159434742E+03  0.00000000000E+00 0. -1.
         21   -1    0    0  501  502 -0.00000000000E+00 -0.00000000000E+00 -0.93793111349E+03  0.93793111349E+03  0.00000000000E+00 0. -1.
         25    1    1    2    0    0  0.50479344512E+02  0.12807204919E+03  0.10025635866E+03  0.21125092060E+03  0.12500000000E+03 0.  0.
         25    1    1    2    0    0 -0.73582466457E+02  0.22915230233E+03  0.60850367950E+02  0.27794410285E+03  0.12500000000E+03 0.  0.
         25    1    1    2    0    0  0.23103121945E+02 -0.35722435151E+03 -0.72744349268E+03  0.82033043744E+03  0.12500000000E+03 0.  0.
</event>
<event>
 5    0  0.5597833E-005  0.2118945E+03  0.7546771E-02  0.1140074E+00
         21   -1    0    0  502  501  0.00000000000E+00  0.00000000000E+00  0.58330635145E+03  0.58330635145E+03  0.00000000000E+00 0.  1.
         21   -1    0    0  501  502 -0.00000000000E+00 -0.00000000000E+00 -0.76973764527E+02  0.76973764527E+02  0.00000000000E+00 0.  1.
         25    1    1    2    0    0  0.64138606422E+01 -0.76009646131E+02  0.13674327097E+03  0.20035549922E+03  0.12500000000E+03 0.  0.
         25    1    1    2    0    0 -0.28172890544E+01  0.76676039980E+02  0.22706258127E+03  0.27031383249E+03  0.12500000000E+03 0.  0.
         25    1    1    2    0    0 -0.35965715878E+01 -0.66639384927E+00  0.14252673468E+03  0.18961078426E+03  0.12500000000E+03 0.  0.
</event>
<event>
 5    0  0.5597833E-005  0.6952179E+03  0.7546771E-02  0.9725445E-01
         21   -1    0    0  502  501  0.00000000000E+00  0.00000000000E+00  0.27002261928E+03  0.27002261928E+03  0.00000000000E+00 0. -1.
         21   -1    0    0  501  502 -0.00000000000E+00 -0.00000000000E+00 -0.17899534015E+04  0.17899534015E+04  0.00000000000E+00 0. -1.
         25    1    1    2    0    0 -0.63030878987E+03  0.38199079217E+02 -0.68585883075E+03  0.94062515167E+03  0.12500000000E+03 0.  0.
         25    1    1    2    0    0  0.35685583218E+03  0.48256698817E+02 -0.24726706431E+03  0.45435756298E+03  0.12500000000E+03 0.  0.
         25    1    1    2    0    0  0.27345295768E+03 -0.86455778034E+02 -0.58680488720E+03  0.66499330618E+03  0.12500000000E+03 0.  0.
</event>
<event>
 5    0  0.5597833E-005  0.2855500E+03  0.7546771E-02  0.1092696E+00
         21   -1    0    0  502  501  0.00000000000E+00  0.00000000000E+00  0.14114620577E+03  0.14114620577E+03  0.00000000000E+00 0. -1.
         21   -1    0    0  501  502 -0.00000000000E+00 -0.00000000000E+00 -0.57769050231E+03  0.57769050231E+03  0.00000000000E+00 0. -1.
         25    1    1    2    0    0  0.29972034440E+02  0.13037848410E+03 -0.83592041689E+02  0.20126972301E+03  0.12500000000E+03 0.  0.
         25    1    1    2    0    0 -0.11265807606E+03 -0.21401406977E+02 -0.25951636173E+03  0.31003806916E+03  0.12500000000E+03 0.  0.
         25    1    1    2    0    0  0.82686041617E+02 -0.10897707713E+03 -0.93435893119E+02  0.20752891591E+03  0.12500000000E+03 0.  0.
</event>
<event>
 5    0  0.5597833E-005  0.2268400E+03  0.7546771E-02  0.1128884E+00
         21   -1    0    0  502  501  0.00000000000E+00  0.00000000000E+00  0.76248799067E+02  0.76248799067E+02  0.00000000000E+00 0. -1.
         21   -1    0    0  501  502 -0.00000000000E+00 -0.00000000000E+00 -0.67484836475E+03  0.67484836475E+03  0.00000000000E+00 0. -1.
         25    1    1    2    0    0 -0.96241724425E+02  0.17370150491E+02 -0.18272230135E+03  0.24202609582E+03  0.12500000000E+03 0.  0.
         25    1    1    2    0    0  0.50156890378E+02  0.47903144519E+02 -0.17242356373E+03  0.22397613765E+03  0.12500000000E+03 0.  0.
         25    1    1    2    0    0  0.46084834047E+02 -0.65273295010E+02 -0.24345370061E+03  0.28509493035E+03  0.12500000000E+03 0.  0.
</event>
<event>
 5    0  0.5597833E-005  0.3889555E+03  0.7546771E-02  0.1047673E+00
         21   -1    0    0  502  501  0.00000000000E+00  0.00000000000E+00  0.51305378612E+03  0.51305378612E+03  0.00000000000E+00 0. -1.
         21   -1    0    0  501  502 -0.00000000000E+00 -0.00000000000E+00 -0.29487430376E+03  0.29487430376E+03  0.00000000000E+00 0. -1.
         25    1    1    2    0    0  0.26877523896E+03  0.11899163831E+03  0.23694672785E+03  0.39770326992E+03  0.12500000000E+03 0.  0.
         25    1    1    2    0    0 -0.90092705739E+02  0.12913964278E+02  0.71575206323E+00  0.15462528384E+03  0.12500000000E+03 0.  0.
         25    1    1    2    0    0 -0.17868253322E+03 -0.13190560258E+03 -0.19482997551E+02  0.25559953612E+03  0.12500000000E+03 0.  0.
</event>
<event>
 5    0  0.5597833E-005  0.2205915E+03  0.7546771E-02  0.1133443E+00
         21   -1    0    0  502  501  0.00000000000E+00  0.00000000000E+00  0.35038877799E+03  0.35038877799E+03  0.00000000000E+00 0. -1.
         21   -1    0    0  501  502 -0.00000000000E+00 -0.00000000000E+00 -0.13887601219E+03  0.13887601219E+03  0.00000000000E+00 0. -1.
         25    1    1    2    0    0 -0.11186272364E+02  0.68711669052E+02  0.13175199621E+03  0.19449939501E+03  0.12500000000E+03 0.  0.
         25    1    1    2    0    0  0.50379829303E+02  0.17169039181E+01  0.31681556517E+02  0.13845503235E+03  0.12500000000E+03 0.  0.
         25    1    1    2    0    0 -0.39193556939E+02 -0.70428572970E+02  0.48079213064E+02  0.15631036282E+03  0.12500000000E+03 0.  0.
</event>
<event>
 5    0  0.6809030E-005  0.3423958E+03  0.7546771E-02  0.1065780E+00
         21   -1    0    0  502  501  0.00000000000E+00  0.00000000000E+00  0.53338981056E+03  0.53338981056E+03  0.00000000000E+00 0. -1.
         21   -1    0    0  501  502 -0.00000000000E+00 -0.00000000000E+00 -0.21979215473E+03  0.21979215473E+03  0.00000000000E+00 0. -1.
         25    1    1    2    0    0  0.93697892579E+01 -0.16799384797E+03  0.39801196018E+02  0.21335149662E+03  0.12500000000E+03 0.  0.
         25    1    1    2    0    0 -0.12393451662E+03  0.19094636623E+03  0.26108579219E+03  0.36825408358E+03  0.12500000000E+03 0.  0.
         25    1    1    2    0    0  0.11456472736E+03 -0.22952518266E+02  0.12710667613E+02  0.17157638509E+03  0.12500000000E+03 0.  0.
</event>
<event>
 5    0  0.5597833E-005  0.2716461E+03  0.7546771E-02  0.1100341E+00
         21   -1    0    0  502  501  0.00000000000E+00  0.00000000000E+00  0.11716375170E+04  0.11716375170E+04  0.00000000000E+00 0.  1.
         21   -1    0    0  501  502 -0.00000000000E+00 -0.00000000000E+00 -0.62981601583E+02  0.62981601583E+02  0.00000000000E+00 0.  1.
         25    1    1    2    0    0 -0.18774459052E+02  0.34535865869E+02  0.53405239044E+03  0.54989286418E+03  0.12500000000E+03 0.  0.
         25    1    1    2    0    0 -0.71635598402E+02 -0.29574438701E+02  0.81749642928E+02  0.16826856659E+03  0.12500000000E+03 0.  0.
         25    1    1    2    0    0  0.90410057454E+02 -0.49614271678E+01  0.49285388203E+03  0.51645768779E+03  0.12500000000E+03 0.  0.
</event>
<event>
 5    0  0.5597833E-005  0.2446144E+03  0.7546771E-02  0.1116756E+00
         21   -1    0    0  502  501  0.00000000000E+00  0.00000000000E+00  0.23044505984E+03  0.23044505984E+03  0.00000000000E+00 0. -1.
         21   -1    0    0  501  502 -0.00000000000E+00 -0.00000000000E+00 -0.25965504984E+03  0.25965504984E+03  0.00000000000E+00 0. -1.
         25    1    1    2    0    0  0.10221233181E+03 -0.94618211401E+02  0.32924665472E+02  0.19002368352E+03  0.12500000000E+03 0.  0.
         25    1    1    2    0    0 -0.74508661984E+02  0.36244753080E+02 -0.11034602108E+02  0.15037282095E+03  0.12500000000E+03 0.  0.
         25    1    1    2    0    0 -0.27703669828E+02  0.58373458321E+02 -0.51100053369E+02  0.14970360521E+03  0.12500000000E+03 0.  0.
</event>
<event>
 5    0  0.5597833E-005  0.3265893E+03  0.7546771E-02  0.1072656E+00
         21   -1    0    0  502  501  0.00000000000E+00  0.00000000000E+00  0.78336657766E+03  0.78336657766E+03  0.00000000000E+00 0.  1.
         21   -1    0    0  501  502 -0.00000000000E+00 -0.00000000000E+00 -0.13615666042E+03  0.13615666042E+03  0.00000000000E+00 0.  1.
         25    1    1    2    0    0 -0.17084442210E+03 -0.70400487934E+02  0.12851093632E+03  0.25745699839E+03  0.12500000000E+03 0.  0.
         25    1    1    2    0    0  0.16973010755E+03  0.15256239305E+03  0.35726278313E+03  0.44197883365E+03  0.12500000000E+03 0.  0.
         25    1    1    2    0    0  0.11143145493E+01 -0.82161905111E+02  0.16143619778E+03  0.22008740605E+03  0.12500000000E+03 0.  0.
</event>
<event>
 5    0  0.5597833E-005  0.4193121E+03  0.7546771E-02  0.1037290E+00
         21   -1    0    0  502  501  0.00000000000E+00  0.00000000000E+00  0.26356864463E+03  0.26356864463E+03  0.00000000000E+00 0. -1.
         21   -1    0    0  501  502 -0.00000000000E+00 -0.00000000000E+00 -0.66708477227E+03  0.66708477227E+03  0.00000000000E+00 0. -1.
         25    1    1    2    0    0 -0.17901242885E+03 -0.21634408782E+03  0.27143822915E+02  0.30856441976E+03  0.12500000000E+03 0.  0.
         25    1    1    2    0    0  0.39445309754E+02  0.10031532983E+03 -0.35079205243E+03  0.38768435861E+03  0.12500000000E+03 0.  0.
         25    1    1    2    0    0  0.13956711909E+03  0.11602875800E+03 -0.79867898120E+02  0.23440463853E+03  0.12500000000E+03 0.  0.
</event>
<event>
 5    0  0.5597833E-005  0.2290391E+03  0.7546771E-02  0.1127318E+00
         21   -1    0    0  502  501  0.00000000000E+00  0.00000000000E+00  0.43194734365E+03  0.43194734365E+03  0.00000000000E+00 0.  1.
         21   -1    0    0  501  502 -0.00000000000E+00 -0.00000000000E+00 -0.12144749772E+03  0.12144749772E+03  0.00000000000E+00 0.  1.
         25    1    1    2    0    0  0.29391608707E+02 -0.65511023656E+02  0.60760256609E+02  0.15643647166E+03  0.12500000000E+03 0.  0.
         25    1    1    2    0    0  0.47340232989E+02  0.43680041740E+02  0.52294103901E+02  0.15002905388E+03  0.12500000000E+03 0.  0.
         25    1    1    2    0    0 -0.76731841696E+02  0.21830981917E+02  0.19744548542E+03  0.24692931582E+03  0.12500000000E+03 0.  0.
</event>
<event>
 5    0  0.5597833E-005  0.5349862E+03  0.7546771E-02  0.1005030E+00
         21   -1    0    0  502  501  0.00000000000E+00  0.00000000000E+00  0.21222390512E+04  0.21222390512E+04  0.00000000000E+00 0.  1.
         21   -1    0    0  501  502 -0.00000000000E+00 -0.00000000000E+00 -0.13486238621E+03  0.13486238621E+03  0.00000000000E+00 0.  1.
         25    1    1    2    0    0  0.28509075136E+03 -0.11754281996E+03  0.15994723644E+03  0.36918988269E+03  0.12500000000E+03 0.  0.
         25    1    1    2    0    0 -0.17098354870E+03  0.76725158155E+02  0.15023541791E+04  0.15191495000E+04  0.12500000000E+03 0.  0.
         25    1    1    2    0    0 -0.11410720266E+03  0.40817661801E+02  0.32507524944E+03  0.36876205473E+03  0.12500000000E+03 0.  0.
</event>
<event>
 5    0  0.5597833E-005  0.3540436E+03  0.7546771E-02  0.1060968E+00
         21   -1    0    0  502  501  0.00000000000E+00  0.00000000000E+00  0.77827590080E+03  0.77827590080E+03  0.00000000000E+00 0. -1.
         21   -1    0    0  501  502 -0.00000000000E+00 -0.00000000000E+00 -0.16105708661E+03  0.16105708661E+03  0.00000000000E+00 0. -1.
         25    1    1    2    0    0  0.75475982068E+02  0.25996998323E+02  0.34449420910E+03  0.37506496490E+03  0.12500000000E+03 0.  0.
         25    1    1    2    0    0 -0.84800136849E+02 -0.10212699443E+03 -0.66988390651E+02  0.19425094770E+03  0.12500000000E+03 0.  0.
         25    1    1    2    0    0  0.93241547813E+01  0.76129996107E+02  0.33971299575E+03  0.37001707481E+03  0.12500000000E+03 0.  0.
</event>
<event>
 5    0  0.5597833E-005  0.4776760E+03  0.7546771E-02  0.1019776E+00
         21   -1    0    0  502  501  0.00000000000E+00  0.00000000000E+00  0.42739161959E+03  0.42739161959E+03  0.00000000000E+00 0.  1.
         21   -1    0    0  501  502 -0.00000000000E+00 -0.00000000000E+00 -0.53387651563E+03  0.53387651563E+03  0.00000000000E+00 0.  1.
         25    1    1    2    0    0 -0.14232683085E+03  0.13006551409E+03  0.64872327844E+02  0.23876219059E+03  0.12500000000E+03 0.  0.
         25    1    1    2    0    0  0.28125740268E+03 -0.22845574289E+03  0.82698658727E+02  0.39212475206E+03  0.12500000000E+03 0.  0.
         25    1    1    2    0    0 -0.13893057183E+03  0.98390228799E+02 -0.25405588261E+03  0.33038119257E+03  0.12500000000E+03 0.  0.
</event>
<event>
 5    0  0.5597833E-005  0.3529660E+03  0.7546771E-02  0.1061404E+00
         21   -1    0    0  502  501  0.00000000000E+00  0.00000000000E+00  0.73536306387E+03  0.73536306387E+03  0.00000000000E+00 0. -1.
         21   -1    0    0  501  502 -0.00000000000E+00 -0.00000000000E+00 -0.16941973456E+03  0.16941973456E+03  0.00000000000E+00 0. -1.
         25    1    1    2    0    0  0.67289449399E+01  0.18654105840E+02  0.10629065906E+03  0.16527540218E+03  0.12500000000E+03 0.  0.
         25    1    1    2    0    0 -0.11683284220E+03  0.22258067355E+03  0.17459357845E+03  0.33060548527E+03  0.12500000000E+03 0.  0.
         25    1    1    2    0    0  0.11010389726E+03 -0.24123477939E+03  0.28505909180E+03  0.40890191098E+03  0.12500000000E+03 0.  0.
</event>
<event>
 5    0  0.5597833E-005  0.3315945E+03  0.7546771E-02  0.1070434E+00
         21   -1    0    0  502  501  0.00000000000E+00  0.00000000000E+00  0.61775904097E+02  0.61775904097E+02  0.00000000000E+00 0. -1.
         21   -1    0    0  501  502 -0.00000000000E+00 -0.00000000000E+00 -0.17799001654E+04  0.17799001654E+04  0.00000000000E+00 0. -1.
         25    1    1    2    0    0  0.10467066984E+03  0.81863096736E+02 -0.31577892594E+03  0.36469006814E+03  0.12500000000E+03 0.  0.
         25    1    1    2    0    0  0.22283107998E+02 -0.19731867618E+03 -0.92963891682E+03  0.95879336279E+03  0.12500000000E+03 0.  0.
         25    1    1    2    0    0 -0.12695377784E+03  0.11545557944E+03 -0.47270641857E+03  0.51819263859E+03  0.12500000000E+03 0.  0.
</event>
<event>
 5    0  0.5597833E-005  0.2785646E+03  0.7546771E-02  0.1096476E+00
         21   -1    0    0  502  501  0.00000000000E+00  0.00000000000E+00  0.19570398147E+03  0.19570398147E+03  0.00000000000E+00 0.  1.
         21   -1    0    0  501  502 -0.00000000000E+00 -0.00000000000E+00 -0.39650813579E+03  0.39650813579E+03  0.00000000000E+00 0.  1.
         25    1    1    2    0    0  0.66665702222E+01  0.11736951979E+03 -0.13379661027E+03  0.21759269348E+03  0.12500000000E+03 0.  0.
         25    1    1    2    0    0 -0.65027976515E+02 -0.92875518761E+02  0.66213259031E+02  0.18128346694E+03  0.12500000000E+03 0.  0.
         25    1    1    2    0    0  0.58361406293E+02 -0.24494001033E+02 -0.13322080308E+03  0.19333595683E+03  0.12500000000E+03 0.  0.
</event>
<event>
 5    0  0.5597833E-005  0.4423145E+03  0.7546771E-02  0.1030039E+00
         21   -1    0    0  502  501  0.00000000000E+00  0.00000000000E+00  0.75207454986E+03  0.75207454986E+03  0.00000000000E+00 0. -1.
         21   -1    0    0  501  502 -0.00000000000E+00 -0.00000000000E+00 -0.26013663233E+03  0.26013663233E+03  0.00000000000E+00 0. -1.
         25    1    1    2    0    0  0.49422292730E+01 -0.33182770609E+02  0.15167801229E+03  0.19939092584E+03  0.12500000000E+03 0.  0.
         25    1    1    2    0    0 -0.33416646823E+03 -0.48004513789E+02  0.25598916430E+03  0.44173194821E+03  0.12500000000E+03 0.  0.
         25    1    1    2    0    0  0.32922423895E+03  0.81187284399E+02  0.84270740937E+02  0.37108830814E+03  0.12500000000E+03 0.  0.
</event>
<event>
 5    0  0.5597833E-005  0.3484994E+03  0.7546771E-02  0.1063233E+00
         21   -1    0    0  502  501  0.00000000000E+00  0.00000000000E+00  0.79769825516E+03  0.79769825516E+03  0.00000000000E+00 0. -1.
         21   -1    0    0  501  502 -0.00000000000E+00 -0.00000000000E+00 -0.15225281957E+03  0.15225281957E+03  0.00000000000E+00 0. -1.
         25    1    1    2    0    0 -0.17366192433E+02 -0.93579445379E+02 -0.65750035572E+02  0.17031372351E+03  0.12500000000E+03 0.  0.
         25    1    1    2    0    0  0.71509174287E+02  0.75975510885E+02  0.24937285422E+03  0.29782152488E+03  0.12500000000E+03 0.  0.
         25    1    1    2    0    0 -0.54142981854E+02  0.17603934494E+02  0.46182261694E+03  0.48181582634E+03  0.12500000000E+03 0.  0.
</event>
<event>
 5    0  0.5597833E-005  0.2329639E+03  0.7546771E-02  0.1124571E+00
         21   -1    0    0  502  501  0.00000000000E+00  0.00000000000E+00  0.16333319996E+03  0.16333319996E+03  0.00000000000E+00 0.  1.
         21   -1    0    0  501  502 -0.00000000000E+00 -0.00000000000E+00 -0.33227893821E+03  0.33227893821E+03  0.00000000000E+00 0.  1.
         25    1    1    2    0    0  0.12476278544E+02 -0.81730242051E+02 -0.10625389398E+03  0.18371276487E+03  0.12500000000E+03 0.  0.
         25    1    1    2    0    0 -0.66789082892E+02  0.24499672592E+02 -0.77436593920E+02  0.16334760980E+03  0.12500000000E+03 0.  0.
         25    1    1    2    0    0  0.54312804348E+02  0.57230569458E+02  0.14744749643E+02  0.14855176350E+03  0.12500000000E+03 0.  0.
</event>
<event>
 5    0  0.5597833E-005  0.4207084E+03  0.7546771E-02  0.1036836E+00
         21   -1    0    0  502  501  0.00000000000E+00  0.00000000000E+00  0.40275348628E+03  0.40275348628E+03  0.00000000000E+00 0. -1.
         21   -1    0    0  501  502 -0.00000000000E+00 -0.00000000000E+00 -0.43946381537E+03  0.43946381537E+03  0.00000000000E+00 0. -1.
         25    1    1    2    0    0  0.12297736547E+03 -0.94095705705E+01  0.13515941188E+03  0.22159656824E+03  0.12500000000E+03 0.  0.
         25    1    1    2    0    0 -0.22220279411E+03  0.35403486066E+02  0.12227375302E+03  0.28496203118E+03  0.12500000000E+03 0.  0.
         25    1    1    2    0    0  0.99225428638E+02 -0.25993915496E+02 -0.29414349399E+03  0.33565870224E+03  0.12500000000E+03 0.  0.
</event>
<event>
 5    0  0.5597833E-005  0.2914257E+03  0.7546771E-02  0.1089607E+00
         21   -1    0    0  502  501  0.00000000000E+00  0.00000000000E+00  0.13885396905E+04  0.13885396905E+04  0.00000000000E+00 0. -1.
         21   -1    0    0  501  502 -0.00000000000E+00 -0.00000000000E+00 -0.61164231909E+02  0.61164231909E+02  0.00000000000E+00 0. -1.
         25    1    1    2    0    0  0.42929683780E+02 -0.12003066644E+03  0.16965447727E+03  0.24628836817E+03  0.12500000000E+03 0.  0.
         25    1    1    2    0    0 -0.10543586518E+03  0.79340732019E+02  0.69238903116E+03  0.71584861800E+03  0.12500000000E+03 0.  0.
         25    1    1    2    0    0  0.62506181403E+02  0.40689934418E+02  0.46533195011E+03  0.48756693620E+03  0.12500000000E+03 0.  0.
</event>
<event>
 5    0  0.5597833E-005  0.3139200E+03  0.7546771E-02  0.1078482E+00
         21   -1    0    0  502  501  0.00000000000E+00  0.00000000000E+00  0.17125105488E+03  0.17125105488E+03  0.00000000000E+00 0.  1.
         21   -1    0    0  501  502 -0.00000000000E+00 -0.00000000000E+00 -0.57544604099E+03  0.57544604099E+03  0.00000000000E+00 0.  1.
         25    1    1    2    0    0  0.12194119633E+03  0.22320106937E+02 -0.21339219374E+03  0.27663888173E+03  0.12500000000E+03 0.  0.
         25    1    1    2    0    0 -0.22958924410E+03 -0.22159526680E+01 -0.13846412416E+03  0.29582671470E+03  0.12500000000E+03 0.  0.
         25    1    1    2    0    0  0.10764804777E+03 -0.20104154269E+02 -0.52338668212E+02  0.17423149944E+03  0.12500000000E+03 0.  0.
</event>
<event>
 5    0  0.6038970E-005  0.3246669E+03  0.7546771E-02  0.1073521E+00
         21   -1    0    0  502  501  0.00000000000E+00  0.00000000000E+00  0.77756492894E+03  0.77756492894E+03  0.00000000000E+00 0. -1.
         21   -1    0    0  501  502 -0.00000000000E+00 -0.00000000000E+00 -0.13556243733E+03  0.13556243733E+03  0.00000000000E+00 0. -1.
         25    1    1    2    0    0 -0.17243044173E+03  0.13777083024E+03  0.32336951574E+03  0.41098163293E+03  0.12500000000E+03 0.  0.
         25    1    1    2    0    0  0.15168828646E+03 -0.58014233929E+02  0.28095246269E+03  0.34775605513E+03  0.12500000000E+03 0.  0.
         25    1    1    2    0    0  0.20742155266E+02 -0.79756596314E+02  0.37680513178E+02  0.15438967820E+03  0.12500000000E+03 0.  0.
</event>
<event>
 5    0  0.5597833E-005  0.2893479E+03  0.7546771E-02  0.1090690E+00
         21   -1    0    0  502  501  0.00000000000E+00  0.00000000000E+00  0.14309050750E+04  0.14309050750E+04  0.00000000000E+00 0.  1.
         21   -1    0    0  501  502 -0.00000000000E+00 -0.00000000000E+00 -0.58509969895E+02  0.58509969895E+02  0.00000000000E+00 0.  1.
         25    1    1    2    0    0 -0.54354948247E+02  0.54425053765E+02  0.64168240372E+03  0.65825363965E+03  0.12500000000E+03 0.  0.
         25    1    1    2    0    0  0.15973728873E+03 -0.42599178508E+02  0.54700185608E+03  0.58495018760E+03  0.12500000000E+03 0.  0.
         25    1    1    2    0    0 -0.10538234048E+03 -0.11825875257E+02  0.18371084533E+03  0.24621121766E+03  0.12500000000E+03 0.  0.
</event>
<event>
 5    0  0.5597833E-005  0.3340968E+03  0.7546771E-02  0.1069338E+00
         21   -1    0    0  502  501  0.00000000000E+00  0.00000000000E+00  0.14084565092E+04  0.14084565092E+04  0.00000000000E+00 0.  1.
         21   -1    0    0  501  502 -0.00000000000E+00 -0.00000000000E+00 -0.79250350521E+02  0.79250350521E+02  0.00000000000E+00 0.  1.
         25    1    1    2    0    0 -0.12521198747E+03 -0.97751049166E+02  0.72710630800E+03  0.75467999348E+03  0.12500000000E+03 0.  0.
         25    1    1    2    0    0  0.17533216175E+03  0.13850410519E+03  0.26866941450E+03  0.37112397980E+03  0.12500000000E+03 0.  0.
         25    1    1    2    0    0 -0.50120174277E+02 -0.40753056028E+02  0.33343043621E+03  0.36190288647E+03  0.12500000000E+03 0.  0.
</event>
<event>
 5    0  0.5597833E-005  0.3035223E+03  0.7546771E-02  0.1083493E+00
         21   -1    0    0  502  501  0.00000000000E+00  0.00000000000E+00  0.85144197989E+02  0.85144197989E+02  0.00000000000E+00 0.  1.
         21   -1    0    0  501  502 -0.00000000000E+00 -0.00000000000E+00 -0.10819972452E+04  0.10819972452E+04  0.00000000000E+00 0.  1.
         25    1    1    2    0    0  0.11963127483E+03  0.32776027611E+02 -0.60637705607E+03  0.63143015768E+03  0.12500000000E+03 0.  0.
         25    1    1    2    0    0 -0.21594704858E+02 -0.12553180874E+03 -0.15125742242E+03  0.23394096290E+03  0.12500000000E+03 0.  0.
         25    1    1    2    0    0 -0.98036569968E+02  0.92755781132E+02 -0.23921856870E+03  0.30177032259E+03  0.12500000000E+03 0.  0.
</event>
<event>
 5    0  0.5597833E-005  0.2904499E+03  0.7546771E-02  0.1090115E+00
         21   -1    0    0  502  501  0.00000000000E+00  0.00000000000E+00  0.45597995674E+03  0.45597995674E+03  0.00000000000E+00 0. -1.
         21   -1    0    0  501  502 -0.00000000000E+00 -0.00000000000E+00 -0.18501058758E+03  0.18501058758E+03  0.00000000000E+00 0. -1.
         25    1    1    2    0    0 -0.10077918472E+03  0.77743225384E+02  0.29537131717E+03  0.34506473041E+03  0.12500000000E+03 0.  0.
         25    1    1    2    0    0  0.10565757522E+02 -0.13902825487E+02  0.58756166514E+01  0.12635049133E+03  0.12500000000E+03 0.  0.
         25    1    1    2    0    0  0.90213427194E+02 -0.63840399897E+02 -0.30277564658E+02  0.16957532258E+03  0.12500000000E+03 0.  0.
</event>
<event>
 5    0  0.5597833E-005  0.3026458E+03  0.7546771E-02  0.1083925E+00
         21   -1    0    0  502  501  0.00000000000E+00  0.00000000000E+00  0.28388908521E+03  0.28388908521E+03  0.00000000000E+00 0. -1.
         21   -1    0    0  501  502 -0.00000000000E+00 -0.00000000000E+00 -0.32264170825E+03  0.32264170825E+03  0.00000000000E+00 0. -1.
         25    1    1    2    0    0  0.19768233992E+02 -0.15774325800E+03 -0.11611540398E+03  0.23319842530E+03  0.12500000000E+03 0.  0.
         25    1    1    2    0    0 -0.11106549497E+03  0.93145177873E+02  0.75029322867E+02  0.20558688583E+03  0.12500000000E+03 0.  0.
         25    1    1    2    0    0  0.91297260981E+02  0.64598080123E+02  0.23334580797E+01  0.16774548234E+03  0.12500000000E+03 0.  0.
</event>
<event>
 5    0  0.5597833E-005  0.2634872E+03  0.7546771E-02  0.1105066E+00
         21   -1    0    0  502  501  0.00000000000E+00  0.00000000000E+00  0.47950879709E+03  0.47950879709E+03  0.00000000000E+00 0.  1.
         21   -1    0    0  501  502 -0.00000000000E+00 -0.00000000000E+00 -0.14478466637E+03  0.14478466637E+03  0.00000000000E+00 0.  1.
         25    1    1    2    0    0  0.46982354166E+02 -0.11839195188E+02  0.42444128760E+02  0.14062009889E+03  0.12500000000E+03 0.  0.
         25    1    1    2    0    0 -0.12950426086E+03  0.88303084982E+02  0.22807075510E+03  0.30366109024E+03  0.12500000000E+03 0.  0.
         25    1    1    2    0    0  0.82521906692E+02 -0.76463889794E+02  0.64209246856E+02  0.18001227433E+03  0.12500000000E+03 0.  0.
</event>
<event>
 5    0  0.5597833E-005  0.2180956E+03  0.7546771E-02  0.1135311E+00
         21   -1    0    0  502  501  0.00000000000E+00  0.00000000000E+00  0.16819158070E+02  0.16819158070E+02  0.00000000000E+00 0.  1.
         21   -1    0    0  501  502 -0.00000000000E+00 -0.00000000000E+00 -0.28280653216E+04  0.28280653216E+04  0.00000000000E+00 0.  1.
         25    1    1    2    0    0  0.50742843003E+02 -0.13959833575E+02 -0.95703126508E+03  0.96659379028E+03  0.12500000000E+03 0.  0.
         25    1    1    2    0    0 -0.17106507808E+02  0.71809573089E+02 -0.66546920487E+03  0.68111930675E+03  0.12500000000E+03 0.  0.
         25    1    1    2    0    0 -0.33636335195E+02 -0.57849739515E+02 -0.11887456936E+04  0.11971713826E+04  0.12500000000E+03 0.  0.
</event>
<event>
 5    0  0.5597833E-005  0.4765137E+03  0.7546771E-02  0.1020098E+00
         21   -1    0    0  502  501  0.00000000000E+00  0.00000000000E+00  0.96992664301E+03  0.96992664301E+03  0.00000000000E+00 0. -1.
         21   -1    0    0  501  502 -0.00000000000E+00 -0.00000000000E+00 -0.23410562361E+03  0.23410562361E+03  0.00000000000E+00 0. -1.
         25    1    1    2    0    0  0.64865943691E+02  0.14897819061E+03  0.42047563601E+03  0.46778932481E+03  0.12500000000E+03 0.  0.
         25    1    1    2    0    0  0.36867585000E+01  0.10669680335E+03  0.39921032435E+03  0.43173103097E+03  0.12500000000E+03 0.  0.
         25    1    1    2    0    0 -0.68552702191E+02 -0.25567499396E+03 -0.83864940963E+02  0.30451191083E+03  0.12500000000E+03 0.  0.
</event>
<event>
 5    0  0.5597833E-005  0.2202094E+03  0.7546771E-02  0.1133727E+00
         21   -1    0    0  502  501  0.00000000000E+00  0.00000000000E+00  0.65875470483E+02  0.65875470483E+02  0.00000000000E+00 0.  1.
         21   -1    0    0  501  502 -0.00000000000E+00 -0.00000000000E+00 -0.73611911719E+03  0.73611911719E+03  0.00000000000E+00 0.  1.
         25    1    1    2    0    0 -0.30573757711E+01 -0.53995051460E+02 -0.34771970112E+03  0.37344183440E+03  0.12500000000E+03 0.  0.
         25    1    1    2    0    0  0.68609449640E+01  0.87487783938E+02 -0.17344690177E+03  0.23110606361E+03  0.12500000000E+03 0.  0.
         25    1    1    2    0    0 -0.38035691929E+01 -0.33492732477E+02 -0.14907704381E+03  0.19744668966E+03  0.12500000000E+03 0.  0.
</event>
<event>
 5    0  0.5597833E-005  0.4480622E+03  0.7546771E-02  0.1028301E+00
         21   -1    0    0  502  501  0.00000000000E+00  0.00000000000E+00  0.75676115027E+03  0.75676115027E+03  0.00000000000E+00 0. -1.
         21   -1    0    0  501  502 -0.00000000000E+00 -0.00000000000E+00 -0.26528811169E+03  0.26528811169E+03  0.00000000000E+00 0. -1.
         25    1    1    2    0    0  0.77708926566E+02  0.20321074900E+03  0.37710088674E+03  0.45294962695E+03  0.12500000000E+03 0.  0.
         25    1    1    2    0    0  0.63461652204E+02 -0.28956617844E+03  0.15604466038E+03  0.35756242676E+03  0.12500000000E+03 0.  0.
         25    1    1    2    0    0 -0.14117057877E+03  0.86355429441E+02 -0.41672508549E+02  0.21153720825E+03  0.12500000000E+03 0.  0.
</event>
<event>
 5    0  0.5597833E-005  0.3605169E+03  0.7546771E-02  0.1058379E+00
         21   -1    0    0  502  501  0.00000000000E+00  0.00000000000E+00  0.70595115561E+02  0.70595115561E+02  0.00000000000E+00 0.  1.
         21   -1    0    0  501  502 -0.00000000000E+00 -0.00000000000E+00 -0.18410965356E+04  0.18410965356E+04  0.00000000000E+00 0.  1.
         25    1    1    2    0    0  0.15046308285E+03  0.13467742150E+03 -0.79699993272E+03  0.83163155298E+03  0.12500000000E+03 0.  0.
         25    1    1    2    0    0 -0.67692246480E+02 -0.20884441180E+03 -0.80051852763E+03  0.83943620464E+03  0.12500000000E+03 0.  0.
         25    1    1    2    0    0 -0.82770836367E+02  0.74166990301E+02 -0.17298295971E+03  0.24062389356E+03  0.12500000000E+03 0.  0.
</event>
<event>
 5    0  0.5597833E-005  0.2287441E+03  0.7546771E-02  0.1127527E+00
         21   -1    0    0  502  501  0.00000000000E+00  0.00000000000E+00  0.29286133142E+04  0.29286133142E+04  0.00000000000E+00 0. -1.
         21   -1    0    0  501  502 -0.00000000000E+00 -0.00000000000E+00 -0.17866433947E+02  0.17866433947E+02  0.00000000000E+00 0. -1.
         25    1    1    2    0    0 -0.38255135745E+01  0.29805598358E+02  0.10098398561E+04  0.10179904436E+04  0.12500000000E+03 0.  0.
         25    1    1    2    0    0 -0.16380156983E+02 -0.15638044685E+02  0.34971206240E+03  0.37207040271E+03  0.12500000000E+03 0.  0.
         25    1    1    2    0    0  0.20205670557E+02 -0.14167553673E+02  0.15511949618E+04  0.15564189019E+04  0.12500000000E+03 0.  0.
</event>
<event>
 5    0  0.6359698E-005  0.2548507E+03  0.7546771E-02  0.1110277E+00
         21   -1    0    0  502  501  0.00000000000E+00  0.00000000000E+00  0.31433119611E+03  0.31433119611E+03  0.00000000000E+00 0. -1.
         21   -1    0    0  501  502 -0.00000000000E+00 -0.00000000000E+00 -0.20662561294E+03  0.20662561294E+03  0.00000000000E+00 0. -1.
         25    1    1    2    0    0 -0.72398343904E+02 -0.29353989794E+02  0.10025402639E+03  0.17826678525E+03  0.12500000000E+03 0.  0.
         25    1    1    2    0    0  0.13570733875E+03 -0.18148075965E+02 -0.35217610789E+02  0.18870907387E+03  0.12500000000E+03 0.  0.
         25    1    1    2    0    0 -0.63308994843E+02  0.47502065759E+02  0.42669167562E+02  0.15398094992E+03  0.12500000000E+03 0.  0.
</event>
<event>
 5    0  0.5597833E-005  0.2628205E+03  0.7546771E-02  0.1105460E+00
         21   -1    0    0  502  501  0.00000000000E+00  0.00000000000E+00  0.18970419684E+03  0.18970419684E+03  0.00000000000E+00 0. -1.
         21   -1    0    0  501  502 -0.00000000000E+00 -0.00000000000E+00 -0.36411740218E+03  0.36411740218E+03  0.00000000000E+00 0. -1.
         25    1    1    2    0    0  0.33457435081E+02  0.17938296377E+02  0.66311203621E+02  0.14650378208E+03  0.12500000000E+03 0.  0.
         25    1    1    2    0    0 -0.19412795657E+02  0.11087454732E+02 -0.24736580437E+03  0.27805508350E+03  0.12500000000E+03 0.  0.
         25    1    1    2    0    0 -0.14044639425E+02 -0.29025751109E+02  0.66413954140E+01  0.12926273344E+03  0.12500000000E+03 0.  0.
</event>
<event>
 5    0  0.5597833E-005  0.2908924E+03  0.7546771E-02  0.1089884E+00
         21   -1    0    0  502  501  0.00000000000E+00  0.00000000000E+00  0.75409328197E+03  0.75409328197E+03  0.00000000000E+00 0.  1.
         21   -1    0    0  501  502 -0.00000000000E+00 -0.00000000000E+00 -0.11221206116E+03  0.11221206116E+03  0.00000000000E+00 0.  1.
         25    1    1    2    0    0 -0.89455395063E+02 -0.10432051018E+03  0.13031926856E+03  0.22692101777E+03  0.12500000000E+03 0.  0.
         25    1    1    2    0    0 -0.18171309798E+02  0.15523617645E+03  0.34872431676E+03  0.40207227718E+03  0.12500000000E+03 0.  0.
         25    1    1    2    0    0  0.10762670486E+03 -0.50915666270E+02  0.16283763550E+03  0.23731204817E+03  0.12500000000E+03 0.  0.
</event>
<event>
 5    0  0.5597833E-005  0.3302835E+03  0.7546771E-02  0.1071011E+00
         21   -1    0    0  502  501  0.00000000000E+00  0.00000000000E+00  0.15526675656E+03  0.15526675656E+03  0.00000000000E+00 0. -1.
         21   -1    0    0  501  502 -0.00000000000E+00 -0.00000000000E+00 -0.70257924931E+03  0.70257924931E+03  0.00000000000E+00 0. -1.
         25    1    1    2    0    0  0.12739211658E+03 -0.38673523966E+02 -0.34799651481E+03  0.39300250272E+03  0.12500000000E+03 0.  0.
         25    1    1    2    0    0 -0.14397152787E+03  0.87561774807E+02  0.16173024840E+02  0.21043153750E+03  0.12500000000E+03 0.  0.
         25    1    1    2    0    0  0.16579411286E+02 -0.48888250841E+02 -0.21548900278E+03  0.25441196566E+03  0.12500000000E+03 0.  0.
</event>
<event>
 5    0  0.5597833E-005  0.2181613E+03  0.7546771E-02  0.1135261E+00
         21   -1    0    0  502  501  0.00000000000E+00  0.00000000000E+00  0.56739316009E+03  0.56739316009E+03  0.00000000000E+00 0.  1.
         21   -1    0    0  501  502 -0.00000000000E+00 -0.00000000000E+00 -0.83882507983E+02  0.83882507983E+02  0.00000000000E+00 0.  1.
         25    1    1    2    0    0  0.47658859133E+02  0.28027729345E+02  0.11346545806E+03  0.17764101621E+03  0.12500000000E+03 0.  0.
         25    1    1    2    0    0  0.66842896779E+01 -0.79969157062E+02  0.16517083271E+03  0.22213993290E+03  0.12500000000E+03 0.  0.
         25    1    1    2    0    0 -0.54343148811E+02  0.51941427717E+02  0.20487436133E+03  0.25149471896E+03  0.12500000000E+03 0.  0.
</event>
<event>
 5    0  0.5597833E-005  0.2717681E+03  0.7546771E-02  0.1100272E+00
         21   -1    0    0  502  501  0.00000000000E+00  0.00000000000E+00  0.11074016331E+03  0.11074016331E+03  0.00000000000E+00 0.  1.
         21   -1    0    0  501  502 -0.00000000000E+00 -0.00000000000E+00 -0.66694786055E+03  0.66694786055E+03  0.00000000000E+00 0.  1.
         25    1    1    2    0    0 -0.66558160657E+02  0.63623504066E+02 -0.37440753797E+03  0.40531955728E+03  0.12500000000E+03 0.  0.
         25    1    1    2    0    0  0.11379034103E+03  0.10922160172E+02 -0.72101909974E+02  0.18409568359E+03  0.12500000000E+03 0.  0.
         25    1    1    2    0    0 -0.47232180370E+02 -0.74545664238E+02 -0.10969824929E+03  0.18827278299E+03  0.12500000000E+03 0.  0.
</event>
<event>
 5    0  0.5597833E-005  0.2980657E+03  0.7546771E-02  0.1086212E+00
         21   -1    0    0  502  501  0.00000000000E+00  0.00000000000E+00  0.37492944804E+03  0.37492944804E+03  0.00000000000E+00 0.  1.
         21   -1    0    0  501  502 -0.00000000000E+00 -0.00000000000E+00 -0.23695971911E+03  0.23695971911E+03  0.00000000000E+00 0.  1.
         25    1    1    2    0    0 -0.29786922433E+02  0.96775928247E+02  0.12395435345E+03  0.20308255163E+03  0.12500000000E+03 0.  0.
         25    1    1    2    0    0  0.92544054594E+02 -0.48657125065E+02  0.13974512553E+03  0.21467561103E+03  0.12500000000E+03 0.  0.
         25    1    1    2    0    0 -0.62757132161E+02 -0.48118803182E+02 -0.12572975006E+03  0.19413100450E+03  0.12500000000E+03 0.  0.
</event>
<event>
 5    0  0.5597833E-005  0.4591568E+03  0.7546771E-02  0.1025026E+00
         21   -1    0    0  502  501  0.00000000000E+00  0.00000000000E+00  0.45017917184E+03  0.45017917184E+03  0.00000000000E+00 0.  1.
         21   -1    0    0  501  502 -0.00000000000E+00 -0.00000000000E+00 -0.46831352922E+03  0.46831352922E+03  0.00000000000E+00 0.  1.
         25    1    1    2    0    0  0.17476172353E+03 -0.27321137654E+03 -0.23041363069E+02  0.34834181589E+03  0.12500000000E+03 0.  0.
         25    1    1    2    0    0 -0.26935515926E+03  0.59431901284E+02 -0.22353435661E+02  0.30365939603E+03  0.12500000000E+03 0.  0.
         25    1    1    2    0    0  0.94593435732E+02  0.21377947526E+03  0.27260441345E+02  0.26649148915E+03  0.12500000000E+03 0.  0.
</event>
<event>
 5    0  0.5597833E-005  0.2249266E+03  0.7546771E-02  0.1130262E+00
         21   -1    0    0  502  501  0.00000000000E+00  0.00000000000E+00  0.60157467375E+02  0.60157467375E+02  0.00000000000E+00 0. -1.
         21   -1    0    0  501  502 -0.00000000000E+00 -0.00000000000E+00 -0.84099260138E+03  0.84099260138E+03  0.00000000000E+00 0. -1.
         25    1    1    2    0    0  0.67333017821E+02  0.98823336972E+00 -0.26273909112E+03  0.29864953021E+03  0.12500000000E+03 0.  0.
         25    1    1    2    0    0 -0.32547303653E+02  0.82477135214E+02 -0.25545048454E+03  0.29789554354E+03  0.12500000000E+03 0.  0.
         25    1    1    2    0    0 -0.34785714167E+02 -0.83465368584E+02 -0.26264555834E+03  0.30460499500E+03  0.12500000000E+03 0.  0.
</event>
<event>
 5    0  0.5597833E-005  0.2888802E+03  0.7546771E-02  0.1090935E+00
         21   -1    0    0  502  501  0.00000000000E+00  0.00000000000E+00  0.14306783225E+03  0.14306783225E+03  0.00000000000E+00 0. -1.
         21   -1    0    0  501  502 -0.00000000000E+00 -0.00000000000E+00 -0.58330228976E+03  0.58330228976E+03  0.00000000000E+00 0. -1.
         25    1    1    2    0    0  0.48421484142E+02 -0.26832552129E+02 -0.32465213313E+03  0.35226216590E+03  0.12500000000E+03 0.  0.
         25    1    1    2    0    0  0.81764047811E+02 -0.46106909726E+02 -0.82161023595E+02  0.17659739646E+03  0.12500000000E+03 0.  0.
         25    1    1    2    0    0 -0.13018553195E+03  0.72939461855E+02 -0.33421300796E+02  0.19751055965E+03  0.12500000000E+03 0.  0.
</event>
<event>
 5    0  0.5597833E-005  0.3822467E+03  0.7546771E-02  0.1050106E+00
         21   -1    0    0  502  501  0.00000000000E+00  0.00000000000E+00  0.70523358943E+03  0.70523358943E+03  0.00000000000E+00 0. -1.
         21   -1    0    0  501  502 -0.00000000000E+00 -0.00000000000E+00 -0.20718313646E+03  0.20718313646E+03  0.00000000000E+00 0. -1.
         25    1    1    2    0    0  0.87866400349E+02 -0.51183855837E+02  0.51772384220E+03  0.54222068218E+03  0.12500000000E+03 0.  0.
         25    1    1    2    0    0 -0.11794382965E+03  0.20782983731E+02  0.93044235065E+02  0.19653220867E+03  0.12500000000E+03 0.  0.
         25    1    1    2    0    0  0.30077429297E+02  0.30400872105E+02 -0.11271762429E+03  0.17366383505E+03  0.12500000000E+03 0.  0.
</event>
<event>
 5    0  0.5597833E-005  0.3038511E+03  0.7546771E-02  0.1083331E+00
         21   -1    0    0  502  501  0.00000000000E+00  0.00000000000E+00  0.92477790446E+02  0.92477790446E+02  0.00000000000E+00 0.  1.
         21   -1    0    0  501  502 -0.00000000000E+00 -0.00000000000E+00 -0.99835329094E+03  0.99835329094E+03  0.00000000000E+00 0.  1.
         25    1    1    2    0    0  0.63532521918E+02  0.39532827153E+02 -0.19160383994E+02  0.14693994038E+03  0.12500000000E+03 0.  0.
         25    1    1    2    0    0 -0.53912085760E+02 -0.17716387702E+02 -0.72615816890E+03  0.73902034454E+03  0.12500000000E+03 0.  0.
         25    1    1    2    0    0 -0.96204361580E+01 -0.21816439451E+02 -0.16055694760E+03  0.20487079647E+03  0.12500000000E+03 0.  0.
</event>
<event>
 5    0  0.5597833E-005  0.5684618E+03  0.7546771E-02  0.9973088E-01
         21   -1    0    0  502  501  0.00000000000E+00  0.00000000000E+00  0.10464152838E+04  0.10464152838E+04  0.00000000000E+00 0.  1.
         21   -1    0    0  501  502 -0.00000000000E+00 -0.00000000000E+00 -0.30881509499E+03  0.30881509499E+03  0.00000000000E+00 0.  1.
         25    1    1    2    0    0  0.18038140047E+03 -0.41912575020E+03  0.38686981796E+03  0.61114409116E+03  0.12500000000E+03 0.  0.
         25    1    1    2    0    0 -0.71626894589E+02  0.29289301894E+03  0.41325067720E+03  0.52660977467E+03  0.12500000000E+03 0.  0.
         25    1    1    2    0    0 -0.10875450588E+03  0.12623273126E+03 -0.62520306336E+02  0.21747651297E+03  0.12500000000E+03 0.  0.
</event>
<event>
 5    0  0.5597833E-005  0.2736401E+03  0.7546771E-02  0.1099214E+00
         21   -1    0    0  502  501  0.00000000000E+00  0.00000000000E+00  0.23807646574E+04  0.23807646574E+04  0.00000000000E+00 0. -1.
         21   -1    0    0  501  502 -0.00000000000E+00 -0.00000000000E+00 -0.31451617731E+02  0.31451617731E+02  0.00000000000E+00 0. -1.
         25    1    1    2    0    0  0.12524510500E+03  0.62038550358E+02  0.12661549493E+04  0.12799642471E+04  0.12500000000E+03 0.  0.
         25    1    1    2    0    0 -0.10117815634E+03 -0.87358913186E+02  0.44746152866E+03  0.48344122566E+03  0.12500000000E+03 0.  0.
         25    1    1    2    0    0 -0.24066948667E+02  0.25320362828E+02  0.63569656168E+03  0.64881080241E+03  0.12500000000E+03 0.  0.
</event>
<event>
 5    0  0.5597833E-005  0.2908871E+03  0.7546771E-02  0.1089887E+00
         21   -1    0    0  502  501  0.00000000000E+00  0.00000000000E+00  0.27013083174E+02  0.27013083174E+02  0.00000000000E+00 0.  1.
         21   -1    0    0  501  502 -0.00000000000E+00 -0.00000000000E+00 -0.31323812812E+04  0.31323812812E+04  0.00000000000E+00 0.  1.
         25    1    1    2    0    0 -0.10876193467E+03  0.65526639206E+02 -0.48640762902E+03  0.51801571448E+03  0.12500000000E+03 0.  0.
         25    1    1    2    0    0  0.80729480968E+02 -0.10661021638E+03 -0.19779839971E+04  0.19864361757E+04  0.12500000000E+03 0.  0.
         25    1    1    2    0    0  0.28032453704E+02  0.41083577173E+02 -0.64097657185E+03  0.65494247415E+03  0.12500000000E+03 0.  0.
</event>
<event>
 5    0  0.5597833E-005  0.4327054E+03  0.7546771E-02  0.1033009E+00
         21   -1    0    0  502  501  0.00000000000E+00  0.00000000000E+00  0.17021757001E+04  0.17021757001E+04  0.00000000000E+00 0.  1.
         21   -1    0    0  501  502 -0.00000000000E+00 -0.00000000000E+00 -0.10999683528E+03  0.10999683528E+03  0.00000000000E+00 0. -1.
         25    1    1    2    0    0 -0.10127070315E+03 -0.22709886695E+03  0.73680778346E+03  0.78761688685E+03  0.12500000000E+03 0.  0.
         25    1    1    2    0    0  0.13617750768E+03  0.25259547603E+03  0.83370873815E+03  0.89053020621E+03  0.12500000000E+03 0.  0.
         25    1    1    2    0    0 -0.34906804531E+02 -0.25496609083E+02  0.21662343224E+02  0.13402544233E+03  0.12500000000E+03 0.  0.
</event>
<event>
 5    0  0.5597833E-005  0.3796607E+03  0.7546771E-02  0.1051059E+00
         21   -1    0    0  502  501  0.00000000000E+00  0.00000000000E+00  0.39137462252E+03  0.39137462252E+03  0.00000000000E+00 0.  1.
         21   -1    0    0  501  502 -0.00000000000E+00 -0.00000000000E+00 -0.36829729331E+03  0.36829729331E+03  0.00000000000E+00 0.  1.
         25    1    1    2    0    0  0.13967150594E+03 -0.12884069437E+03  0.35863127668E+02  0.23025902376E+03  0.12500000000E+03 0.  0.
         25    1    1    2    0    0 -0.17548799289E+03  0.99157379775E+02  0.17806149604E+03  0.29657902485E+03  0.12500000000E+03 0.  0.
         25    1    1    2    0    0  0.35816486945E+02  0.29683314592E+02 -0.19084729450E+03  0.23283386721E+03  0.12500000000E+03 0.  0.
</event>
<event>
 5    0  0.5597833E-005  0.2264523E+03  0.7546771E-02  0.1129162E+00
         21   -1    0    0  502  501  0.00000000000E+00  0.00000000000E+00  0.18630990647E+03  0.18630990647E+03  0.00000000000E+00 0.  1.
         21   -1    0    0  501  502 -0.00000000000E+00 -0.00000000000E+00 -0.27524387630E+03  0.27524387630E+03  0.00000000000E+00 0.  1.
         25    1    1    2    0    0  0.10532466348E+02 -0.12299359123E+02 -0.21538082603E+02  0.12787140448E+03  0.12500000000E+03 0.  0.
         25    1    1    2    0    0 -0.49221675509E+02 -0.27168318541E+01  0.62945312058E+02  0.14838216478E+03  0.12500000000E+03 0.  0.
         25    1    1    2    0    0  0.38689209161E+02  0.15016190977E+02 -0.13034119929E+03  0.18530021351E+03  0.12500000000E+03 0.  0.
</event>
<event>
 5    0  0.5597833E-005  0.3341552E+03  0.7546771E-02  0.1069313E+00
         21   -1    0    0  502  501  0.00000000000E+00  0.00000000000E+00  0.13895031189E+04  0.13895031189E+04  0.00000000000E+00 0.  1.
         21   -1    0    0  501  502 -0.00000000000E+00 -0.00000000000E+00 -0.80359466710E+02  0.80359466710E+02  0.00000000000E+00 0.  1.
         25    1    1    2    0    0  0.29834452862E+02  0.11818568094E+03  0.12169276155E+03  0.21281935525E+03  0.12500000000E+03 0.  0.
         25    1    1    2    0    0 -0.13928992890E+03  0.18034983636E+02  0.42160616074E+03  0.46163156272E+03  0.12500000000E+03 0.  0.
         25    1    1    2    0    0  0.10945547604E+03 -0.13622066457E+03  0.76584472987E+03  0.79541166760E+03  0.12500000000E+03 0.  0.
</event>
<event>
 5    0  0.5597833E-005  0.3008933E+03  0.7546771E-02  0.1084795E+00
         21   -1    0    0  502  501  0.00000000000E+00  0.00000000000E+00  0.41009556442E+03  0.41009556442E+03  0.00000000000E+00 0.  1.
         21   -1    0    0  501  502 -0.00000000000E+00 -0.00000000000E+00 -0.22076998283E+03  0.22076998283E+03  0.00000000000E+00 0.  1.
         25    1    1    2    0    0  0.79436374949E+02 -0.87139750063E+02  0.12145535786E+03  0.21042784430E+03  0.12500000000E+03 0.  0.
         25    1    1    2    0    0 -0.19300247836E+03  0.16215233133E+02  0.53886499224E+02  0.23673116660E+03  0.12500000000E+03 0.  0.
         25    1    1    2    0    0  0.11356610341E+03  0.70924516930E+02  0.13983724505E+02  0.18370653635E+03  0.12500000000E+03 0.  0.
</event>
<event>
 5    0  0.5597833E-005  0.6513623E+03  0.7546771E-02  0.9804226E-01
         21   -1    0    0  502  501  0.00000000000E+00  0.00000000000E+00  0.17129651454E+03  0.17129651454E+03  0.00000000000E+00 0.  1.
         21   -1    0    0  501  502 -0.00000000000E+00 -0.00000000000E+00 -0.24768330613E+04  0.24768330613E+04  0.00000000000E+00 0.  1.
         25    1    1    2    0    0  0.61221825443E+02  0.17189338569E+03 -0.11303215411E+04  0.11517583228E+04  0.12500000000E+03 0.  0.
         25    1    1    2    0    0 -0.40661248945E+03 -0.19212705925E+03 -0.32151381930E+03  0.56678272687E+03  0.12500000000E+03 0.  0.
         25    1    1    2    0    0  0.34539066401E+03  0.20233673567E+02 -0.85370118637E+03  0.92958852615E+03  0.12500000000E+03 0.  0.
</event>
<event>
 5    0  0.6100524E-005  0.5278999E+03  0.7546771E-02  0.1006743E+00
         21   -1    0    0  502  501  0.00000000000E+00  0.00000000000E+00  0.12352117042E+04  0.12352117042E+04  0.00000000000E+00 0. -1.
         21   -1    0    0  501  502 -0.00000000000E+00 -0.00000000000E+00 -0.22561179654E+03  0.22561179654E+03  0.00000000000E+00 0. -1.
         25    1    1    2    0    0 -0.15608015748E+02 -0.25820748218E+03  0.39072720523E+03  0.48498192019E+03  0.12500000000E+03 0.  0.
         25    1    1    2    0    0 -0.30366322869E+03  0.18409378629E+03  0.44943811192E+03  0.58627766038E+03  0.12500000000E+03 0.  0.
         25    1    1    2    0    0  0.31927124444E+03  0.74113695885E+02  0.16943459051E+03  0.38956392018E+03  0.12500000000E+03 0.  0.
</event>
<event>
 5    0  0.5597833E-005  0.2917295E+03  0.7546771E-02  0.1089450E+00
         21   -1    0    0  502  501  0.00000000000E+00  0.00000000000E+00  0.77034258143E+03  0.77034258143E+03  0.00000000000E+00 0.  1.
         21   -1    0    0  501  502 -0.00000000000E+00 -0.00000000000E+00 -0.11047828733E+03  0.11047828733E+03  0.00000000000E+00 0.  1.
         25    1    1    2    0    0 -0.37616486104E+02  0.13912640549E+03  0.22489146745E+03  0.29491071338E+03  0.12500000000E+03 0.  0.
         25    1    1    2    0    0  0.11414145100E+03 -0.16508237059E+03  0.21047780834E+03  0.31655389386E+03  0.12500000000E+03 0.  0.
         25    1    1    2    0    0 -0.76524964891E+02  0.25955965101E+02  0.22449501830E+03  0.26935626152E+03  0.12500000000E+03 0.  0.
</event>
<event>
 5    0  0.5597833E-005  0.5167084E+03  0.7546771E-02  0.1009507E+00
         21   -1    0    0  502  501  0.00000000000E+00  0.00000000000E+00  0.58615403394E+03  0.58615403394E+03  0.00000000000E+00 0.  1.
         21   -1    0    0  501  502 -0.00000000000E+00 -0.00000000000E+00 -0.45549046968E+03  0.45549046968E+03  0.00000000000E+00 0.  1.
         25    1    1    2    0    0 -0.20998242732E+03  0.11557564140E+03 -0.24912959144E+03  0.36761515475E+03  0.12500000000E+03 0.  0.
         25    1    1    2    0    0 -0.10216102576E+03 -0.95556425084E+02  0.32815794060E+02  0.19044627037E+03  0.12500000000E+03 0.  0.
         25    1    1    2    0    0  0.31214345309E+03 -0.20019216314E+02  0.34697736163E+03  0.48358307850E+03  0.12500000000E+03 0.  0.
</event>
<event>
 5    0  0.5597833E-005  0.3034171E+03  0.7546771E-02  0.1083545E+00
         21   -1    0    0  502  501  0.00000000000E+00  0.00000000000E+00  0.26204013431E+03  0.26204013431E+03  0.00000000000E+00 0. -1.
         21   -1    0    0  501  502 -0.00000000000E+00 -0.00000000000E+00 -0.35132772737E+03  0.35132772737E+03  0.00000000000E+00 0. -1.
         25    1    1    2    0    0 -0.72757009267E+02 -0.15984771188E+03  0.66213002434E+02  0.22550839249E+03  0.12500000000E+03 0.  0.
         25    1    1    2    0    0  0.76030474021E+02  0.16020202430E+03 -0.46292722529E+02  0.22184079365E+03  0.12500000000E+03 0.  0.
         25    1    1    2    0    0 -0.32734647540E+01 -0.35431241523E+00 -0.10920787297E+03  0.16601867554E+03  0.12500000000E+03 0.  0.
</event>
<event>
 5    0  0.5597833E-005  0.3715078E+03  0.7546771E-02  0.1054118E+00
         21   -1    0    0  502  501  0.00000000000E+00  0.00000000000E+00  0.47497422742E+03  0.47497422742E+03  0.00000000000E+00 0. -1.
         21   -1    0    0  501  502 -0.00000000000E+00 -0.00000000000E+00 -0.29058012720E+03  0.29058012720E+03  0.00000000000E+00 0. -1.
         25    1    1    2    0    0  0.39191939687E+02 -0.31375634618E+02  0.10269789132E+03  0.16938800272E+03  0.12500000000E+03 0.  0.
         25    1    1    2    0    0  0.11835057902E+03 -0.12173257672E+02 -0.18913602126E+03  0.25603218996E+03  0.12500000000E+03 0.  0.
         25    1    1    2    0    0 -0.15754251871E+03  0.43548892290E+02  0.27083223016E+03  0.34013416193E+03  0.12500000000E+03 0.  0.
</event>
<event>
 5    0  0.5597833E-005  0.3332827E+03  0.7546771E-02  0.1069694E+00
         21   -1    0    0  502  501  0.00000000000E+00  0.00000000000E+00  0.35907318714E+03  0.35907318714E+03  0.00000000000E+00 0. -1.
         21   -1    0    0  501  502 -0.00000000000E+00 -0.00000000000E+00 -0.30934452822E+03  0.30934452822E+03  0.00000000000E+00 0. -1.
         25    1    1    2    0    0  0.23511394538E+02  0.85701163716E+02  0.83944865427E+02  0.17484054326E+03  0.12500000000E+03 0.  0.
         25    1    1    2    0    0  0.18693923347E+03 -0.18391983353E+01 -0.62187265021E+02  0.23332791430E+03  0.12500000000E+03 0.  0.
         25    1    1    2    0    0 -0.21045062801E+03 -0.83861965380E+02  0.27971058515E+02  0.26024925779E+03  0.12500000000E+03 0.  0.
</event>
<event>
 5    0  0.5597833E-005  0.4562782E+03  0.7546771E-02  0.1025866E+00
         21   -1    0    0  502  501  0.00000000000E+00  0.00000000000E+00  0.27049587011E+03  0.27049587011E+03  0.00000000000E+00 0.  1.
         21   -1    0    0  501  502 -0.00000000000E+00 -0.00000000000E+00 -0.76965991598E+03  0.76965991598E+03  0.00000000000E+00 0.  1.
         25    1    1    2    0    0  0.13404946121E+03  0.30353612979E+03 -0.85265002470E+02  0.36468967737E+03  0.12500000000E+03 0.  0.
         25    1    1    2    0    0 -0.76752592335E+02 -0.29020274813E+03 -0.11278315309E+03  0.34417093874E+03  0.12500000000E+03 0.  0.
         25    1    1    2    0    0 -0.57296868872E+02 -0.13333381656E+02 -0.30111589032E+03  0.33129516998E+03  0.12500000000E+03 0.  0.
</event>
<event>
 5    0  0.5678929E-005  0.2871969E+03  0.7546771E-02  0.1091822E+00
         21   -1    0    0  502  501  0.00000000000E+00  0.00000000000E+00  0.12596369014E+03  0.12596369014E+03  0.00000000000E+00 0.  1.
         21   -1    0    0  501  502 -0.00000000000E+00 -0.00000000000E+00 -0.65480808143E+03  0.65480808143E+03  0.00000000000E+00 0.  1.
         25    1    1    2    0    0  0.22477454727E+02 -0.13476060382E+03 -0.10601606053E+03  0.21337774346E+03  0.12500000000E+03 0.  0.
         25    1    1    2    0    0 -0.65357568762E+02 -0.50239136373E+02 -0.19090519466E+03  0.24262187858E+03  0.12500000000E+03 0.  0.
         25    1    1    2    0    0  0.42880114035E+02  0.18499974019E+03 -0.23192313610E+03  0.32477214953E+03  0.12500000000E+03 0.  0.
</event>
<event>
 5    0  0.5597833E-005  0.3283316E+03  0.7546771E-02  0.1071877E+00
         21   -1    0    0  502  501  0.00000000000E+00  0.00000000000E+00  0.27740359479E+03  0.27740359479E+03  0.00000000000E+00 0.  1.
         21   -1    0    0  501  502 -0.00000000000E+00 -0.00000000000E+00 -0.38860948535E+03  0.38860948535E+03  0.00000000000E+00 0.  1.
         25    1    1    2    0    0  0.13096775735E+03  0.48423108033E+02 -0.80723090143E+02  0.20405530657E+03  0.12500000000E+03 0.  0.
         25    1    1    2    0    0 -0.44658157377E+02  0.14196004082E+03  0.58009296300E+02  0.20282278636E+03  0.12500000000E+03 0.  0.
         25    1    1    2    0    0 -0.86309599976E+02 -0.19038314885E+03 -0.88492096718E+02  0.25913498721E+03  0.12500000000E+03 0.  0.
</event>
<event>
 5    0  0.5597833E-005  0.2737982E+03  0.7546771E-02  0.1099125E+00
         21   -1    0    0  502  501  0.00000000000E+00  0.00000000000E+00  0.67692973428E+02  0.67692973428E+02  0.00000000000E+00 0.  1.
         21   -1    0    0  501  502 -0.00000000000E+00 -0.00000000000E+00 -0.11074331023E+04  0.11074331023E+04  0.00000000000E+00 0.  1.
         25    1    1    2    0    0  0.84448753859E+02  0.44830220013E+02 -0.17196120535E+03  0.23310297467E+03  0.12500000000E+03 0.  0.
         25    1    1    2    0    0 -0.34589674704E+01 -0.13634821426E+03 -0.35586077533E+03  0.40107940786E+03  0.12500000000E+03 0.  0.
         25    1    1    2    0    0 -0.80989786389E+02  0.91517994242E+02 -0.51191814824E+03  0.54094369325E+03  0.12500000000E+03 0.  0.
</event>
<event>
 5    0  0.5597833E-005  0.2381862E+03  0.7546771E-02  0.1121007E+00
         21   -1    0    0  502  501  0.00000000000E+00  0.00000000000E+00  0.24366591944E+03  0.24366591944E+03  0.00000000000E+00 0. -1.
         21   -1    0    0  501  502 -0.00000000000E+00 -0.00000000000E+00 -0.23282970043E+03  0.23282970043E+03  0.00000000000E+00 0. -1.
         25    1    1    2    0    0 -0.10344337556E+03 -0.24166543571E+02 -0.83813687483E+01  0.16425529251E+03  0.12500000000E+03 0.  0.
         25    1    1    2    0    0  0.52605636601E+02 -0.35284451428E+02 -0.50730090502E+02  0.14903317616E+03  0.12500000000E+03 0.  0.
         25    1    1    2    0    0  0.50837738955E+02  0.59450994998E+02  0.69947678258E+02  0.16320715120E+03  0.12500000000E+03 0.  0.
</event>
<event>
 5    0  0.5597833E-005  0.2351081E+03  0.7546771E-02  0.1123095E+00
         21   -1    0    0  502  501  0.00000000000E+00  0.00000000000E+00  0.22487251236E+03  0.22487251236E+03  0.00000000000E+00 0.  1.
         21   -1    0    0  501  502 -0.00000000000E+00 -0.00000000000E+00 -0.24580964880E+03  0.24580964880E+03  0.00000000000E+00 0.  1.
         25    1    1    2    0    0  0.57691444722E+02 -0.13212549956E+02 -0.73687227900E+02  0.15670890793E+03  0.12500000000E+03 0.  0.
         25    1    1    2    0    0 -0.70917815088E+02  0.73017691706E+02 -0.95152188284E+01  0.16148207080E+03  0.12500000000E+03 0.  0.
         25    1    1    2    0    0  0.13226370366E+02 -0.59805141750E+02  0.62265310296E+02  0.15249118243E+03  0.12500000000E+03 0.  0.
</event>
<event>
 5    0  0.6137554E-005  0.3163509E+03  0.7546771E-02  0.1077341E+00
         21   -1    0    0  502  501  0.00000000000E+00  0.00000000000E+00  0.76400340554E+03  0.76400340554E+03  0.00000000000E+00 0.  1.
         21   -1    0    0  501  502 -0.00000000000E+00 -0.00000000000E+00 -0.13099144659E+03  0.13099144659E+03  0.00000000000E+00 0.  1.
         25    1    1    2    0    0 -0.12803684844E+02 -0.27913789404E+02  0.41846854245E+03  0.43781735347E+03  0.12500000000E+03 0.  0.
         25    1    1    2    0    0 -0.13597863305E+03  0.10152699198E+02  0.18171287158E+03  0.25930259090E+03  0.12500000000E+03 0.  0.
         25    1    1    2    0    0  0.14878231789E+03  0.17761090206E+02  0.32830544914E+02  0.19787490776E+03  0.12500000000E+03 0.  0.
</event>
<event>
 5    0  0.5597833E-005  0.4689249E+03  0.7546771E-02  0.1022224E+00
         21   -1    0    0  502  501  0.00000000000E+00  0.00000000000E+00  0.46633031121E+03  0.46633031121E+03  0.00000000000E+00 0.  1.
         21   -1    0    0  501  502 -0.00000000000E+00 -0.00000000000E+00 -0.47153383500E+03  0.47153383500E+03  0.00000000000E+00 0.  1.
         25    1    1    2    0    0  0.46206639759E+02  0.13062828266E+03 -0.21643943171E+02  0.18786234871E+03  0.12500000000E+03 0.  0.
         25    1    1    2    0    0 -0.11744474830E+03 -0.40478724313E+03 -0.48554961183E+01  0.43965276861E+03  0.12500000000E+03 0.  0.
         25    1    1    2    0    0  0.71238108539E+02  0.27415896047E+03  0.21295915497E+02  0.31034902888E+03  0.12500000000E+03 0.  0.
</event>
<event>
 5    0  0.5597833E-005  0.3851314E+03  0.7546771E-02  0.1049053E+00
         21   -1    0    0  502  501  0.00000000000E+00  0.00000000000E+00  0.31339524225E+03  0.31339524225E+03  0.00000000000E+00 0. -1.
         21   -1    0    0  501  502 -0.00000000000E+00 -0.00000000000E+00 -0.47328797015E+03  0.47328797015E+03  0.00000000000E+00 0. -1.
         25    1    1    2    0    0  0.13235679446E+03  0.27944986476E+01  0.16993430610E+03  0.24905581433E+03  0.12500000000E+03 0.  0.
         25    1    1    2    0    0  0.15116834267E+02 -0.38899061106E+02 -0.31375505366E+03  0.34030705154E+03  0.12500000000E+03 0.  0.
         25    1    1    2    0    0 -0.14747362873E+03  0.36104562458E+02 -0.16071980331E+02  0.19732034653E+03  0.12500000000E+03 0.  0.
</event>
<event>
 5    0  0.5597833E-005  0.2602051E+03  0.7546771E-02  0.1107020E+00
         21   -1    0    0  502  501  0.00000000000E+00  0.00000000000E+00  0.82601485758E+03  0.82601485758E+03  0.00000000000E+00 0. -1.
         21   -1    0    0  501  502 -0.00000000000E+00 -0.00000000000E+00 -0.81967889342E+02  0.81967889342E+02  0.00000000000E+00 0. -1.
         25    1    1    2    0    0  0.42453598395E+02 -0.19128808100E+01  0.10013451018E+03  0.16570421618E+03  0.12500000000E+03 0.  0.
         25    1    1    2    0    0  0.39033562946E+02 -0.13408388627E+02  0.70008575608E+02  0.14909595763E+03  0.12500000000E+03 0.  0.
         25    1    1    2    0    0 -0.81487161341E+02  0.15321269437E+02  0.57390388245E+03  0.59318257312E+03  0.12500000000E+03 0.  0.
</event>
<event>
 5    0  0.5597833E-005  0.4005379E+03  0.7546771E-02  0.1043594E+00
         21   -1    0    0  502  501  0.00000000000E+00  0.00000000000E+00  0.72957970444E+02  0.72957970444E+02  0.00000000000E+00 0. -1.
         21   -1    0    0  501  502 -0.00000000000E+00 -0.00000000000E+00 -0.21989456685E+04  0.21989456685E+04  0.00000000000E+00 0. -1.
         25    1    1    2    0    0 -0.44286642246E+02 -0.31474287322E+02 -0.21083592626E+03  0.25105522350E+03  0.12500000000E+03 0.  0.
         25    1    1    2    0    0 -0.22052156134E+03  0.18359738715E+03 -0.10123626670E+04  0.10596418872E+04  0.12500000000E+03 0.  0.
         25    1    1    2    0    0  0.26480820359E+03 -0.15212309983E+03 -0.90278910479E+03  0.96120652823E+03  0.12500000000E+03 0.  0.
</event>
<event>
 5    0  0.5597833E-005  0.4269594E+03  0.7546771E-02  0.1034825E+00
         21   -1    0    0  502  501  0.00000000000E+00  0.00000000000E+00  0.12088488586E+04  0.12088488586E+04  0.00000000000E+00 0.  1.
         21   -1    0    0  501  502 -0.00000000000E+00 -0.00000000000E+00 -0.15079991533E+03  0.15079991533E+03  0.00000000000E+00 0.  1.
         25    1    1    2    0    0 -0.41550639225E+01 -0.11339418459E+03  0.22072250479E+02  0.17025771611E+03  0.12500000000E+03 0.  0.
         25    1    1    2    0    0  0.22887935192E+02  0.16252891635E+03  0.10333616660E+04  0.10537555879E+04  0.12500000000E+03 0.  0.
         25    1    1    2    0    0 -0.18732871270E+02 -0.49134731756E+02  0.26150267610E+01  0.13563546990E+03  0.12500000000E+03 0.  0.
</event>
<event>
 5    0  0.5597833E-005  0.2300381E+03  0.7546771E-02  0.1126613E+00
         21   -1    0    0  502  501  0.00000000000E+00  0.00000000000E+00  0.50640380320E+02  0.50640380320E+02  0.00000000000E+00 0.  1.
         21   -1    0    0  501  502 -0.00000000000E+00 -0.00000000000E+00 -0.10449668734E+04  0.10449668734E+04  0.00000000000E+00 0.  1.
         25    1    1    2    0    0 -0.49639447031E+02  0.37270254285E+02 -0.38144460710E+03  0.40617500519E+03  0.12500000000E+03 0.  0.
         25    1    1    2    0    0  0.10557503644E+02 -0.47023770087E+01 -0.10417626271E+03  0.16312960168E+03  0.12500000000E+03 0.  0.
         25    1    1    2    0    0  0.39081943387E+02 -0.32567877276E+02 -0.50870562323E+03  0.52630264681E+03  0.12500000000E+03 0.  0.
</event>
<event>
 5    0  0.5597833E-005  0.3697415E+03  0.7546771E-02  0.1054792E+00
         21   -1    0    0  502  501  0.00000000000E+00  0.00000000000E+00  0.42885062221E+03  0.42885062221E+03  0.00000000000E+00 0. -1.
         21   -1    0    0  501  502 -0.00000000000E+00 -0.00000000000E+00 -0.31877947997E+03  0.31877947997E+03  0.00000000000E+00 0. -1.
         25    1    1    2    0    0  0.15040192433E+03  0.59412869116E+02 -0.20975412221E+03  0.29286928764E+03  0.12500000000E+03 0.  0.
         25    1    1    2    0    0 -0.10927935389E+03  0.23608376557E+02  0.16574986519E+03  0.23579090407E+03  0.12500000000E+03 0.  0.
         25    1    1    2    0    0 -0.41122570438E+02 -0.83021245673E+02  0.15407539926E+03  0.21896991047E+03  0.12500000000E+03 0.  0.
</event>
<event>
 5    0  0.5597833E-005  0.3091941E+03  0.7546771E-02  0.1080733E+00
         21   -1    0    0  502  501  0.00000000000E+00  0.00000000000E+00  0.39011359869E+03  0.39011359869E+03  0.00000000000E+00 0. -1.
         21   -1    0    0  501  502 -0.00000000000E+00 -0.00000000000E+00 -0.24505934972E+03  0.24505934972E+03  0.00000000000E+00 0. -1.
         25    1    1    2    0    0  0.70433172621E+02  0.86622434246E+02  0.36351113777E+02  0.17149542674E+03  0.12500000000E+03 0.  0.
         25    1    1    2    0    0 -0.27708760413E+02  0.13625069177E+03  0.78732766488E+02  0.20286910788E+03  0.12500000000E+03 0.  0.
         25    1    1    2    0    0 -0.42724412207E+02 -0.22287312602E+03  0.29970368707E+02  0.26080841379E+03  0.12500000000E+03 0.  0.
</event>
<event>
 5    0  0.5597833E-005  0.4502071E+03  0.7546771E-02  0.1027660E+00
         21   -1    0    0  502  501  0.00000000000E+00  0.00000000000E+00  0.49927477620E+03  0.49927477620E+03  0.00000000000E+00 0.  1.
         21   -1    0    0  501  502 -0.00000000000E+00 -0.00000000000E+00 -0.40596177329E+03  0.40596177329E+03  0.00000000000E+00 0.  1.
         25    1    1    2    0    0 -0.18234278744E+03 -0.33107035904E+03  0.92910575753E+02  0.40879560890E+03  0.12500000000E+03 0.  0.
         25    1    1    2    0    0 -0.98411016625E+01  0.85241575715E+02 -0.42777412632E+02  0.15753691803E+03  0.12500000000E+03 0.  0.
         25    1    1    2    0    0  0.19218388910E+03  0.24582878333E+03  0.43179839787E+02  0.33890402256E+03  0.12500000000E+03 0.  0.
</event>
<event>
 5    0  0.5597833E-005  0.3567516E+03  0.7546771E-02  0.1059878E+00
         21   -1    0    0  502  501  0.00000000000E+00  0.00000000000E+00  0.25943992279E+04  0.25943992279E+04  0.00000000000E+00 0. -1.
         21   -1    0    0  501  502 -0.00000000000E+00 -0.00000000000E+00 -0.49056330806E+02  0.49056330806E+02  0.00000000000E+00 0. -1.
         25    1    1    2    0    0  0.12238403150E+03 -0.92824807469E+02  0.35535853546E+03  0.40681566437E+03  0.12500000000E+03 0.  0.
         25    1    1    2    0    0 -0.21138414917E+03 -0.21893801258E+01  0.16270752719E+04  0.16455050873E+04  0.12500000000E+03 0.  0.
         25    1    1    2    0    0  0.89000117670E+02  0.95014187594E+02  0.56290908975E+03  0.59113480705E+03  0.12500000000E+03 0.  0.
</event>
<event>
 5    0  0.5597833E-005  0.2724826E+03  0.7546771E-02  0.1099867E+00
         21   -1    0    0  502  501  0.00000000000E+00  0.00000000000E+00  0.26434318493E+03  0.26434318493E+03  0.00000000000E+00 0. -1.
         21   -1    0    0  501  502 -0.00000000000E+00 -0.00000000000E+00 -0.28087270210E+03  0.28087270210E+03  0.00000000000E+00 0. -1.
         25    1    1    2    0    0  0.91916214573E+01 -0.11779274563E+03 -0.10802523635E+03  0.20311097586E+03  0.12500000000E+03 0.  0.
         25    1    1    2    0    0  0.57424584161E+02  0.84748658433E+02  0.11003691680E+03  0.19548156187E+03  0.12500000000E+03 0.  0.
         25    1    1    2    0    0 -0.66616205618E+02  0.33044087197E+02 -0.18541197629E+02  0.14662334930E+03  0.12500000000E+03 0.  0.
</event>
<event>
 5    0  0.5597833E-005  0.3047897E+03  0.7546771E-02  0.1082870E+00
         21   -1    0    0  502  501  0.00000000000E+00  0.00000000000E+00  0.85580355691E+03  0.85580355691E+03  0.00000000000E+00 0. -1.
         21   -1    0    0  501  502 -0.00000000000E+00 -0.00000000000E+00 -0.10854916865E+03  0.10854916865E+03  0.00000000000E+00 0. -1.
         25    1    1    2    0    0  0.96889523672E+01 -0.10893170145E+03  0.15254490602E+03  0.22551039828E+03  0.12500000000E+03 0.  0.
         25    1    1    2    0    0 -0.11388889049E+03  0.18659250531E+03  0.40663448347E+03  0.47829284499E+03  0.12500000000E+03 0.  0.
         25    1    1    2    0    0  0.10419993812E+03 -0.77660803861E+02  0.18807499877E+03  0.26054948230E+03  0.12500000000E+03 0.  0.
</event>
<event>
 5    0  0.5950312E-005  0.4581917E+03  0.7546771E-02  0.1025307E+00
         21   -1    0    0  502  501  0.00000000000E+00  0.00000000000E+00  0.10423005403E+04  0.10423005403E+04  0.00000000000E+00 0.  1.
         21   -1    0    0  501  502 -0.00000000000E+00 -0.00000000000E+00 -0.20141950116E+03  0.20141950116E+03  0.00000000000E+00 0.  1.
         25    1    1    2    0    0 -0.14631648474E+03  0.61410550055E+02  0.36452971712E+03  0.41675734430E+03  0.12500000000E+03 0.  0.
         25    1    1    2    0    0 -0.15879880317E+03  0.22927342349E+01 -0.44769901978E+02  0.20700642657E+03  0.12500000000E+03 0.  0.
         25    1    1    2    0    0  0.30511528790E+03 -0.63703284290E+02  0.52112122404E+03  0.61995627062E+03  0.12500000000E+03 0.  0.
</event>
<event>
 5    0  0.5597833E-005  0.4276109E+03  0.7546771E-02  0.1034617E+00
         21   -1    0    0  502  501  0.00000000000E+00  0.00000000000E+00  0.10948140620E+04  0.10948140620E+04  0.00000000000E+00 0. -1.
         21   -1    0    0  501  502 -0.00000000000E+00 -0.00000000000E+00 -0.16701561296E+03  0.16701561296E+03  0.00000000000E+00 0. -1.
         25    1    1    2    0    0 -0.71356029701E+02  0.98570340736E+02  0.24367914706E+02  0.17614366385E+03  0.12500000000E+03 0.  0.
         25    1    1    2    0    0  0.21044670264E+03  0.42253740693E+02  0.78494694427E+03  0.82331032944E+03  0.12500000000E+03 0.  0.
         25    1    1    2    0    0 -0.13909067293E+03 -0.14082408143E+03  0.11848359003E+03  0.26237568164E+03  0.12500000000E+03 0.  0.
</event>
<event>
 5    0  0.5597833E-005  0.4649930E+03  0.7546771E-02  0.1023343E+00
         21   -1    0    0  502  501  0.00000000000E+00  0.00000000000E+00  0.34064436106E+03  0.34064436106E+03  0.00000000000E+00 0. -1.
         21   -1    0    0  501  502 -0.00000000000E+00 -0.00000000000E+00 -0.63473372067E+03  0.63473372067E+03  0.00000000000E+00 0. -1.
         25    1    1    2    0    0 -0.40674505158E+02  0.17194857853E+03 -0.16775269339E+03  0.27383698649E+03  0.12500000000E+03 0.  0.
         25    1    1    2    0    0 -0.25334064908E+02 -0.82425729673E+02  0.24840260945E+03  0.29114373107E+03  0.12500000000E+03 0.  0.
         25    1    1    2    0    0  0.66008570066E+02 -0.89522848861E+02 -0.37473927568E+03  0.41039736418E+03  0.12500000000E+03 0.  0.
</event>
<event>
 5    0  0.5615276E-005  0.2871308E+03  0.7546771E-02  0.1091857E+00
         21   -1    0    0  502  501  0.00000000000E+00  0.00000000000E+00  0.41914411335E+03  0.41914411335E+03  0.00000000000E+00 0.  1.
         21   -1    0    0  501  502 -0.00000000000E+00 -0.00000000000E+00 -0.19669631671E+03  0.19669631671E+03  0.00000000000E+00 0.  1.
         25    1    1    2    0    0 -0.63676912855E+02  0.86636540255E+02  0.65088224094E+02  0.17726284510E+03  0.12500000000E+03 0.  0.
         25    1    1    2    0    0  0.10939670343E+03  0.85854052467E+02  0.10520509835E+03  0.21454992371E+03  0.12500000000E+03 0.  0.
         25    1    1    2    0    0 -0.45719790570E+02 -0.17249059272E+03  0.52154474194E+02  0.22402766125E+03  0.12500000000E+03 0.  0.
</event>
<event>
 5    0  0.5597833E-005  0.3492798E+03  0.7546771E-02  0.1062911E+00
         21   -1    0    0  502  501  0.00000000000E+00  0.00000000000E+00  0.12032887970E+04  0.12032887970E+04  0.00000000000E+00 0. -1.
         21   -1    0    0  501  502 -0.00000000000E+00 -0.00000000000E+00 -0.10138577196E+03  0.10138577196E+03  0.00000000000E+00 0. -1.
         25    1    1    2    0    0 -0.11884563809E+03 -0.16214459740E+03  0.18696419575E+03  0.30165504579E+03  0.12500000000E+03 0.  0.
         25    1    1    2    0    0  0.29385683994E+02  0.11672225074E+03  0.76188318646E+03  0.78139528540E+03  0.12500000000E+03 0.  0.
         25    1    1    2    0    0  0.89459954099E+02  0.45422346669E+02  0.15305564287E+03  0.22162423780E+03  0.12500000000E+03 0.  0.
</event>
<event>
 5    0  0.5597833E-005  0.3348789E+03  0.7546771E-02  0.1068998E+00
         21   -1    0    0  502  501  0.00000000000E+00  0.00000000000E+00  0.23038023307E+03  0.23038023307E+03  0.00000000000E+00 0.  1.
         21   -1    0    0  501  502 -0.00000000000E+00 -0.00000000000E+00 -0.48677747347E+03  0.48677747347E+03  0.00000000000E+00 0.  1.
         25    1    1    2    0    0  0.91628372445E+02 -0.12790111033E+03 -0.54068236587E+02  0.20809331289E+03  0.12500000000E+03 0.  0.
         25    1    1    2    0    0 -0.49773015411E+01 -0.12172306250E+03 -0.67267147751E+02  0.18705920625E+03  0.12500000000E+03 0.  0.
         25    1    1    2    0    0 -0.86651070904E+02  0.24962417283E+03 -0.13506185607E+03  0.32200518740E+03  0.12500000000E+03 0.  0.
</event>
<event>
 5    0  0.5597833E-005  0.3081579E+03  0.7546771E-02  0.1081232E+00
         21   -1    0    0  502  501  0.00000000000E+00  0.00000000000E+00  0.26468922523E+03  0.26468922523E+03  0.00000000000E+00 0.  1.
         21   -1    0    0  501  502 -0.00000000000E+00 -0.00000000000E+00 -0.35876519992E+03  0.35876519992E+03  0.00000000000E+00 0.  1.
         25    1    1    2    0    0 -0.17210601027E+02  0.31013188570E+02  0.47446922118E+02  0.13832654507E+03  0.12500000000E+03 0.  0.
         25    1    1    2    0    0  0.42055999820E+01 -0.17810031398E+03 -0.18637965042E+03  0.28653059697E+03  0.12500000000E+03 0.  0.
         25    1    1    2    0    0  0.13005001045E+02  0.14708712541E+03  0.44856753610E+02  0.19859728311E+03  0.12500000000E+03 0.  0.
</event>
<event>
 5    0  0.5597833E-005  0.5741682E+03  0.7546771E-02  0.9960497E-01
         21   -1    0    0  502  501  0.00000000000E+00  0.00000000000E+00  0.18573010453E+03  0.18573010453E+03  0.00000000000E+00 0. -1.
         21   -1    0    0  501  502 -0.00000000000E+00 -0.00000000000E+00 -0.17749900293E+04  0.17749900293E+04  0.00000000000E+00 0. -1.
         25    1    1    2    0    0  0.11397867968E+03  0.35064495348E+02 -0.46833802547E+02  0.17899459019E+03  0.12500000000E+03 0.  0.
         25    1    1    2    0    0 -0.12771648089E+03 -0.19297786297E+03 -0.15572591882E+04  0.15793141342E+04  0.12500000000E+03 0.  0.
         25    1    1    2    0    0  0.13737801217E+02  0.15791336762E+03  0.14833065958E+02  0.20241140952E+03  0.12500000000E+03 0.  0.
</event>
<event>
 5    0  0.5597833E-005  0.4088570E+03  0.7546771E-02  0.1040755E+00
         21   -1    0    0  502  501  0.00000000000E+00  0.00000000000E+00  0.25343490652E+03  0.25343490652E+03  0.00000000000E+00 0.  1.
         21   -1    0    0  501  502 -0.00000000000E+00 -0.00000000000E+00 -0.65959357172E+03  0.65959357172E+03  0.00000000000E+00 0.  1.
         25    1    1    2    0    0 -0.10921111471E+03  0.14113519881E+02 -0.16647231672E+03  0.23550858000E+03  0.12500000000E+03 0.  0.
         25    1    1    2    0    0 -0.18263025361E+03 -0.16953528383E+03 -0.12837749775E+03  0.30692312380E+03  0.12500000000E+03 0.  0.
         25    1    1    2    0    0  0.29184136833E+03  0.15542176395E+03 -0.11130885074E+03  0.37059677444E+03  0.12500000000E+03 0.  0.
</event>
<event>
 5    0  0.5597833E-005  0.2494173E+03  0.7546771E-02  0.1113674E+00
         21   -1    0    0  502  501  0.00000000000E+00  0.00000000000E+00  0.30255326814E+03  0.30255326814E+03  0.00000000000E+00 0.  1.
         21   -1    0    0  501  502 -0.00000000000E+00 -0.00000000000E+00 -0.20561341954E+03  0.20561341954E+03  0.00000000000E+00 0.  1.
         25    1    1    2    0    0 -0.12428243397E+03 -0.19853947383E+02  0.61285861836E+02  0.18767327855E+03  0.12500000000E+03 0.  0.
         25    1    1    2    0    0  0.52790963090E+02 -0.63228816722E+02 -0.33250772798E+01  0.14973585137E+03  0.12500000000E+03 0.  0.
         25    1    1    2    0    0  0.71491470877E+02  0.83082764105E+02  0.38979064037E+02  0.17075755776E+03  0.12500000000E+03 0.  0.
</event>
<event>
 5    0  0.5597833E-005  0.3288801E+03  0.7546771E-02  0.1071633E+00
         21   -1    0    0  502  501  0.00000000000E+00  0.00000000000E+00  0.26542720431E+03  0.26542720431E+03  0.00000000000E+00 0.  1.
         21   -1    0    0  501  502 -0.00000000000E+00 -0.00000000000E+00 -0.40750193275E+03  0.40750193275E+03  0.00000000000E+00 0.  1.
         25    1    1    2    0    0  0.17362158180E+03 -0.52097873481E+02 -0.96852503579E+02  0.24054947420E+03  0.12500000000E+03 0.  0.
         25    1    1    2    0    0 -0.81603923333E+02  0.70789508093E+02  0.12054805074E+03  0.20451696090E+03  0.12500000000E+03 0.  0.
         25    1    1    2    0    0 -0.92017658466E+02 -0.18691634612E+02 -0.16577027560E+03  0.22786270196E+03  0.12500000000E+03 0.  0.
</event>
<event>
 5    0  0.5597833E-005  0.3976541E+03  0.7546771E-02  0.1044595E+00
         21   -1    0    0  502  501  0.00000000000E+00  0.00000000000E+00  0.85374756816E+03  0.85374756816E+03  0.00000000000E+00 0.  1.
         21   -1    0    0  501  502 -0.00000000000E+00 -0.00000000000E+00 -0.18521728436E+03  0.18521728436E+03  0.00000000000E+00 0.  1.
         25    1    1    2    0    0 -0.13884245390E+03  0.15584113110E+03  0.63527558115E+03  0.68026741003E+03  0.12500000000E+03 0.  0.
         25    1    1    2    0    0  0.11829434772E+03 -0.25774436984E+02 -0.52381659234E+00  0.17402054099E+03  0.12500000000E+03 0.  0.
         25    1    1    2    0    0  0.20548106184E+02 -0.13006669411E+03  0.33778519241E+02  0.18467690150E+03  0.12500000000E+03 0.  0.
</event>
<event>
 5    0  0.5597833E-005  0.3538375E+03  0.7546771E-02  0.1061051E+00
         21   -1    0    0  502  501  0.00000000000E+00  0.00000000000E+00  0.26496971388E+03  0.26496971388E+03  0.00000000000E+00 0.  1.
         21   -1    0    0  501  502 -0.00000000000E+00 -0.00000000000E+00 -0.47251058365E+03  0.47251058365E+03  0.00000000000E+00 0.  1.
         25    1    1    2    0    0  0.10513921749E+03 -0.77774879548E+02 -0.16877091855E+03  0.24741020571E+03  0.12500000000E+03 0.  0.
         25    1    1    2    0    0  0.12156015718E+03 -0.72654179973E+02 -0.76623018880E+01  0.18904817521E+03  0.12500000000E+03 0.  0.
         25    1    1    2    0    0 -0.22669937468E+03  0.15042905952E+03 -0.31107649331E+02  0.30102191660E+03  0.12500000000E+03 0.  0.
</event>
<event>
 5    0  0.5597833E-005  0.6092548E+03  0.7546771E-02  0.9886389E-01
         21   -1    0    0  502  501  0.00000000000E+00  0.00000000000E+00  0.58443432136E+03  0.58443432136E+03  0.00000000000E+00 0. -1.
         21   -1    0    0  501  502 -0.00000000000E+00 -0.00000000000E+00 -0.63512946734E+03  0.63512946734E+03  0.00000000000E+00 0. -1.
         25    1    1    2    0    0 -0.21366715225E+03 -0.15101741227E+03 -0.35756002383E+03  0.46036298874E+03  0.12500000000E+03 0.  0.
         25    1    1    2    0    0  0.28100501968E+03  0.21202603539E+03  0.42415081437E+03  0.56519711084E+03  0.12500000000E+03 0.  0.
         25    1    1    2    0    0 -0.67337867431E+02 -0.61008623118E+02 -0.11728593651E+03  0.19400368911E+03  0.12500000000E+03 0.  0.
</event>
<event>
 5    0  0.5597833E-005  0.3538182E+03  0.7546771E-02  0.1061059E+00
         21   -1    0    0  502  501  0.00000000000E+00  0.00000000000E+00  0.13640201409E+04  0.13640201409E+04  0.00000000000E+00 0. -1.
         21   -1    0    0  501  502 -0.00000000000E+00 -0.00000000000E+00 -0.91778226272E+02  0.91778226272E+02  0.00000000000E+00 0. -1.
         25    1    1    2    0    0 -0.10143058084E+03  0.52777250760E+02  0.32894315734E+03  0.37000297524E+03  0.12500000000E+03 0.  0.
         25    1    1    2    0    0  0.10455849986E+03 -0.15911764223E+01  0.33958821616E+02  0.16647286056E+03  0.12500000000E+03 0.  0.
         25    1    1    2    0    0 -0.31279190250E+01 -0.51186074337E+02  0.90933993570E+03  0.91932253140E+03  0.12500000000E+03 0.  0.
</event>
<event>
 5    0  0.5597833E-005  0.2418749E+03  0.7546771E-02  0.1118550E+00
         21   -1    0    0  502  501  0.00000000000E+00  0.00000000000E+00  0.14482076761E+03  0.14482076761E+03  0.00000000000E+00 0.  1.
         21   -1    0    0  501  502 -0.00000000000E+00 -0.00000000000E+00 -0.40397167281E+03  0.40397167281E+03  0.00000000000E+00 0.  1.
         25    1    1    2    0    0  0.58853303281E+02  0.61514864802E+02 -0.15505861125E+02  0.15203033128E+03  0.12500000000E+03 0.  0.
         25    1    1    2    0    0  0.33975345670E+02 -0.84967155365E+02 -0.10693014172E+03  0.18823601359E+03  0.12500000000E+03 0.  0.
         25    1    1    2    0    0 -0.92828648951E+02  0.23452290563E+02 -0.13671490236E+03  0.20852609555E+03  0.12500000000E+03 0.  0.
</event>
<event>
 5    0  0.5597833E-005  0.2784060E+03  0.7546771E-02  0.1096563E+00
         21   -1    0    0  502  501  0.00000000000E+00  0.00000000000E+00  0.28770724933E+02  0.28770724933E+02  0.00000000000E+00 0. -1.
         21   -1    0    0  501  502 -0.00000000000E+00 -0.00000000000E+00 -0.26940537539E+04  0.26940537539E+04  0.00000000000E+00 0. -1.
         25    1    1    2    0    0 -0.81948467318E+02  0.38580053570E+02 -0.13839259434E+04  0.13925085238E+04  0.12500000000E+03 0.  0.
         25    1    1    2    0    0  0.14323848264E+03  0.86415277918E+01 -0.93298405378E+03  0.95219545447E+03  0.12500000000E+03 0.  0.
         25    1    1    2    0    0 -0.61290015318E+02 -0.47221581362E+02 -0.34837303177E+03  0.37812050061E+03  0.12500000000E+03 0.  0.
</event>
<event>
 5    0  0.8074723E-005  0.2933911E+03  0.7546771E-02  0.1088592E+00
         21   -1    0    0  502  501  0.00000000000E+00  0.00000000000E+00  0.68281220036E+03  0.68281220036E+03  0.00000000000E+00 0.  1.
         21   -1    0    0  501  502 -0.00000000000E+00 -0.00000000000E+00 -0.12606446451E+03  0.12606446451E+03  0.00000000000E+00 0.  1.
         25    1    1    2    0    0  0.10980163592E+03  0.13460589806E+03  0.36065893107E+03  0.41937454811E+03  0.12500000000E+03 0.  0.
         25    1    1    2    0    0 -0.18725294343E+02 -0.54907985645E+02  0.15400987883E+02  0.13866403270E+03  0.12500000000E+03 0.  0.
         25    1    1    2    0    0 -0.91076341573E+02 -0.79697912417E+02  0.18068781690E+03  0.25083808406E+03  0.12500000000E+03 0.  0.
</event>
<event>
 5    0  0.7289504E-005  0.2911332E+03  0.7546771E-02  0.1089759E+00
         21   -1    0    0  502  501  0.00000000000E+00  0.00000000000E+00  0.55585998151E+03  0.55585998151E+03  0.00000000000E+00 0.  1.
         21   -1    0    0  501  502 -0.00000000000E+00 -0.00000000000E+00 -0.15248176908E+03  0.15248176908E+03  0.00000000000E+00 0.  1.
         25    1    1    2    0    0 -0.49824743374E+02  0.21365303936E+02  0.19933258589E+03  0.24144867169E+03  0.12500000000E+03 0.  0.
         25    1    1    2    0    0  0.10958550581E+03 -0.15499836904E+03  0.10392462070E+03  0.24991759497E+03  0.12500000000E+03 0.  0.
         25    1    1    2    0    0 -0.59760762440E+02  0.13363306511E+03  0.10012100584E+03  0.21697548393E+03  0.12500000000E+03 0.  0.
</event>
<event>
 5    0  0.5597833E-005  0.5770566E+03  0.7546771E-02  0.9954184E-01
         21   -1    0    0  502  501  0.00000000000E+00  0.00000000000E+00  0.35058987541E+03  0.35058987541E+03  0.00000000000E+00 0.  1.
         21   -1    0    0  501  502 -0.00000000000E+00 -0.00000000000E+00 -0.94981167549E+03  0.94981167549E+03  0.00000000000E+00 0.  1.
         25    1    1    2    0    0  0.26132863254E+03 -0.24433211521E+03  0.52930459733E+02  0.38264535836E+03  0.12500000000E+03 0.  0.
         25    1    1    2    0    0 -0.22696238987E+03  0.63484211738E+02 -0.64176240214E+03  0.69500082903E+03  0.12500000000E+03 0.  0.
         25    1    1    2    0    0 -0.34366242669E+02  0.18084790347E+03 -0.10389857676E+02  0.22275536350E+03  0.12500000000E+03 0.  0.
</event>
<event>
 5    0  0.5597833E-005  0.2510107E+03  0.7546771E-02  0.1112668E+00
         21   -1    0    0  502  501  0.00000000000E+00  0.00000000000E+00  0.66332909572E+02  0.66332909572E+02  0.00000000000E+00 0.  1.
         21   -1    0    0  501  502 -0.00000000000E+00 -0.00000000000E+00 -0.94985077964E+03  0.94985077964E+03  0.00000000000E+00 0.  1.
         25    1    1    2    0    0  0.76025833833E+02 -0.26460088316E+02 -0.40859805160E+03  0.43480734982E+03  0.12500000000E+03 0.  0.
         25    1    1    2    0    0  0.36928050617E+02 -0.62503251967E+02 -0.21632271940E+03  0.26017466509E+03  0.12500000000E+03 0.  0.
         25    1    1    2    0    0 -0.11295388445E+03  0.88963340283E+02 -0.25859709907E+03  0.32120167431E+03  0.12500000000E+03 0.  0.
</event>
<event>
 5    0  0.5597833E-005  0.3827850E+03  0.7546771E-02  0.1049909E+00
         21   -1    0    0  502  501  0.00000000000E+00  0.00000000000E+00  0.99271571578E+03  0.99271571578E+03  0.00000000000E+00 0.  1.
         21   -1    0    0  501  502 -0.00000000000E+00 -0.00000000000E+00 -0.14759947590E+03  0.14759947590E+03  0.00000000000E+00 0.  1.
         25    1    1    2    0    0  0.16766659452E+03  0.63280123858E+02  0.27176646698E+03  0.34870972680E+03  0.12500000000E+03 0.  0.
         25    1    1    2    0    0  0.12578550176E+03 -0.33892278830E+02  0.67258797582E+02  0.19266402069E+03  0.12500000000E+03 0.  0.
         25    1    1    2    0    0 -0.29345209628E+03 -0.29387845028E+02  0.50609097532E+03  0.59894144418E+03  0.12500000000E+03 0.  0.
</event>
<event>
 5    0  0.5597833E-005  0.3019620E+03  0.7546771E-02  0.1084264E+00
         21   -1    0    0  502  501  0.00000000000E+00  0.00000000000E+00  0.38026729868E+02  0.38026729868E+02  0.00000000000E+00 0.  1.
         21   -1    0    0  501  502 -0.00000000000E+00 -0.00000000000E+00 -0.23978153226E+04  0.23978153226E+04  0.00000000000E+00 0.  1.
         25    1    1    2    0    0 -0.71702956145E+01 -0.15360198964E+03 -0.14978618838E+04  0.15109136995E+04  0.12500000000E+03 0.  0.
         25    1    1    2    0    0  0.38773303064E+02  0.10889683815E+03 -0.65715473754E+03  0.67885141192E+03  0.12500000000E+03 0.  0.
         25    1    1    2    0    0 -0.31603007450E+02  0.44705151491E+02 -0.20477197133E+03  0.24607694100E+03  0.12500000000E+03 0.  0.
</event>
<event>
 5    0  0.5597833E-005  0.2717682E+03  0.7546771E-02  0.1100272E+00
         21   -1    0    0  502  501  0.00000000000E+00  0.00000000000E+00  0.10176609050E+03  0.10176609050E+03  0.00000000000E+00 0.  1.
         21   -1    0    0  501  502 -0.00000000000E+00 -0.00000000000E+00 -0.72576219425E+03  0.72576219425E+03  0.00000000000E+00 0.  1.
         25    1    1    2    0    0  0.67726718437E+02 -0.16102910922E+01 -0.32497660531E+03  0.35471720486E+03  0.12500000000E+03 0.  0.
         25    1    1    2    0    0 -0.53362779468E+02  0.21028093425E+02  0.10699548099E+02  0.13794653774E+03  0.12500000000E+03 0.  0.
         25    1    1    2    0    0 -0.14363938969E+02 -0.19417802333E+02 -0.30971904654E+03  0.33486454214E+03  0.12500000000E+03 0.  0.
</event>
<event>
 5    0  0.5597833E-005  0.3032409E+03  0.7546771E-02  0.1083632E+00
         21   -1    0    0  502  501  0.00000000000E+00  0.00000000000E+00  0.96690765149E+03  0.96690765149E+03  0.00000000000E+00 0.  1.
         21   -1    0    0  501  502 -0.00000000000E+00 -0.00000000000E+00 -0.95102188697E+02  0.95102188697E+02  0.00000000000E+00 0.  1.
         25    1    1    2    0    0 -0.56734919087E+02  0.14747165928E+03  0.22084326929E+03  0.29893726922E+03  0.12500000000E+03 0.  0.
         25    1    1    2    0    0 -0.89250190053E+02 -0.61873676079E+02  0.41566384976E+03  0.44743198836E+03  0.12500000000E+03 0.  0.
         25    1    1    2    0    0  0.14598510914E+03 -0.85597983204E+02  0.23529834374E+03  0.31564058260E+03  0.12500000000E+03 0.  0.
</event>
<event>
 5    0  0.5597833E-005  0.5938058E+03  0.7546771E-02  0.9918341E-01
         21   -1    0    0  502  501  0.00000000000E+00  0.00000000000E+00  0.25497224359E+03  0.25497224359E+03  0.00000000000E+00 0. -1.
         21   -1    0    0  501  502 -0.00000000000E+00 -0.00000000000E+00 -0.13829165287E+04  0.13829165287E+04  0.00000000000E+00 0. -1.
         25    1    1    2    0    0 -0.24863938207E+02 -0.30505161473E+03 -0.13808307693E+03  0.35828290387E+03  0.12500000000E+03 0.  0.
         25    1    1    2    0    0 -0.34577088765E+01  0.47128740355E+03 -0.33412195208E+03  0.59108903844E+03  0.12500000000E+03 0.  0.
         25    1    1    2    0    0  0.28321647084E+02 -0.16623578882E+03 -0.65573925610E+03  0.68851682998E+03  0.12500000000E+03 0.  0.
</event>
<event>
 5    0  0.5597833E-005  0.4300499E+03  0.7546771E-02  0.1033844E+00
         21   -1    0    0  502  501  0.00000000000E+00  0.00000000000E+00  0.80702655560E+03  0.80702655560E+03  0.00000000000E+00 0.  1.
         21   -1    0    0  501  502 -0.00000000000E+00 -0.00000000000E+00 -0.22916580408E+03  0.22916580408E+03  0.00000000000E+00 0.  1.
         25    1    1    2    0    0 -0.28134188121E+03 -0.12154265295E+03  0.95480179246E+02  0.34448125528E+03  0.12500000000E+03 0.  0.
         25    1    1    2    0    0 -0.25441066004E+02  0.10296802057E+03  0.16301990795E+03  0.23119288806E+03  0.12500000000E+03 0.  0.
         25    1    1    2    0    0  0.30678294722E+03  0.18574632386E+02  0.31936066432E+03  0.46051821635E+03  0.12500000000E+03 0.  0.
</event>
<event>
 5    0  0.5597833E-005  0.4303361E+03  0.7546771E-02  0.1033754E+00
         21   -1    0    0  502  501  0.00000000000E+00  0.00000000000E+00  0.17615041699E+03  0.17615041699E+03  0.00000000000E+00 0.  1.
         21   -1    0    0  501  502 -0.00000000000E+00 -0.00000000000E+00 -0.10513125084E+04  0.10513125084E+04  0.00000000000E+00 0.  1.
         25    1    1    2    0    0  0.37443770235E+02  0.14984183027E+01 -0.26243368498E+03  0.29308824643E+03  0.12500000000E+03 0.  0.
         25    1    1    2    0    0  0.22023005228E+01  0.32104589516E+03 -0.39308780925E+03  0.52270292012E+03  0.12500000000E+03 0.  0.
         25    1    1    2    0    0 -0.39646070758E+02 -0.32254431346E+03 -0.21964059715E+03  0.41167175879E+03  0.12500000000E+03 0.  0.
</event>
<event>
 5    0  0.5597833E-005  0.2782825E+03  0.7546771E-02  0.1096631E+00
         21   -1    0    0  502  501  0.00000000000E+00  0.00000000000E+00  0.12174304557E+04  0.12174304557E+04  0.00000000000E+00 0.  1.
         21   -1    0    0  501  502 -0.00000000000E+00 -0.00000000000E+00 -0.63610339482E+02  0.63610339482E+02  0.00000000000E+00 0.  1.
         25    1    1    2    0    0  0.39153455690E+02 -0.18958075013E+03  0.40539545660E+03  0.46630926449E+03  0.12500000000E+03 0.  0.
         25    1    1    2    0    0 -0.41298470558E+02  0.96415382063E+02  0.43667803526E+03  0.46616970735E+03  0.12500000000E+03 0.  0.
         25    1    1    2    0    0  0.21450148685E+01  0.93165368071E+02  0.31174662433E+03  0.34856182332E+03  0.12500000000E+03 0.  0.
</event>
<event>
 5    0  0.5597833E-005  0.2688449E+03  0.7546771E-02  0.1101943E+00
         21   -1    0    0  502  501  0.00000000000E+00  0.00000000000E+00  0.35780225379E+03  0.35780225379E+03  0.00000000000E+00 0. -1.
         21   -1    0    0  501  502 -0.00000000000E+00 -0.00000000000E+00 -0.20200431626E+03  0.20200431626E+03  0.00000000000E+00 0. -1.
         25    1    1    2    0    0  0.74077756906E+02 -0.65120283181E+02 -0.58604170291E+02  0.16966913133E+03  0.12500000000E+03 0.  0.
         25    1    1    2    0    0 -0.10921004102E+03  0.88500367497E+02  0.16175184832E+03  0.24808830795E+03  0.12500000000E+03 0.  0.
         25    1    1    2    0    0  0.35132284110E+02 -0.23380084316E+02  0.52650259500E+02  0.14204913078E+03  0.12500000000E+03 0.  0.
</event>
<event>
 5    0  0.5597833E-005  0.2910398E+03  0.7546771E-02  0.1089807E+00
         21   -1    0    0  502  501  0.00000000000E+00  0.00000000000E+00  0.10035400116E+04  0.10035400116E+04  0.00000000000E+00 0. -1.
         21   -1    0    0  501  502 -0.00000000000E+00 -0.00000000000E+00 -0.84405372670E+02  0.84405372670E+02  0.00000000000E+00 0. -1.
         25    1    1    2    0    0  0.14454848081E+02  0.14483132471E+03  0.60045680390E+03  0.63036372723E+03  0.12500000000E+03 0.  0.
         25    1    1    2    0    0 -0.80264358196E+02 -0.92609611744E+02  0.14187805703E+03  0.22532929337E+03  0.12500000000E+03 0.  0.
         25    1    1    2    0    0  0.65809510115E+02 -0.52221712969E+02  0.17679977795E+03  0.23225236363E+03  0.12500000000E+03 0.  0.
</event>
<event>
 5    0  0.5597833E-005  0.3263917E+03  0.7546771E-02  0.1072745E+00
         21   -1    0    0  502  501  0.00000000000E+00  0.00000000000E+00  0.41489773367E+03  0.41489773367E+03  0.00000000000E+00 0.  1.
         21   -1    0    0  501  502 -0.00000000000E+00 -0.00000000000E+00 -0.25676575233E+03  0.25676575233E+03  0.00000000000E+00 0.  1.
         25    1    1    2    0    0 -0.32417590134E+02 -0.12460928202E+03  0.20425738759E+03  0.27189051786E+03  0.12500000000E+03 0.  0.
         25    1    1    2    0    0 -0.94379106823E+00  0.20814357868E+03 -0.20546871264E+02  0.24366332101E+03  0.12500000000E+03 0.  0.
         25    1    1    2    0    0  0.33361381202E+02 -0.83534296660E+02 -0.25578534979E+02  0.15610964713E+03  0.12500000000E+03 0.  0.
</event>
<event>
 5    0  0.5597833E-005  0.3115018E+03  0.7546771E-02  0.1079628E+00
         21   -1    0    0  502  501  0.00000000000E+00  0.00000000000E+00  0.19766080075E+03  0.19766080075E+03  0.00000000000E+00 0.  1.
         21   -1    0    0  501  502 -0.00000000000E+00 -0.00000000000E+00 -0.49090849485E+03  0.49090849485E+03  0.00000000000E+00 0.  1.
         25    1    1    2    0    0  0.98476785978E+02  0.52731370913E+02 -0.32504648541E+02  0.17076248719E+03  0.12500000000E+03 0.  0.
         25    1    1    2    0    0  0.43959306847E+02  0.97742135424E+02 -0.21619911933E+03  0.27175909349E+03  0.12500000000E+03 0.  0.
         25    1    1    2    0    0 -0.14243609283E+03 -0.15047350634E+03 -0.44543926221E+02  0.24604771491E+03  0.12500000000E+03 0.  0.
</event>
<event>
 5    0  0.5597833E-005  0.4707673E+03  0.7546771E-02  0.1021704E+00
         21   -1    0    0  502  501  0.00000000000E+00  0.00000000000E+00  0.22432685198E+04  0.22432685198E+04  0.00000000000E+00 0. -1.
         21   -1    0    0  501  502 -0.00000000000E+00 -0.00000000000E+00 -0.98794180665E+02  0.98794180665E+02  0.00000000000E+00 0. -1.
         25    1    1    2    0    0 -0.27557603166E+03 -0.10077321872E+03  0.91817612556E+03  0.97199268947E+03  0.12500000000E+03 0.  0.
         25    1    1    2    0    0  0.14886474077E+03  0.28869406928E+03  0.62370119684E+03  0.71423606716E+03  0.12500000000E+03 0.  0.
         25    1    1    2    0    0  0.12671129089E+03 -0.18792085057E+03  0.60259701672E+03  0.65583394383E+03  0.12500000000E+03 0.  0.
</event>
<event>
 5    0  0.5597833E-005  0.2102418E+03  0.7546771E-02  0.1141375E+00
         21   -1    0    0  502  501  0.00000000000E+00  0.00000000000E+00  0.10086336571E+03  0.10086336571E+03  0.00000000000E+00 0.  1.
         21   -1    0    0  501  502 -0.00000000000E+00 -0.00000000000E+00 -0.43823239800E+03  0.43823239800E+03  0.00000000000E+00 0.  1.
         25    1    1    2    0    0  0.78693060831E+01  0.32322357319E+02 -0.58537152099E+02  0.14197978355E+03  0.12500000000E+03 0.  0.
         25    1    1    2    0    0  0.33975008166E+02  0.35181917557E+02 -0.14360117617E+03  0.19656644245E+03  0.12500000000E+03 0.  0.
         25    1    1    2    0    0 -0.41844314249E+02 -0.67504274876E+02 -0.13523070403E+03  0.20054953771E+03  0.12500000000E+03 0.  0.
</event>
<event>
 5    0  0.5597833E-005  0.3661081E+03  0.7546771E-02  0.1056191E+00
         21   -1    0    0  502  501  0.00000000000E+00  0.00000000000E+00  0.47001314136E+03  0.47001314136E+03  0.00000000000E+00 0. -1.
         21   -1    0    0  501  502 -0.00000000000E+00 -0.00000000000E+00 -0.28517317650E+03  0.28517317650E+03  0.00000000000E+00 0. -1.
         25    1    1    2    0    0 -0.86102236968E+02 -0.28901793728E+03  0.11956011330E+03  0.34765584128E+03  0.12500000000E+03 0.  0.
         25    1    1    2    0    0  0.39645029021E+02  0.18698917991E+03  0.72053791983E+02  0.23948576298E+03  0.12500000000E+03 0.  0.
         25    1    1    2    0    0  0.46457207947E+02  0.10202875737E+03 -0.67739404303E+01  0.16804471360E+03  0.12500000000E+03 0.  0.
</event>
<event>
 5    0  0.5597833E-005  0.2595291E+03  0.7546771E-02  0.1107426E+00
         21   -1    0    0  502  501  0.00000000000E+00  0.00000000000E+00  0.13899769692E+04  0.13899769692E+04  0.00000000000E+00 0.  1.
         21   -1    0    0  501  502 -0.00000000000E+00 -0.00000000000E+00 -0.48457883988E+02  0.48457883988E+02  0.00000000000E+00 0.  1.
         25    1    1    2    0    0 -0.27604930057E+02  0.45344094382E+02  0.12589041924E+03  0.18517968764E+03  0.12500000000E+03 0.  0.
         25    1    1    2    0    0  0.40930468823E+02  0.47339849456E+02  0.72546824996E+03  0.73881360729E+03  0.12500000000E+03 0.  0.
         25    1    1    2    0    0 -0.13325538765E+02 -0.92683943838E+02  0.49016041599E+03  0.51444155823E+03  0.12500000000E+03 0.  0.
</event>
<event>
 5    0  0.6292149E-005  0.2890895E+03  0.7546771E-02  0.1090825E+00
         21   -1    0    0  502  501  0.00000000000E+00  0.00000000000E+00  0.85227077641E+02  0.85227077641E+02  0.00000000000E+00 0.  1.
         21   -1    0    0  501  502 -0.00000000000E+00 -0.00000000000E+00 -0.98058897905E+03  0.98058897905E+03  0.00000000000E+00 0.  1.
         25    1    1    2    0    0 -0.10210675250E+03 -0.11291443923E+03 -0.17148035582E+03  0.26116273074E+03  0.12500000000E+03 0.  0.
         25    1    1    2    0    0  0.44797208949E+01  0.49921594630E+02 -0.52778122003E+03  0.54469280308E+03  0.12500000000E+03 0.  0.
         25    1    1    2    0    0  0.97627031602E+02  0.62992844601E+02 -0.19610032555E+03  0.25996052287E+03  0.12500000000E+03 0.  0.
</event>
<event>
 5    0  0.5597833E-005  0.3006333E+03  0.7546771E-02  0.1084924E+00
         21   -1    0    0  502  501  0.00000000000E+00  0.00000000000E+00  0.16472277995E+04  0.16472277995E+04  0.00000000000E+00 0.  1.
         21   -1    0    0  501  502 -0.00000000000E+00 -0.00000000000E+00 -0.54868178493E+02  0.54868178493E+02  0.00000000000E+00 0.  1.
         25    1    1    2    0    0  0.22979391042E+01 -0.41486582523E+02  0.24616270973E+03  0.27919078909E+03  0.12500000000E+03 0.  0.
         25    1    1    2    0    0 -0.18556238398E+03  0.48769658601E+02  0.83007712035E+03  0.86108356370E+03  0.12500000000E+03 0.  0.
         25    1    1    2    0    0  0.18326444488E+03 -0.72830760780E+01  0.51611979094E+03  0.56182162521E+03  0.12500000000E+03 0.  0.
</event>
<event>
 5    0  0.5597833E-005  0.2406176E+03  0.7546771E-02  0.1119382E+00
         21   -1    0    0  502  501  0.00000000000E+00  0.00000000000E+00  0.24514239208E+03  0.24514239208E+03  0.00000000000E+00 0. -1.
         21   -1    0    0  501  502 -0.00000000000E+00 -0.00000000000E+00 -0.23617630040E+03  0.23617630040E+03  0.00000000000E+00 0. -1.
         25    1    1    2    0    0  0.24712616676E+02 -0.12039020555E+03  0.38882584389E+02  0.17955882152E+03  0.12500000000E+03 0.  0.
         25    1    1    2    0    0  0.32884312046E+02  0.87700038852E+02  0.41600950328E+01  0.15625293976E+03  0.12500000000E+03 0.  0.
         25    1    1    2    0    0 -0.57596928722E+02  0.32690166697E+02 -0.34076587743E+02  0.14550693121E+03  0.12500000000E+03 0.  0.
</event>
<event>
 5    0  0.5597833E-005  0.4497002E+03  0.7546771E-02  0.1027811E+00
         21   -1    0    0  502  501  0.00000000000E+00  0.00000000000E+00  0.37966319668E+03  0.37966319668E+03  0.00000000000E+00 0.  1.
         21   -1    0    0  501  502 -0.00000000000E+00 -0.00000000000E+00 -0.53265695483E+03  0.53265695483E+03  0.00000000000E+00 0.  1.
         25    1    1    2    0    0 -0.18318962974E+03  0.21376369177E+03 -0.10115527207E+03  0.32420787380E+03  0.12500000000E+03 0.  0.
         25    1    1    2    0    0  0.30612428943E+03 -0.22153431948E+03 -0.91040365396E+02  0.40829264433E+03  0.12500000000E+03 0.  0.
         25    1    1    2    0    0 -0.12293465969E+03  0.77706277067E+01  0.39201879319E+02  0.17981963338E+03  0.12500000000E+03 0.  0.
</event>
<event>
 5    0  0.5597833E-005  0.5053348E+03  0.7546771E-02  0.1012396E+00
         21   -1    0    0  502  501  0.00000000000E+00  0.00000000000E+00  0.10049304339E+04  0.10049304339E+04  0.00000000000E+00 0. -1.
         21   -1    0    0  501  502 -0.00000000000E+00 -0.00000000000E+00 -0.25411041406E+03  0.25411041406E+03  0.00000000000E+00 0. -1.
         25    1    1    2    0    0  0.12496256337E+03  0.30522490556E+03  0.39086244665E+03  0.52647539109E+03  0.12500000000E+03 0.  0.
         25    1    1    2    0    0  0.24701208164E+02  0.86299707062E+02 -0.17416314421E+02  0.15487452060E+03  0.12500000000E+03 0.  0.
         25    1    1    2    0    0 -0.14966377154E+03 -0.39152461262E+03  0.37737388763E+03  0.57769093628E+03  0.12500000000E+03 0.  0.
</event>
<event>
 5    0  0.5597833E-005  0.4057939E+03  0.7546771E-02  0.1041792E+00
         21   -1    0    0  502  501  0.00000000000E+00  0.00000000000E+00  0.13300304206E+04  0.13300304206E+04  0.00000000000E+00 0.  1.
         21   -1    0    0  501  502 -0.00000000000E+00 -0.00000000000E+00 -0.12380820999E+03  0.12380820999E+03  0.00000000000E+00 0.  1.
         25    1    1    2    0    0  0.29945327945E+03  0.17475793892E+02  0.54195585195E+03  0.63191677886E+03  0.12500000000E+03 0.  0.
         25    1    1    2    0    0 -0.11341426313E+03 -0.22149507555E+02  0.65211106231E+02  0.18229340126E+03  0.12500000000E+03 0.  0.
         25    1    1    2    0    0 -0.18603901631E+03  0.46737136628E+01  0.59905525246E+03  0.63962845050E+03  0.12500000000E+03 0.  0.
</event>
<event>
 5    0  0.5597833E-005  0.2968993E+03  0.7546771E-02  0.1086801E+00
         21   -1    0    0  502  501  0.00000000000E+00  0.00000000000E+00  0.10358516370E+04  0.10358516370E+04  0.00000000000E+00 0. -1.
         21   -1    0    0  501  502 -0.00000000000E+00 -0.00000000000E+00 -0.85098292453E+02  0.85098292453E+02  0.00000000000E+00 0. -1.
         25    1    1    2    0    0  0.44210202090E+02 -0.71420332318E+02  0.11128125679E+03  0.18725363535E+03  0.12500000000E+03 0.  0.
         25    1    1    2    0    0 -0.75179208079E+02 -0.99966300371E+02  0.51754866601E+03  0.54692485428E+03  0.12500000000E+03 0.  0.
         25    1    1    2    0    0  0.30969005989E+02  0.17138663269E+03  0.32192342171E+03  0.38677143980E+03  0.12500000000E+03 0.  0.
</event>
<event>
 5    0  0.5597833E-005  0.2441082E+03  0.7546771E-02  0.1117086E+00
         21   -1    0    0  502  501  0.00000000000E+00  0.00000000000E+00  0.23021567372E+04  0.23021567372E+04  0.00000000000E+00 0.  1.
         21   -1    0    0  501  502 -0.00000000000E+00 -0.00000000000E+00 -0.25883913704E+02  0.25883913704E+02  0.00000000000E+00 0.  1.
         25    1    1    2    0    0 -0.33670325923E+02  0.13272365247E+02  0.33982849111E+03  0.36389318473E+03  0.12500000000E+03 0.  0.
         25    1    1    2    0    0  0.83942713597E+02 -0.60640665764E+02  0.13861985814E+04  0.13956701533E+04  0.12500000000E+03 0.  0.
         25    1    1    2    0    0 -0.50272387674E+02  0.47368300517E+02  0.55024575091E+03  0.56847731287E+03  0.12500000000E+03 0.  0.
</event>
<event>
 5    0  0.5597833E-005  0.2837403E+03  0.7546771E-02  0.1093663E+00
         21   -1    0    0  502  501  0.00000000000E+00  0.00000000000E+00  0.47244644913E+03  0.47244644913E+03  0.00000000000E+00 0.  1.
         21   -1    0    0  501  502 -0.00000000000E+00 -0.00000000000E+00 -0.17040776876E+03  0.17040776876E+03  0.00000000000E+00 0.  1.
         25    1    1    2    0    0 -0.11232771444E+03 -0.80710399498E+02  0.21852696549E+03  0.28724679052E+03  0.12500000000E+03 0.  0.
         25    1    1    2    0    0  0.40143420420E+02  0.82217198088E+02 -0.46082873028E+02  0.16161619056E+03  0.12500000000E+03 0.  0.
         25    1    1    2    0    0  0.72184294019E+02 -0.15067985897E+01  0.12959458791E+03  0.19399123681E+03  0.12500000000E+03 0.  0.
</event>
<event>
 5    0  0.5597833E-005  0.6322868E+03  0.7546771E-02  0.9840596E-01
         21   -1    0    0  502  501  0.00000000000E+00  0.00000000000E+00  0.71128540323E+03  0.71128540323E+03  0.00000000000E+00 0. -1.
         21   -1    0    0  501  502 -0.00000000000E+00 -0.00000000000E+00 -0.56206206831E+03  0.56206206831E+03  0.00000000000E+00 0. -1.
         25    1    1    2    0    0  0.10534894571E+03  0.26389456455E+03  0.30263860573E+03  0.43353646587E+03  0.12500000000E+03 0.  0.
         25    1    1    2    0    0  0.12874523942E+03 -0.42638275926E+03  0.54152695705E+02  0.46576293167E+03  0.12500000000E+03 0.  0.
         25    1    1    2    0    0 -0.23409418513E+03  0.16248819471E+03 -0.20756796651E+03  0.37404807399E+03  0.12500000000E+03 0.  0.
</event>
<event>
 5    0  0.5597833E-005  0.2419269E+03  0.7546771E-02  0.1118516E+00
         21   -1    0    0  502  501  0.00000000000E+00  0.00000000000E+00  0.56047429459E+03  0.56047429459E+03  0.00000000000E+00 0.  1.
         21   -1    0    0  501  502 -0.00000000000E+00 -0.00000000000E+00 -0.10442698867E+03  0.10442698867E+03  0.00000000000E+00 0.  1.
         25    1    1    2    0    0 -0.45716393464E+02  0.14037540624E+02  0.30037368477E+03  0.32884098236E+03  0.12500000000E+03 0.  0.
         25    1    1    2    0    0  0.91088966686E+02  0.13651954266E+02  0.11823902263E+03  0.19516414164E+03  0.12500000000E+03 0.  0.
         25    1    1    2    0    0 -0.45372573222E+02 -0.27689494890E+02  0.37434598516E+02  0.14089615926E+03  0.12500000000E+03 0.  0.
</event>
<event>
 5    0  0.6154705E-005  0.2973772E+03  0.7546771E-02  0.1086559E+00
         21   -1    0    0  502  501  0.00000000000E+00  0.00000000000E+00  0.64865568624E+03  0.64865568624E+03  0.00000000000E+00 0. -1.
         21   -1    0    0  501  502 -0.00000000000E+00 -0.00000000000E+00 -0.13633306873E+03  0.13633306873E+03  0.00000000000E+00 0. -1.
         25    1    1    2    0    0  0.13052252072E+03 -0.15088288460E+03  0.29109475616E+03  0.37438340019E+03  0.12500000000E+03 0.  0.
         25    1    1    2    0    0 -0.23582716720E+02  0.10485304751E+03  0.15834028251E+03  0.22857591992E+03  0.12500000000E+03 0.  0.
         25    1    1    2    0    0 -0.10693980400E+03  0.46029837090E+02  0.62887578840E+02  0.18202943486E+03  0.12500000000E+03 0.  0.
</event>
<event>
 5    0  0.5597833E-005  0.3273223E+03  0.7546771E-02  0.1072328E+00
         21   -1    0    0  502  501  0.00000000000E+00  0.00000000000E+00  0.17594915437E+03  0.17594915437E+03  0.00000000000E+00 0.  1.
         21   -1    0    0  501  502 -0.00000000000E+00 -0.00000000000E+00 -0.60892519982E+03  0.60892519982E+03  0.00000000000E+00 0.  1.
         25    1    1    2    0    0 -0.90782259033E+02 -0.14337771227E+03 -0.11833198266E+03  0.24171480106E+03  0.12500000000E+03 0.  0.
         25    1    1    2    0    0  0.20745274645E+03  0.84821935210E+02 -0.14237092018E+03  0.29347211386E+03  0.12500000000E+03 0.  0.
         25    1    1    2    0    0 -0.11667048742E+03  0.58555777061E+02 -0.17227314260E+03  0.24968743926E+03  0.12500000000E+03 0.  0.
</event>
<event>
 5    0  0.5597833E-005  0.5667706E+03  0.7546771E-02  0.9976850E-01
         21   -1    0    0  502  501  0.00000000000E+00  0.00000000000E+00  0.22156605141E+03  0.22156605141E+03  0.00000000000E+00 0. -1.
         21   -1    0    0  501  502 -0.00000000000E+00 -0.00000000000E+00 -0.14498109530E+04  0.14498109530E+04  0.00000000000E+00 0. -1.
         25    1    1    2    0    0 -0.18874753306E+03  0.50193363618E+02 -0.24123282952E+03  0.33460914964E+03  0.12500000000E+03 0.  0.
         25    1    1    2    0    0  0.46204713619E+02 -0.42958400869E+03 -0.67124723712E+03  0.80800689937E+03  0.12500000000E+03 0.  0.
         25    1    1    2    0    0  0.14254281944E+03  0.37939064507E+03 -0.31576483493E+03  0.52876095537E+03  0.12500000000E+03 0.  0.
</event>
<event>
 5    0  0.5597833E-005  0.2732534E+03  0.7546771E-02  0.1099432E+00
         21   -1    0    0  502  501  0.00000000000E+00  0.00000000000E+00  0.12284330634E+03  0.12284330634E+03  0.00000000000E+00 0. -1.
         21   -1    0    0  501  502 -0.00000000000E+00 -0.00000000000E+00 -0.60782638636E+03  0.60782638636E+03  0.00000000000E+00 0. -1.
         25    1    1    2    0    0 -0.13053813782E+03 -0.13968530052E+03 -0.22589663938E+03  0.32125765406E+03  0.12500000000E+03 0.  0.
         25    1    1    2    0    0  0.59301784447E+02  0.49707141134E+02 -0.11139394878E+03  0.18444813185E+03  0.12500000000E+03 0.  0.
         25    1    1    2    0    0  0.71236353373E+02  0.89978159384E+02 -0.14769249186E+03  0.22496390679E+03  0.12500000000E+03 0.  0.
</event>
<event>
 5    0  0.5597833E-005  0.2529248E+03  0.7546771E-02  0.1111470E+00
         21   -1    0    0  502  501  0.00000000000E+00  0.00000000000E+00  0.22513164875E+03  0.22513164875E+03  0.00000000000E+00 0.  1.
         21   -1    0    0  501  502 -0.00000000000E+00 -0.00000000000E+00 -0.28414912620E+03  0.28414912620E+03  0.00000000000E+00 0.  1.
         25    1    1    2    0    0 -0.10539435929E+03 -0.80726743322E+01  0.16039929694E+02  0.16448531359E+03  0.12500000000E+03 0.  0.
         25    1    1    2    0    0  0.13651804166E+03  0.36116890462E+02  0.83785416125E+01  0.18877713165E+03  0.12500000000E+03 0.  0.
         25    1    1    2    0    0 -0.31123682368E+02 -0.28044216129E+02 -0.83435948752E+02  0.15601832971E+03  0.12500000000E+03 0.  0.
</event>
<event>
 5    0  0.5597833E-005  0.4821928E+03  0.7546771E-02  0.1018534E+00
         21   -1    0    0  502  501  0.00000000000E+00  0.00000000000E+00  0.29145927902E+03  0.29145927902E+03  0.00000000000E+00 0.  1.
         21   -1    0    0  501  502 -0.00000000000E+00 -0.00000000000E+00 -0.79774389292E+03  0.79774389292E+03  0.00000000000E+00 0.  1.
         25    1    1    2    0    0 -0.21611350046E+03  0.10255038068E+03 -0.35448808118E+02  0.27221910965E+03  0.12500000000E+03 0.  0.
         25    1    1    2    0    0 -0.16349271425E+03 -0.14903502021E+03 -0.11132806566E+03  0.27741709224E+03  0.12500000000E+03 0.  0.
         25    1    1    2    0    0  0.37960621472E+03  0.46484639530E+02 -0.35950774013E+03  0.53956697005E+03  0.12500000000E+03 0.  0.
</event>
<event>
 5    0  0.5597833E-005  0.2686079E+03  0.7546771E-02  0.1102079E+00
         21   -1    0    0  502  501  0.00000000000E+00  0.00000000000E+00  0.46307349042E+03  0.46307349042E+03  0.00000000000E+00 0. -1.
         21   -1    0    0  501  502 -0.00000000000E+00 -0.00000000000E+00 -0.15580729423E+03  0.15580729423E+03  0.00000000000E+00 0. -1.
         25    1    1    2    0    0 -0.11684359008E+03 -0.11835128783E+03  0.55492024262E+02  0.21532258736E+03  0.12500000000E+03 0.  0.
         25    1    1    2    0    0  0.64508099505E+02  0.94429675984E+01  0.10090780695E+03  0.17337199901E+03  0.12500000000E+03 0.  0.
         25    1    1    2    0    0  0.52335490571E+02  0.10890832023E+03  0.15086636498E+03  0.23018619827E+03  0.12500000000E+03 0.  0.
</event>
<event>
 5    0  0.5597833E-005  0.2941982E+03  0.7546771E-02  0.1088177E+00
         21   -1    0    0  502  501  0.00000000000E+00  0.00000000000E+00  0.19763081205E+03  0.19763081205E+03  0.00000000000E+00 0.  1.
         21   -1    0    0  501  502 -0.00000000000E+00 -0.00000000000E+00 -0.43795069513E+03  0.43795069513E+03  0.00000000000E+00 0. -1.
         25    1    1    2    0    0  0.90632417750E+02  0.13043657731E+03 -0.33028514589E+02  0.20480190093E+03  0.12500000000E+03 0.  0.
         25    1    1    2    0    0 -0.80719233934E+02 -0.12331555682E+03 -0.23286176208E+03  0.30260852850E+03  0.12500000000E+03 0.  0.
         25    1    1    2    0    0 -0.99131838167E+01 -0.71210204916E+01  0.25570393586E+02  0.12817107776E+03  0.12500000000E+03 0.  0.
</event>
<event>
 5    0  0.5597833E-005  0.6047763E+03  0.7546771E-02  0.9895546E-01
         21   -1    0    0  502  501  0.00000000000E+00  0.00000000000E+00  0.66766741231E+03  0.66766741231E+03  0.00000000000E+00 0. -1.
         21   -1    0    0  501  502 -0.00000000000E+00 -0.00000000000E+00 -0.54780928340E+03  0.54780928340E+03  0.00000000000E+00 0. -1.
         25    1    1    2    0    0  0.53786616274E+02 -0.12747522428E+03 -0.94171575321E+02  0.20889283974E+03  0.12500000000E+03 0.  0.
         25    1    1    2    0    0  0.12917637510E+03  0.37426402529E+03  0.44022033748E+03  0.60512729408E+03  0.12500000000E+03 0.  0.
         25    1    1    2    0    0 -0.18296299138E+03 -0.24678880101E+03 -0.22619063324E+03  0.40145656189E+03  0.12500000000E+03 0.  0.
</event>
<event>
 5    0  0.6088741E-005  0.5181061E+03  0.7546771E-02  0.1009158E+00
         21   -1    0    0  502  501  0.00000000000E+00  0.00000000000E+00  0.98200011579E+03  0.98200011579E+03  0.00000000000E+00 0.  1.
         21   -1    0    0  501  502 -0.00000000000E+00 -0.00000000000E+00 -0.27335430782E+03  0.27335430782E+03  0.00000000000E+00 0.  1.
         25    1    1    2    0    0  0.22668677049E+03 -0.20077443627E+02  0.34541394866E+03  0.43211779828E+03  0.12500000000E+03 0.  0.
         25    1    1    2    0    0 -0.27711315333E+03 -0.17797580521E+02  0.52645973491E+03  0.60818854486E+03  0.12500000000E+03 0.  0.
         25    1    1    2    0    0  0.50426382842E+02  0.37875024148E+02 -0.16322787560E+03  0.21504808047E+03  0.12500000000E+03 0.  0.
</event>
<event>
 5    0  0.6438286E-005  0.2775040E+03  0.7546771E-02  0.1097060E+00
         21   -1    0    0  502  501  0.00000000000E+00  0.00000000000E+00  0.33435218054E+03  0.33435218054E+03  0.00000000000E+00 0. -1.
         21   -1    0    0  501  502 -0.00000000000E+00 -0.00000000000E+00 -0.23032135101E+03  0.23032135101E+03  0.00000000000E+00 0. -1.
         25    1    1    2    0    0 -0.12094125855E+02 -0.65453840718E+02  0.12772863985E+03  0.19070940874E+03  0.12500000000E+03 0.  0.
         25    1    1    2    0    0  0.92703277883E+02  0.10304486473E+03 -0.89545160282E+02  0.20701564580E+03  0.12500000000E+03 0.  0.
         25    1    1    2    0    0 -0.80609152028E+02 -0.37591024008E+02  0.65847349965E+02  0.16694847700E+03  0.12500000000E+03 0.  0.
</event>
<event>
 5    0  0.5848224E-005  0.5149402E+03  0.7546771E-02  0.1009951E+00
         21   -1    0    0  502  501  0.00000000000E+00  0.00000000000E+00  0.76834568791E+03  0.76834568791E+03  0.00000000000E+00 0. -1.
         21   -1    0    0  501  502 -0.00000000000E+00 -0.00000000000E+00 -0.34510945730E+03  0.34510945730E+03  0.00000000000E+00 0. -1.
         25    1    1    2    0    0  0.20177560513E+03  0.17218546476E+03 -0.13786457184E+03  0.32402603178E+03  0.12500000000E+03 0.  0.
         25    1    1    2    0    0 -0.97480769922E+02  0.78482709245E+02  0.42631007026E+03  0.46154881883E+03  0.12500000000E+03 0.  0.
         25    1    1    2    0    0 -0.10429483521E+03 -0.25066817401E+03  0.13479073219E+03  0.32788029461E+03  0.12500000000E+03 0.  0.
</event>
<event>
 5    0  0.5597833E-005  0.2876511E+03  0.7546771E-02  0.1091582E+00
         21   -1    0    0  502  501  0.00000000000E+00  0.00000000000E+00  0.85636969735E+03  0.85636969735E+03  0.00000000000E+00 0. -1.
         21   -1    0    0  501  502 -0.00000000000E+00 -0.00000000000E+00 -0.96620847157E+02  0.96620847157E+02  0.00000000000E+00 0. -1.
         25    1    1    2    0    0 -0.93961289572E+02  0.26912705841E+02  0.31662469087E+03  0.35415986862E+03  0.12500000000E+03 0.  0.
         25    1    1    2    0    0  0.10599807370E+03 -0.87826602595E+02  0.66997763559E+02  0.19764312301E+03  0.12500000000E+03 0.  0.
         25    1    1    2    0    0 -0.12036784130E+02  0.60913896754E+02  0.37612639576E+03  0.40118755287E+03  0.12500000000E+03 0.  0.
</event>
<event>
 5    0  0.5597833E-005  0.2498074E+03  0.7546771E-02  0.1113427E+00
         21   -1    0    0  502  501  0.00000000000E+00  0.00000000000E+00  0.32369684563E+03  0.32369684563E+03  0.00000000000E+00 0.  1.
         21   -1    0    0  501  502 -0.00000000000E+00 -0.00000000000E+00 -0.19278449473E+03  0.19278449473E+03  0.00000000000E+00 0.  1.
         25    1    1    2    0    0 -0.47155561220E+02  0.79135231203E+02 -0.44118462003E+01  0.15533993742E+03  0.12500000000E+03 0.  0.
         25    1    1    2    0    0 -0.24558252825E+02  0.45273773237E+02  0.15241771456E+02  0.13605195303E+03  0.12500000000E+03 0.  0.
         25    1    1    2    0    0  0.71713814045E+02 -0.12440900444E+03  0.12008242564E+03  0.22508944991E+03  0.12500000000E+03 0.  0.
</event>
<event>
 5    0  0.5597833E-005  0.2366320E+03  0.7546771E-02  0.1122057E+00
         21   -1    0    0  502  501  0.00000000000E+00  0.00000000000E+00  0.39361919324E+03  0.39361919324E+03  0.00000000000E+00 0.  1.
         21   -1    0    0  501  502 -0.00000000000E+00 -0.00000000000E+00 -0.14225608032E+03  0.14225608032E+03  0.00000000000E+00 0.  1.
         25    1    1    2    0    0 -0.71125504448E+01 -0.35462657776E+02 -0.21757550207E+02  0.13193399661E+03  0.12500000000E+03 0.  0.
         25    1    1    2    0    0  0.18233809020E+02  0.71072635879E+02  0.21920087208E+03  0.26278853415E+03  0.12500000000E+03 0.  0.
         25    1    1    2    0    0 -0.11121258575E+02 -0.35609978103E+02  0.53919791046E+02  0.14115274280E+03  0.12500000000E+03 0.  0.
</event>
<event>
 5    0  0.5597833E-005  0.5837334E+03  0.7546771E-02  0.9939741E-01
         21   -1    0    0  502  501  0.00000000000E+00  0.00000000000E+00  0.55711431180E+03  0.55711431180E+03  0.00000000000E+00 0.  1.
         21   -1    0    0  501  502 -0.00000000000E+00 -0.00000000000E+00 -0.61162436468E+03  0.61162436468E+03  0.00000000000E+00 0.  1.
         25    1    1    2    0    0 -0.36149129260E+03  0.12322047817E+03  0.17751148677E+02  0.40224289197E+03  0.12500000000E+03 0.  0.
         25    1    1    2    0    0  0.32905820944E+03  0.10962083026E+03 -0.25082405981E+03  0.44590777141E+03  0.12500000000E+03 0.  0.
         25    1    1    2    0    0  0.32433083162E+02 -0.23284130843E+03  0.17856285825E+03  0.32058801309E+03  0.12500000000E+03 0.  0.
</event>
<event>
 5    0  0.5743007E-005  0.3100159E+03  0.7546771E-02  0.1080338E+00
         21   -1    0    0  502  501  0.00000000000E+00  0.00000000000E+00  0.37570954083E+03  0.37570954083E+03  0.00000000000E+00 0.  1.
         21   -1    0    0  501  502 -0.00000000000E+00 -0.00000000000E+00 -0.25580894179E+03  0.25580894179E+03  0.00000000000E+00 0.  1.
         25    1    1    2    0    0  0.40336973547E+01 -0.85259046688E+02  0.22234125768E+02  0.15298605200E+03  0.12500000000E+03 0.  0.
         25    1    1    2    0    0 -0.33921323508E+01 -0.80565673587E+02 -0.10988087957E+03  0.18493550773E+03  0.12500000000E+03 0.  0.
         25    1    1    2    0    0 -0.64156500395E+00  0.16582472028E+03  0.20754735285E+03  0.29359692290E+03  0.12500000000E+03 0.  0.
</event>
<event>
 5    0  0.5597833E-005  0.4164256E+03  0.7546771E-02  0.1038236E+00
         21   -1    0    0  502  501  0.00000000000E+00  0.00000000000E+00  0.17784221254E+03  0.17784221254E+03  0.00000000000E+00 0. -1.
         21   -1    0    0  501  502 -0.00000000000E+00 -0.00000000000E+00 -0.97507940469E+03  0.97507940469E+03  0.00000000000E+00 0. -1.
         25    1    1    2    0    0  0.12295243464E+03 -0.27758811974E+03 -0.14853218237E+03  0.36035992370E+03  0.12500000000E+03 0.  0.
         25    1    1    2    0    0  0.24759093598E+02  0.75316147809E+02 -0.10647264695E+03  0.18233748760E+03  0.12500000000E+03 0.  0.
         25    1    1    2    0    0 -0.14771152824E+03  0.20227197194E+03 -0.54223236283E+03  0.61022420593E+03  0.12500000000E+03 0.  0.
</event>
<event>
 5    0  0.5597833E-005  0.2847412E+03  0.7546771E-02  0.1093127E+00
         21   -1    0    0  502  501  0.00000000000E+00  0.00000000000E+00  0.44648010259E+03  0.44648010259E+03  0.00000000000E+00 0. -1.
         21   -1    0    0  501  502 -0.00000000000E+00 -0.00000000000E+00 -0.18159272531E+03  0.18159272531E+03  0.00000000000E+00 0. -1.
         25    1    1    2    0    0  0.11788834562E+02 -0.50062529598E+02  0.49010510420E+02  0.14377852281E+03  0.12500000000E+03 0.  0.
         25    1    1    2    0    0  0.15118011961E+03 -0.22469702806E+01  0.18585257655E+03  0.27023444941E+03  0.12500000000E+03 0.  0.
         25    1    1    2    0    0 -0.16296895417E+03  0.52309499879E+02  0.30024290321E+02  0.21405985567E+03  0.12500000000E+03 0.  0.
</event>
<event>
 5    0  0.5597833E-005  0.2751402E+03  0.7546771E-02  0.1098373E+00
         21   -1    0    0  502  501  0.00000000000E+00  0.00000000000E+00  0.22149061256E+03  0.22149061256E+03  0.00000000000E+00 0. -1.
         21   -1    0    0  501  502 -0.00000000000E+00 -0.00000000000E+00 -0.34178493501E+03  0.34178493501E+03  0.00000000000E+00 0. -1.
         25    1    1    2    0    0 -0.14656588241E+03 -0.53573803446E+02  0.14099281691E+02  0.20043826992E+03  0.12500000000E+03 0.  0.
         25    1    1    2    0    0  0.50568909402E+02 -0.54600636416E+02 -0.66782105395E+02  0.16007277625E+03  0.12500000000E+03 0.  0.
         25    1    1    2    0    0  0.95996973012E+02  0.10817443986E+03 -0.67611498751E+02  0.20276450141E+03  0.12500000000E+03 0.  0.
</event>
<event>
 5    0  0.5597833E-005  0.3087319E+03  0.7546771E-02  0.1080955E+00
         21   -1    0    0  502  501  0.00000000000E+00  0.00000000000E+00  0.11106842398E+03  0.11106842398E+03  0.00000000000E+00 0.  1.
         21   -1    0    0  501  502 -0.00000000000E+00 -0.00000000000E+00 -0.85816793086E+03  0.85816793086E+03  0.00000000000E+00 0.  1.
         25    1    1    2    0    0 -0.32881549156E+01  0.64325219790E+02 -0.48159495554E+03  0.50170434229E+03  0.12500000000E+03 0.  0.
         25    1    1    2    0    0 -0.43530986555E+02 -0.16565877593E+03 -0.18591532498E+03  0.28200582422E+03  0.12500000000E+03 0.  0.
         25    1    1    2    0    0  0.46819141470E+02  0.10133355614E+03 -0.79589226355E+02  0.18552618834E+03  0.12500000000E+03 0.  0.
</event>
<event>
 5    0  0.5597833E-005  0.3205736E+03  0.7546771E-02  0.1075386E+00
         21   -1    0    0  502  501  0.00000000000E+00  0.00000000000E+00  0.83845769452E+02  0.83845769452E+02  0.00000000000E+00 0. -1.
         21   -1    0    0  501  502 -0.00000000000E+00 -0.00000000000E+00 -0.12256725067E+04  0.12256725067E+04  0.00000000000E+00 0. -1.
         25    1    1    2    0    0  0.48720863362E+02 -0.13894801820E+03 -0.61873257110E+03  0.64817842360E+03  0.12500000000E+03 0.  0.
         25    1    1    2    0    0 -0.76956857519E+02 -0.33444598986E+01 -0.57110617544E+02  0.15754417148E+03  0.12500000000E+03 0.  0.
         25    1    1    2    0    0  0.28235994157E+02  0.14229247810E+03 -0.46598354859E+03  0.50379568105E+03  0.12500000000E+03 0.  0.
</event>
<event>
 5    0  0.5597833E-005  0.2234566E+03  0.7546771E-02  0.1131332E+00
         21   -1    0    0  502  501  0.00000000000E+00  0.00000000000E+00  0.26569373802E+03  0.26569373802E+03  0.00000000000E+00 0.  1.
         21   -1    0    0  501  502 -0.00000000000E+00 -0.00000000000E+00 -0.18793394229E+03  0.18793394229E+03  0.00000000000E+00 0.  1.
         25    1    1    2    0    0 -0.15192411953E+01 -0.72859649540E+02 -0.21798691220E+02  0.14632504763E+03  0.12500000000E+03 0.  0.
         25    1    1    2    0    0  0.55410887117E+01  0.94263139406E+02  0.88530432178E+02  0.17994132526E+03  0.12500000000E+03 0.  0.
         25    1    1    2    0    0 -0.40218475164E+01 -0.21403489866E+02  0.11028054770E+02  0.12736130742E+03  0.12500000000E+03 0.  0.
</event>
<event>
 5    0  0.5597833E-005  0.5957231E+03  0.7546771E-02  0.9914319E-01
         21   -1    0    0  502  501  0.00000000000E+00  0.00000000000E+00  0.70567812247E+03  0.70567812247E+03  0.00000000000E+00 0. -1.
         21   -1    0    0  501  502 -0.00000000000E+00 -0.00000000000E+00 -0.50290063605E+03  0.50290063605E+03  0.00000000000E+00 0. -1.
         25    1    1    2    0    0  0.50509603151E+02  0.95620788763E+02 -0.40054183726E+03  0.43330511034E+03  0.12500000000E+03 0.  0.
         25    1    1    2    0    0  0.32382452111E+02 -0.76206095398E+02 -0.34135470825E+01  0.14997547961E+03  0.12500000000E+03 0.  0.
         25    1    1    2    0    0 -0.82892055262E+02 -0.19414693365E+02  0.60673287077E+03  0.62529816857E+03  0.12500000000E+03 0.  0.
</event>
<event>
 5    0  0.5597833E-005  0.2569132E+03  0.7546771E-02  0.1109012E+00
         21   -1    0    0  502  501  0.00000000000E+00  0.00000000000E+00  0.29279581849E+03  0.29279581849E+03  0.00000000000E+00 0. -1.
         21   -1    0    0  501  502 -0.00000000000E+00 -0.00000000000E+00 -0.22542805973E+03  0.22542805973E+03  0.00000000000E+00 0. -1.
         25    1    1    2    0    0 -0.59524931592E+02  0.79793811409E+02  0.24507133154E+01  0.15981638156E+03  0.12500000000E+03 0.  0.
         25    1    1    2    0    0 -0.35296063727E+02 -0.76002138248E+02 -0.55704248718E+02  0.16046837837E+03  0.12500000000E+03 0.  0.
         25    1    1    2    0    0  0.94820995319E+02 -0.37916731610E+01  0.12062129416E+03  0.19793911828E+03  0.12500000000E+03 0.  0.
</event>
<event>
 5    0  0.5597833E-005  0.2618721E+03  0.7546771E-02  0.1106024E+00
         21   -1    0    0  502  501  0.00000000000E+00  0.00000000000E+00  0.28400991322E+04  0.28400991322E+04  0.00000000000E+00 0.  1.
         21   -1    0    0  501  502 -0.00000000000E+00 -0.00000000000E+00 -0.24145977878E+02  0.24145977878E+02  0.00000000000E+00 0.  1.
         25    1    1    2    0    0  0.24524306075E+02  0.11880011320E+03  0.13891073872E+04  0.13999854433E+04  0.12500000000E+03 0.  0.
         25    1    1    2    0    0 -0.17334155533E+02 -0.12798242197E+02  0.98143466610E+03  0.98959753020E+03  0.12500000000E+03 0.  0.
         25    1    1    2    0    0 -0.71901505425E+01 -0.10600187100E+03  0.44541110104E+03  0.47466213653E+03  0.12500000000E+03 0.  0.
</event>
<event>
 5    0  0.5597833E-005  0.2329301E+03  0.7546771E-02  0.1124594E+00
         21   -1    0    0  502  501  0.00000000000E+00  0.00000000000E+00  0.43679703960E+03  0.43679703960E+03  0.00000000000E+00 0.  1.
         21   -1    0    0  501  502 -0.00000000000E+00 -0.00000000000E+00 -0.12421431974E+03  0.12421431974E+03  0.00000000000E+00 0.  1.
         25    1    1    2    0    0 -0.56664601328E+02  0.17693347554E+02  0.14568052644E+03  0.20092721910E+03  0.12500000000E+03 0.  0.
         25    1    1    2    0    0 -0.62329209376E+02 -0.22534135274E+02  0.10681491573E+03  0.17727702563E+03  0.12500000000E+03 0.  0.
         25    1    1    2    0    0  0.11899381070E+03  0.48407877204E+01  0.60087277686E+02  0.18280711461E+03  0.12500000000E+03 0.  0.
</event>
<event>
 5    0  0.5979085E-005  0.2965555E+03  0.7546771E-02  0.1086975E+00
         21   -1    0    0  502  501  0.00000000000E+00  0.00000000000E+00  0.22420360676E+03  0.22420360676E+03  0.00000000000E+00 0. -1.
         21   -1    0    0  501  502 -0.00000000000E+00 -0.00000000000E+00 -0.39225582845E+03  0.39225582845E+03  0.00000000000E+00 0. -1.
         25    1    1    2    0    0 -0.10420223816E+03  0.10372123882E+03 -0.16179234985E+02  0.19365683428E+03  0.12500000000E+03 0.  0.
         25    1    1    2    0    0  0.15814041376E+02  0.50521549292E+01 -0.19300887657E+03  0.23054941902E+03  0.12500000000E+03 0.  0.
         25    1    1    2    0    0  0.88388196783E+02 -0.10877339375E+03  0.41135889872E+02  0.19225318191E+03  0.12500000000E+03 0.  0.
</event>
<event>
 5    0  0.5597833E-005  0.2159935E+03  0.7546771E-02  0.1136906E+00
         21   -1    0    0  502  501  0.00000000000E+00  0.00000000000E+00  0.16415254206E+04  0.16415254206E+04  0.00000000000E+00 0. -1.
         21   -1    0    0  501  502 -0.00000000000E+00 -0.00000000000E+00 -0.28420641440E+02  0.28420641440E+02  0.00000000000E+00 0. -1.
         25    1    1    2    0    0  0.65871993454E+02  0.18668763423E+02  0.64242236746E+03  0.65804189871E+03  0.12500000000E+03 0.  0.
         25    1    1    2    0    0  0.18733933447E+02 -0.30748636627E+01  0.55970129739E+03  0.57380393633E+03  0.12500000000E+03 0.  0.
         25    1    1    2    0    0 -0.84605926901E+02 -0.15593899760E+02  0.41098111436E+03  0.43810022704E+03  0.12500000000E+03 0.  0.
</event>
<event>
 5    0  0.5597833E-005  0.3019285E+03  0.7546771E-02  0.1084281E+00
         21   -1    0    0  502  501  0.00000000000E+00  0.00000000000E+00  0.14245295602E+04  0.14245295602E+04  0.00000000000E+00 0. -1.
         21   -1    0    0  501  502 -0.00000000000E+00 -0.00000000000E+00 -0.63993617533E+02  0.63993617533E+02  0.00000000000E+00 0. -1.
         25    1    1    2    0    0  0.65612726695E+02 -0.40835108547E+02  0.35453632044E+03  0.38378840330E+03  0.12500000000E+03 0.  0.
         25    1    1    2    0    0 -0.14390910940E+03  0.10255597020E+03  0.86462237849E+03  0.89130489518E+03  0.12500000000E+03 0.  0.
         25    1    1    2    0    0  0.78296382708E+02 -0.61720861657E+02  0.14137724372E+03  0.21342987924E+03  0.12500000000E+03 0.  0.
</event>
<event>
 5    0  0.6350921E-005  0.3510707E+03  0.7546771E-02  0.1062176E+00
         21   -1    0    0  502  501  0.00000000000E+00  0.00000000000E+00  0.33514444861E+03  0.33514444861E+03  0.00000000000E+00 0.  1.
         21   -1    0    0  501  502 -0.00000000000E+00 -0.00000000000E+00 -0.36775385252E+03  0.36775385252E+03  0.00000000000E+00 0.  1.
         25    1    1    2    0    0  0.20346267679E+03  0.80049671267E+02  0.13393055102E+03  0.28524972079E+03  0.12500000000E+03 0.  0.
         25    1    1    2    0    0 -0.59128885224E+02 -0.10828955566E+02 -0.16366047613E+03  0.21453028410E+03  0.12500000000E+03 0.  0.
         25    1    1    2    0    0 -0.14433379157E+03 -0.69220715701E+02 -0.28794787942E+01  0.20311829624E+03  0.12500000000E+03 0.  0.
</event>
<event>
 5    0  0.5597833E-005  0.3508337E+03  0.7546771E-02  0.1062273E+00
         21   -1    0    0  502  501  0.00000000000E+00  0.00000000000E+00  0.12844261647E+03  0.12844261647E+03  0.00000000000E+00 0.  1.
         21   -1    0    0  501  502 -0.00000000000E+00 -0.00000000000E+00 -0.95828213914E+03  0.95828213914E+03  0.00000000000E+00 0.  1.
         25    1    1    2    0    0 -0.30477624198E+02 -0.20691035025E+03 -0.64868450570E+03  0.69293388324E+03  0.12500000000E+03 0.  0.
         25    1    1    2    0    0  0.19221108030E+02  0.26717882122E+02 -0.80050135253E+02  0.15204052214E+03  0.12500000000E+03 0.  0.
         25    1    1    2    0    0  0.11256516168E+02  0.18019246813E+03 -0.10110488172E+03  0.24175035023E+03  0.12500000000E+03 0.  0.
</event>
<event>
 5    0  0.5597833E-005  0.2544026E+03  0.7546771E-02  0.1110554E+00
         21   -1    0    0  502  501  0.00000000000E+00  0.00000000000E+00  0.10375748080E+03  0.10375748080E+03  0.00000000000E+00 0. -1.
         21   -1    0    0  501  502 -0.00000000000E+00 -0.00000000000E+00 -0.62376890158E+03  0.62376890158E+03  0.00000000000E+00 0. -1.
         25    1    1    2    0    0 -0.77156061548E+02 -0.10510938719E+03 -0.12473952718E+03  0.21951307649E+03  0.12500000000E+03 0.  0.
         25    1    1    2    0    0  0.11125359151E+03  0.82410312641E+02 -0.21131325574E+03  0.28186364310E+03  0.12500000000E+03 0.  0.
         25    1    1    2    0    0 -0.34097529964E+02  0.22699074544E+02 -0.18395863787E+03  0.22614966279E+03  0.12500000000E+03 0.  0.
</event>
<event>
 5    0  0.5597833E-005  0.2157135E+03  0.7546771E-02  0.1137120E+00
         21   -1    0    0  502  501  0.00000000000E+00  0.00000000000E+00  0.56242739990E+03  0.56242739990E+03  0.00000000000E+00 0.  1.
         21   -1    0    0  501  502 -0.00000000000E+00 -0.00000000000E+00 -0.82734807372E+02  0.82734807372E+02  0.00000000000E+00 0.  1.
         25    1    1    2    0    0 -0.56675294621E+01 -0.36336638440E+02  0.20829236105E+03  0.24568919360E+03  0.12500000000E+03 0.  0.
         25    1    1    2    0    0 -0.26748040335E+02 -0.27984264223E+02  0.61034016924E+02  0.14439088589E+03  0.12500000000E+03 0.  0.
         25    1    1    2    0    0  0.32415569797E+02  0.64320902663E+02  0.21036621456E+03  0.25508212778E+03  0.12500000000E+03 0.  0.
</event>
<event>
 5    0  0.5597833E-005  0.2677597E+03  0.7546771E-02  0.1102569E+00
         21   -1    0    0  502  501  0.00000000000E+00  0.00000000000E+00  0.25148281819E+03  0.25148281819E+03  0.00000000000E+00 0.  1.
         21   -1    0    0  501  502 -0.00000000000E+00 -0.00000000000E+00 -0.28509016616E+03  0.28509016616E+03  0.00000000000E+00 0.  1.
         25    1    1    2    0    0 -0.42703492409E+02  0.37517379236E+02 -0.57856586811E+02  0.14900847844E+03  0.12500000000E+03 0.  0.
         25    1    1    2    0    0 -0.14948625170E+02 -0.14864752040E+03 -0.40890272062E+02  0.19903909431E+03  0.12500000000E+03 0.  0.
         25    1    1    2    0    0  0.57652117578E+02  0.11113014116E+03  0.65139510905E+02  0.18852541160E+03  0.12500000000E+03 0.  0.
</event>
<event>
 5    0  0.5597833E-005  0.5607768E+03  0.7546771E-02  0.9990299E-01
         21   -1    0    0  502  501  0.00000000000E+00  0.00000000000E+00  0.35345087864E+03  0.35345087864E+03  0.00000000000E+00 0. -1.
         21   -1    0    0  501  502 -0.00000000000E+00 -0.00000000000E+00 -0.88971517360E+03  0.88971517360E+03  0.00000000000E+00 0. -1.
         25    1    1    2    0    0  0.13503979267E+03  0.47006616544E+02 -0.38098376112E+03  0.42569824271E+03  0.12500000000E+03 0.  0.
         25    1    1    2    0    0 -0.22211458768E+03  0.26786818250E+03  0.10163835357E+03  0.38346265552E+03  0.12500000000E+03 0.  0.
         25    1    1    2    0    0  0.87074795014E+02 -0.31487479905E+03 -0.25691888741E+03  0.43400515401E+03  0.12500000000E+03 0.  0.
</event>
<event>
 5    0  0.5597833E-005  0.5303258E+03  0.7546771E-02  0.1006153E+00
         21   -1    0    0  502  501  0.00000000000E+00  0.00000000000E+00  0.30000240311E+03  0.30000240311E+03  0.00000000000E+00 0.  1.
         21   -1    0    0  501  502 -0.00000000000E+00 -0.00000000000E+00 -0.93747721455E+03  0.93747721455E+03  0.00000000000E+00 0.  1.
         25    1    1    2    0    0 -0.52909576353E+02 -0.21087389959E+03  0.27113886196E+02  0.25224469791E+03  0.12500000000E+03 0.  0.
         25    1    1    2    0    0  0.14014730008E+03  0.42064603414E+03 -0.49053777425E+03  0.67293139303E+03  0.12500000000E+03 0.  0.
         25    1    1    2    0    0 -0.87237723724E+02 -0.20977213455E+03 -0.17405092339E+03  0.31230352673E+03  0.12500000000E+03 0.  0.
</event>
<event>
 5    0  0.5645123E-005  0.2585493E+03  0.7546771E-02  0.1108018E+00
         21   -1    0    0  502  501  0.00000000000E+00  0.00000000000E+00  0.86615642787E+03  0.86615642787E+03  0.00000000000E+00 0. -1.
         21   -1    0    0  501  502 -0.00000000000E+00 -0.00000000000E+00 -0.77177441114E+02  0.77177441114E+02  0.00000000000E+00 0. -1.
         25    1    1    2    0    0 -0.56665063521E+02 -0.68044227462E+02  0.26348722970E+03  0.30478101406E+03  0.12500000000E+03 0.  0.
         25    1    1    2    0    0  0.37497519885E+02  0.14567537551E+03  0.19454815878E+03  0.27586475874E+03  0.12500000000E+03 0.  0.
         25    1    1    2    0    0  0.19167543636E+02 -0.77631148052E+02  0.33094359828E+03  0.36268809619E+03  0.12500000000E+03 0.  0.
</event>
<event>
 5    0  0.5597833E-005  0.2578510E+03  0.7546771E-02  0.1108441E+00
         21   -1    0    0  502  501  0.00000000000E+00  0.00000000000E+00  0.68503113671E+02  0.68503113671E+02  0.00000000000E+00 0.  1.
         21   -1    0    0  501  502 -0.00000000000E+00 -0.00000000000E+00 -0.97057102340E+03  0.97057102340E+03  0.00000000000E+00 0.  1.
         25    1    1    2    0    0  0.29060967024E+02 -0.17487335122E+02 -0.20553565442E+03  0.24294084039E+03  0.12500000000E+03 0.  0.
         25    1    1    2    0    0  0.10467685094E+03  0.86924341920E+02 -0.40248730975E+03  0.44287031832E+03  0.12500000000E+03 0.  0.
         25    1    1    2    0    0 -0.13373781796E+03 -0.69437006798E+02 -0.29404494556E+03  0.35326297835E+03  0.12500000000E+03 0.  0.
</event>
<event>
 5    0  0.5597833E-005  0.2914148E+03  0.7546771E-02  0.1089613E+00
         21   -1    0    0  502  501  0.00000000000E+00  0.00000000000E+00  0.15098399603E+03  0.15098399603E+03  0.00000000000E+00 0.  1.
         21   -1    0    0  501  502 -0.00000000000E+00 -0.00000000000E+00 -0.56246103114E+03  0.56246103114E+03  0.00000000000E+00 0.  1.
         25    1    1    2    0    0  0.63352737466E+02  0.54385794398E+02  0.40045186297E+02  0.15556349483E+03  0.12500000000E+03 0.  0.
         25    1    1    2    0    0  0.29296798638E+02 -0.29136706463E+02 -0.79377540806E+02  0.15373042659E+03  0.12500000000E+03 0.  0.
         25    1    1    2    0    0 -0.92649536104E+02 -0.25249087934E+02 -0.37214468060E+03  0.40415110575E+03  0.12500000000E+03 0.  0.
</event>
<event>
 5    0  0.5597833E-005  0.2660890E+03  0.7546771E-02  0.1103539E+00
         21   -1    0    0  502  501  0.00000000000E+00  0.00000000000E+00  0.43147913708E+02  0.43147913708E+02  0.00000000000E+00 0.  1.
         21   -1    0    0  501  502 -0.00000000000E+00 -0.00000000000E+00 -0.16409456739E+04  0.16409456739E+04  0.00000000000E+00 0.  1.
         25    1    1    2    0    0  0.73449106796E+02 -0.13073446975E+03 -0.34113012960E+03  0.39304075894E+03  0.12500000000E+03 0.  0.
         25    1    1    2    0    0 -0.54479100655E+02  0.51030074843E+02 -0.67127066198E+03  0.68687796775E+03  0.12500000000E+03 0.  0.
         25    1    1    2    0    0 -0.18970006142E+02  0.79704394906E+02 -0.58539696865E+03  0.60417486095E+03  0.12500000000E+03 0.  0.
</event>
<event>
 5    0  0.5597833E-005  0.2821730E+03  0.7546771E-02  0.1094508E+00
         21   -1    0    0  502  501  0.00000000000E+00  0.00000000000E+00  0.15094707181E+03  0.15094707181E+03  0.00000000000E+00 0. -1.
         21   -1    0    0  501  502 -0.00000000000E+00 -0.00000000000E+00 -0.52748020353E+03  0.52748020353E+03  0.00000000000E+00 0. -1.
         25    1    1    2    0    0  0.64191127770E+02 -0.37599480491E+02 -0.10917383927E+03  0.18187399209E+03  0.12500000000E+03 0.  0.
         25    1    1    2    0    0  0.11500896505E+03 -0.26399630715E+02 -0.18971098183E+03  0.25600636549E+03  0.12500000000E+03 0.  0.
         25    1    1    2    0    0 -0.17920009282E+03  0.63999111206E+02 -0.77648310628E+02  0.24054691776E+03  0.12500000000E+03 0.  0.
</event>
