<event>
 6    0  0.1361744E+002  0.1142582E+03  0.7546771E-02  0.1252882E+00
         21   -1    0    0  501  502  0.00000000000E+00  0.00000000000E+00  0.18004012214E+03  0.18004012214E+03  0.00000000000E+00 0. -1.
          2   -1    0    0  505    0 -0.00000000000E+00 -0.00000000000E+00 -0.10613532499E+04  0.10613532499E+04  0.00000000000E+00 0. -1.
         21    1    1    2  503  504 -0.10563899033E+03  0.45233966123E+02  0.13239806447E+03  0.17531387693E+03  0.00000000000E+00 0. -1.
         21    1    1    2  504  502  0.18851267799E+02  0.32556931985E+02  0.49193683475E+01  0.37941063544E+02  0.00000000000E+00 0. -1.
         21    1    1    2  505  503  0.47050703064E+02 -0.14519561354E+02 -0.19480450745E+03  0.20093128787E+03  0.00000000000E+00 0.  1.
          2    1    1    2  501    0  0.39737019469E+02 -0.63271336754E+02 -0.82382605311E+03  0.82720714368E+03  0.00000000000E+00 0. -1.
<scales pt_clust_3="14000.00000" pt_clust_4="37.62079" pt_clust_5="49.40765" pt_clust_6="114.25820"></scales>
<clustering>
<clus scale="   37.621">  1  4  2 -1</clus>
<clus scale="   49.408">  2  5  1 -1</clus>
<clus scale="  114.258">  2  6  1 -1</clus>
<clus scale="   37.621">  1  3  2 -1</clus>
</clustering>
</event>
<event>
 6    0  0.1361744E+002  0.1419109E+03  0.7546771E-02  0.1210781E+00
          2   -1    0    0  503    0 -0.00000000000E+00  0.00000000000E+00  0.17511239175E+04  0.17511239175E+04  0.00000000000E+00 0. -1.
         21   -1    0    0  504  502  0.00000000000E+00 -0.00000000000E+00 -0.10490852687E+04  0.10490852687E+04  0.00000000000E+00 0.  1.
         21    1    1    2  503  505  0.33461373143E+02 -0.50958335614E+02  0.53605161485E+03  0.53950695013E+03  0.00000000000E+00 0.  1.
         21    1    1    2  504  501 -0.25449192041E+02 -0.40306433197E+02 -0.37362239023E+02  0.60565723288E+02  0.00000000000E+00 0.  1.
         21    1    1    2  505  502 -0.10328157463E+03 -0.20288801956E+02 -0.99111962750E+03  0.99669294929E+03  0.00000000000E+00 0.  1.
          2    1    1    2  501    0  0.95269393528E+02  0.11155357077E+03  0.11944689005E+04  0.12034435636E+04  0.00000000000E+00 0. -1.
<scales pt_clust_3="60.99653" pt_clust_4="47.66833" pt_clust_5="141.91089" pt_clust_6="14000.00000"></scales>
<clustering>
<clus scale="   47.668">  2  4  1 -1</clus>
<clus scale="   60.997">  1  3  2 -1</clus>
<clus scale="  141.911">  2  5  1 -1</clus>
<clus scale="   47.668">  2  3  1 -1</clus>
</clustering>
</event>
<event>
 6    0  0.1361744E+002  0.1176767E+03  0.7546771E-02  0.1246980E+00
         21   -1    0    0  504  502  0.00000000000E+00  0.00000000000E+00  0.45843920739E+02  0.45843920739E+02  0.00000000000E+00 0.  1.
          1   -1    0    0  505    0 -0.00000000000E+00 -0.00000000000E+00 -0.32153765158E+04  0.32153765158E+04  0.00000000000E+00 0. -1.
         21    1    1    2  503  502 -0.68176427660E+02  0.62870844610E+02 -0.15417267999E+02  0.94013087084E+02  0.00000000000E+00 0.  1.
         21    1    1    2  504  501 -0.52606276327E+01  0.33820375249E+02 -0.53037910589E+02  0.63122990619E+02  0.00000000000E+00 0. -1.
         21    1    1    2  505  503  0.38872790827E+01 -0.36278364999E+02 -0.14334604040E+04  0.14339246705E+04  0.00000000000E+00 0. -1.
          1    1    1    2  501    0  0.69549776210E+02 -0.60412854860E+02 -0.16676170125E+04  0.16701596884E+04  0.00000000000E+00 0. -1.
<scales pt_clust_3="117.67666" pt_clust_4="34.22707" pt_clust_5="36.29153" pt_clust_6="14000.00000"></scales>
<clustering>
<clus scale="   34.227">  1  4  2 -1</clus>
<clus scale="   36.292">  2  5  1 -1</clus>
<clus scale="  117.677">  1  3  2 -1</clus>
<clus scale="   34.227">  1  3  2 -1</clus>
</clustering>
</event>
<event>
 6    0  0.1361744E+002  0.4255708E+03  0.7546771E-02  0.1035268E+00
          2   -1    0    0  504    0 -0.00000000000E+00  0.00000000000E+00  0.28080542050E+04  0.28080542050E+04  0.00000000000E+00 0. -1.
         21   -1    0    0  505  502  0.00000000000E+00 -0.00000000000E+00 -0.25041754382E+03  0.25041754382E+03  0.00000000000E+00 0.  1.
         21    1    1    2  503  501  0.17288621773E+03 -0.11979581890E+03  0.90476153739E+03  0.92888864890E+03  0.00000000000E+00 0. -1.
         21    1    1    2  504  502  0.31497200726E+02  0.56877848550E+02  0.70867710831E+02  0.96173778899E+02  0.00000000000E+00 0. -1.
         21    1    1    2  505  503 -0.35778604133E+03  0.18187549872E+03 -0.36764109715E+02  0.40303988409E+03  0.00000000000E+00 0.  1.
          2    1    1    2  501    0  0.15340262287E+03 -0.11895752837E+03  0.16187715227E+04  0.16303694369E+04  0.00000000000E+00 0. -1.
<scales pt_clust_3="129.31643" pt_clust_4="65.01664" pt_clust_5="403.72664" pt_clust_6="129.31643"></scales>
<clustering>
<clus scale="   65.017">  2  4  1 -1</clus>
<clus scale="  129.316">  3  6 -1 -1</clus>
<clus scale="  403.727">  2  5  1 -1</clus>
<clus scale="   65.017">  2  3  1 -1</clus>
</clustering>
</event>
<event>
 6    0  0.1361744E+002  0.9165758E+02  0.7546771E-02  0.1298887E+00
         21   -1    0    0  503  502  0.00000000000E+00  0.00000000000E+00  0.20819722801E+03  0.20819722801E+03  0.00000000000E+00 0. -1.
          2   -1    0    0  505    0 -0.00000000000E+00 -0.00000000000E+00 -0.15388090419E+04  0.15388090419E+04  0.00000000000E+00 0. -1.
         21    1    1    2  503  501  0.39538378787E+02 -0.37436830380E+02 -0.37755879744E+03  0.38146486757E+03  0.00000000000E+00 0. -1.
         21    1    1    2  504  502  0.50564991012E+02  0.41882301184E+02  0.68831973714E+02  0.95125107484E+02  0.00000000000E+00 0. -1.
         21    1    1    2  505  504 -0.12301399488E+03  0.19904782071E+02  0.92554197391E+02  0.15522539335E+03  0.00000000000E+00 0. -1.
          2    1    1    2  501    0  0.32910625084E+02 -0.24350252875E+02 -0.11144391876E+04  0.11151909015E+04  0.00000000000E+00 0. -1.
<scales pt_clust_3="14000.00000" pt_clust_4="65.97356" pt_clust_5="91.65758" pt_clust_6="40.93952"></scales>
<clustering>
<clus scale="   40.940">  2  6  1 -1</clus>
<clus scale="   65.974">  1  4  2 -1</clus>
<clus scale="   91.658">  1  5  2 -1</clus>
<clus scale="   65.974">  1  3  2 -1</clus>
</clustering>
</event>
<event>
 6    0  0.1361744E+002  0.1210180E+03  0.7546771E-02  0.1241427E+00
          2   -1    0    0  504    0 -0.00000000000E+00  0.00000000000E+00  0.42570103971E+03  0.42570103971E+03  0.00000000000E+00 0. -1.
         21   -1    0    0  505  502  0.00000000000E+00 -0.00000000000E+00 -0.23306074321E+03  0.23306074321E+03  0.00000000000E+00 0. -1.
         21    1    1    2  503  502 -0.57984004392E+02  0.10523487032E+02 -0.29063166104E+02  0.65708113416E+02  0.00000000000E+00 0.  1.
         21    1    1    2  504  503  0.71525456659E+02  0.93178533997E+02  0.25893786241E+03  0.28433597510E+03  0.00000000000E+00 0.  1.
         21    1    1    2  505  501 -0.42174268968E+02 -0.86377273655E+02 -0.15715163524E+03  0.18421818267E+03  0.00000000000E+00 0. -1.
          2    1    1    2  501    0  0.28632816702E+02 -0.17324747374E+02  0.11991723544E+03  0.12449951172E+03  0.00000000000E+00 0. -1.
<scales pt_clust_3="57.04816" pt_clust_4="14000.00000" pt_clust_5="121.01805" pt_clust_6="33.46618"></scales>
<clustering>
<clus scale="   33.466">  1  6  2 -1</clus>
<clus scale="   57.048">  2  3  1 -1</clus>
<clus scale="  121.018">  2  5  1 -1</clus>
<clus scale="   57.048">  2  3  1 -1</clus>
</clustering>
</event>
<event>
 6    0  0.1361744E+002  0.1091121E+03  0.7546771E-02  0.1262223E+00
         -1   -1    0    0    0  501 -0.00000000000E+00  0.00000000000E+00  0.92817873695E+03  0.92817873695E+03  0.00000000000E+00 0.  1.
         21   -1    0    0  503  502  0.00000000000E+00 -0.00000000000E+00 -0.34831201201E+03  0.34831201201E+03  0.00000000000E+00 0. -1.
         21    1    1    2  503  504 -0.10029324003E+03 -0.48598976000E+02 -0.28071169303E+03  0.30202590795E+03  0.00000000000E+00 0. -1.
         21    1    1    2  504  501  0.40054688062E+02  0.84585997481E+02  0.77499902548E+02  0.12151297832E+03  0.00000000000E+00 0.  1.
         21    1    1    2  505  502 -0.11297165991E+02  0.57198439734E+02 -0.27717438024E+01  0.58369255873E+02  0.00000000000E+00 0.  1.
         -1    1    1    2    0  505  0.71535717963E+02 -0.93185461215E+02  0.78585025923E+03  0.79458260682E+03  0.00000000000E+00 0.  1.
<scales pt_clust_3="109.11208" pt_clust_4="96.86575" pt_clust_5="58.30341" pt_clust_6="14000.00000"></scales>
<clustering>
<clus scale="   58.303">  2  5  1 -1</clus>
<clus scale="   96.866">  1  4  2 -1</clus>
<clus scale="  109.112">  2  3  1 -1</clus>
<clus scale="   58.303">  2  3  1 -1</clus>
</clustering>
</event>
<event>
 6    0  0.1638793E+002  0.2727584E+03  0.7546771E-02  0.1099711E+00
         21   -1    0    0  503  502  0.00000000000E+00  0.00000000000E+00  0.41392551733E+03  0.41392551733E+03  0.00000000000E+00 0.  1.
          2   -1    0    0  504    0 -0.00000000000E+00 -0.00000000000E+00 -0.19743761888E+04  0.19743761888E+04  0.00000000000E+00 0.  1.
         21    1    1    2  503  505 -0.98910735765E+01  0.52805866388E+02  0.47448232954E+02  0.71677246542E+02  0.00000000000E+00 0. -1.
         21    1    1    2  504  502 -0.31762797858E+02 -0.18752024444E+02 -0.46972594792E+02  0.59723851266E+02  0.00000000000E+00 0. -1.
         21    1    1    2  505  501 -0.17542675522E+03  0.12644037687E+03  0.30370629104E+03  0.37282600039E+03  0.00000000000E+00 0.  1.
          2    1    1    2  501    0  0.21708062665E+03 -0.16049421881E+03 -0.18646326006E+04  0.18840746079E+04  0.00000000000E+00 0.  1.
<scales pt_clust_3="43.96636" pt_clust_4="36.88514" pt_clust_5="43.96636" pt_clust_6="258.06087"></scales>
<clustering>
<clus scale="   36.885">  2  4  1 -1</clus>
<clus scale="   43.966">  3  5 -1 -1</clus>
<clus scale="  258.061">  2  6  1 -1</clus>
<clus scale="  272.758">  1  3  2 -1</clus>
</clustering>
</event>
<event>
 6    0  0.1361744E+002  0.1305764E+03  0.7546771E-02  0.1226603E+00
         21   -1    0    0  505  502  0.00000000000E+00  0.00000000000E+00  0.44740635229E+02  0.44740635229E+02  0.00000000000E+00 0. -1.
          1   -1    0    0  503    0 -0.00000000000E+00 -0.00000000000E+00 -0.23633190137E+04  0.23633190137E+04  0.00000000000E+00 0. -1.
         21    1    1    2  503  502  0.36624734856E+02  0.48607028440E+00 -0.33614613664E+03  0.33813581982E+03  0.00000000000E+00 0.  1.
         21    1    1    2  504  501 -0.25912299930E+02 -0.30878598793E+02 -0.50603891600E+01  0.40626871521E+02  0.00000000000E+00 0. -1.
         21    1    1    2  505  504 -0.87746166832E+02 -0.14778852366E+02 -0.54485834927E+02  0.10433844200E+03  0.00000000000E+00 0. -1.
          1    1    1    2  501    0  0.77033731906E+02  0.45171380875E+02 -0.19228860178E+04  0.19249585156E+04  0.00000000000E+00 0. -1.
<scales pt_clust_3="36.62796" pt_clust_4="33.42599" pt_clust_5="33.42599" pt_clust_6="120.76367"></scales>
<clustering>
<clus scale="   33.426">  4  5 -1 -1</clus>
<clus scale="   36.628">  2  3  1 -1</clus>
<clus scale="  120.764">  2  6  1 -1</clus>
<clus scale="  130.576">  1  3  2 -1</clus>
</clustering>
</event>
<event>
 6    0  0.1361744E+002  0.1560354E+03  0.7546771E-02  0.1193247E+00
          1   -1    0    0  505    0 -0.00000000000E+00  0.00000000000E+00  0.15518162874E+04  0.15518162874E+04  0.00000000000E+00 0. -1.
         21   -1    0    0  504  502  0.00000000000E+00 -0.00000000000E+00 -0.21018840946E+02  0.21018840946E+02  0.00000000000E+00 0.  1.
         21    1    1    2  503  502 -0.30826606652E+02  0.22382331364E+00  0.52670065415E+02  0.61028399662E+02  0.00000000000E+00 0.  1.
         21    1    1    2  504  501  0.65239238075E+02  0.32774175879E+02  0.40426837863E+03  0.41080801690E+03  0.00000000000E+00 0. -1.
         21    1    1    2  505  503 -0.92847579004E+02 -0.10291157381E+03  0.46045680368E+03  0.48086581601E+03  0.00000000000E+00 0.  1.
          1    1    1    2  501    0  0.58434947582E+02  0.69913574616E+02  0.61340219870E+03  0.62013289575E+03  0.00000000000E+00 0. -1.
<scales pt_clust_3="30.82742" pt_clust_4="32.30662" pt_clust_5="151.66200" pt_clust_6="32.30662"></scales>
<clustering>
<clus scale="   30.827">  2  3  1 -1</clus>
<clus scale="   32.307">  4  6 -1 -1</clus>
<clus scale="  151.662">  2  5  1 -1</clus>
<clus scale="   30.827">  2  3  1 -1</clus>
</clustering>
</event>
<event>
 6    0  0.2467704E+002  0.1548462E+03  0.7546771E-02  0.1194641E+00
         21   -1    0    0  501  502  0.00000000000E+00  0.00000000000E+00  0.17312301936E+04  0.17312301936E+04  0.00000000000E+00 0. -1.
          1   -1    0    0  504    0 -0.00000000000E+00 -0.00000000000E+00 -0.54557677302E+03  0.54557677302E+03  0.00000000000E+00 0.  1.
         21    1    1    2  503  502  0.18208451148E+02 -0.15457946536E+03  0.16678170931E+04  0.16750642420E+04  0.00000000000E+00 0. -1.
         21    1    1    2  504  505 -0.10096889300E+02  0.45324544542E+02 -0.47580157544E+02  0.66484080075E+02  0.00000000000E+00 0. -1.
         21    1    1    2  505  503 -0.25813757871E+02  0.55086460593E+02  0.29555448676E+02  0.67634257463E+02  0.00000000000E+00 0. -1.
          1    1    1    2  501    0  0.17702196024E+02  0.54168460223E+02 -0.46413896365E+03  0.46762438709E+03  0.00000000000E+00 0.  1.
<scales pt_clust_3="154.84624" pt_clust_4="46.43556" pt_clust_5="62.60243" pt_clust_6="14000.00000"></scales>
<clustering>
<clus scale="   46.436">  2  4  1 -1</clus>
<clus scale="   62.602">  2  5  1 -1</clus>
<clus scale="  154.846">  1  3  2 -1</clus>
<clus scale="  154.846">  1  3  2 -1</clus>
</clustering>
</event>
<event>
 6    0  0.1361744E+002  0.1903020E+03  0.7546771E-02  0.1158189E+00
          2   -1    0    0  503    0 -0.00000000000E+00  0.00000000000E+00  0.40249858855E+04  0.40249858855E+04  0.00000000000E+00 0. -1.
         21   -1    0    0  501  502  0.00000000000E+00 -0.00000000000E+00 -0.44473879847E+03  0.44473879847E+03  0.00000000000E+00 0. -1.
         21    1    1    2  503  505 -0.33049956594E+02 -0.11420311208E+01  0.26557814763E+03  0.26762913960E+03  0.00000000000E+00 0.  1.
         21    1    1    2  504  502  0.55061402307E+02 -0.35512932529E+02 -0.25455642689E+03  0.26285338284E+03  0.00000000000E+00 0. -1.
         21    1    1    2  505  504  0.11268757075E+03 -0.57353595333E+02 -0.16138371834E+03  0.20501860414E+03  0.00000000000E+00 0. -1.
          2    1    1    2  501    0 -0.13469901646E+03  0.94008558983E+02  0.37306090846E+04  0.37342235573E+04  0.00000000000E+00 0. -1.
<scales pt_clust_3="33.06968" pt_clust_4="65.49046" pt_clust_5="190.30202" pt_clust_6="14000.00000"></scales>
<clustering>
<clus scale="   33.070">  1  3  2 -1</clus>
<clus scale="   65.490">  2  4  1 -1</clus>
<clus scale="  190.302">  2  5  1 -1</clus>
<clus scale="   65.490">  2  3  1 -1</clus>
</clustering>
</event>
<event>
 6    0  0.1361744E+002  0.1465425E+03  0.7546771E-02  0.1204787E+00
         21   -1    0    0  503  502  0.00000000000E+00  0.00000000000E+00  0.50956971698E+03  0.50956971698E+03  0.00000000000E+00 0.  1.
          1   -1    0    0  504    0 -0.00000000000E+00 -0.00000000000E+00 -0.31843101573E+04  0.31843101573E+04  0.00000000000E+00 0. -1.
         21    1    1    2  503  501  0.36468521930E+02 -0.67170825780E+01  0.39242674742E+01  0.37289035457E+02  0.00000000000E+00 0. -1.
         21    1    1    2  504  505  0.77723678495E+02 -0.61069495876E+02 -0.18681126333E+03  0.21135018721E+03  0.00000000000E+00 0. -1.
         21    1    1    2  505  502 -0.56317192102E+02 -0.13805488728E+03  0.46107375045E+03  0.48458206878E+03  0.00000000000E+00 0.  1.
          1    1    1    2  501    0 -0.57875008323E+02  0.20584146573E+03 -0.29529271950E+04  0.29606585829E+04  0.00000000000E+00 0. -1.
<scales pt_clust_3="37.08197" pt_clust_4="99.67023" pt_clust_5="14000.00000" pt_clust_6="146.54249"></scales>
<clustering>
<clus scale="   37.082">  1  3  2 -1</clus>
<clus scale="   99.670">  2  4  1 -1</clus>
<clus scale="  146.542">  2  6  1 -1</clus>
<clus scale="   37.082">  1  3  2 -1</clus>
</clustering>
</event>
<event>
 6    0  0.1361744E+002  0.1129389E+03  0.7546771E-02  0.1255222E+00
          2   -1    0    0  505    0 -0.00000000000E+00  0.00000000000E+00  0.33918420521E+04  0.33918420521E+04  0.00000000000E+00 0.  1.
         21   -1    0    0  504  502  0.00000000000E+00 -0.00000000000E+00 -0.24272658398E+02  0.24272658398E+02  0.00000000000E+00 0.  1.
         21    1    1    2  503  501  0.46034739619E+02 -0.23617581659E+02  0.25655077577E+03  0.26171604453E+03  0.00000000000E+00 0.  1.
         21    1    1    2  504  503  0.30171507271E+02  0.24865994959E+02  0.18905934018E+02  0.43428929268E+02  0.00000000000E+00 0.  1.
         21    1    1    2  505  502  0.35539273531E+02 -0.50262754660E+02  0.10760494041E+03  0.12396857533E+03  0.00000000000E+00 0.  1.
          2    1    1    2  501    0 -0.11174552042E+03  0.49014341360E+02  0.29845077435E+04  0.29870011613E+04  0.00000000000E+00 0.  1.
<scales pt_clust_3="55.60942" pt_clust_4="39.09779" pt_clust_5="112.93890" pt_clust_6="14000.00000"></scales>
<clustering>
<clus scale="   39.098">  2  4  1 -1</clus>
<clus scale="   55.609">  2  3  1 -1</clus>
<clus scale="  112.939">  2  5  1 -1</clus>
<clus scale="   39.098">  2  3  1 -1</clus>
</clustering>
</event>
<event>
 6    0  0.1361744E+002  0.1238130E+03  0.7546771E-02  0.1236936E+00
         21   -1    0    0  505  502  0.00000000000E+00  0.00000000000E+00  0.65680968630E+02  0.65680968630E+02  0.00000000000E+00 0.  1.
         -1   -1    0    0    0  501 -0.00000000000E+00 -0.00000000000E+00 -0.67608302381E+03  0.67608302381E+03  0.00000000000E+00 0.  1.
         21    1    1    2  503  501 -0.81847040821E+02  0.61280740857E+02 -0.14156814680E+03  0.17463048840E+03  0.00000000000E+00 0.  1.
         21    1    1    2  504  503 -0.68409685918E+01  0.36559360172E+02  0.34902865737E+01  0.37357298722E+02  0.00000000000E+00 0.  1.
         21    1    1    2  505  504  0.26044522337E+02  0.30367229084E+02 -0.40112560948E+01  0.40206665138E+02  0.00000000000E+00 0.  1.
         -1    1    1    2    0  502  0.62643487075E+02 -0.12820733011E+03 -0.46831293885E+03  0.48956954017E+03  0.00000000000E+00 0.  1.
<scales pt_clust_3="14000.00000" pt_clust_4="32.95228" pt_clust_5="77.56221" pt_clust_6="123.81303"></scales>
<clustering>
<clus scale="   32.952">  4  5 -1 -1</clus>
<clus scale="   77.562">  1  4  2 -1</clus>
<clus scale="  123.813">  2  6  1 -1</clus>
<clus scale="   77.562">  1  3  2 -1</clus>
</clustering>
</event>
<event>
 6    0  0.1361744E+002  0.1116891E+03  0.7546771E-02  0.1257473E+00
          3   -1    0    0  505    0 -0.00000000000E+00  0.00000000000E+00  0.44230055966E+02  0.44230055966E+02  0.00000000000E+00 0.  1.
         21   -1    0    0  503  502  0.00000000000E+00 -0.00000000000E+00 -0.48681818988E+03  0.48681818988E+03  0.00000000000E+00 0. -1.
         21    1    1    2  503  504  0.46777727051E+02  0.17943402368E+02 -0.16689410603E+03  0.17425201309E+03  0.00000000000E+00 0. -1.
         21    1    1    2  504  501 -0.66659430898E+02 -0.81138119231E+00 -0.56430007522E+02  0.87341191977E+02  0.00000000000E+00 0.  1.
         21    1    1    2  505  502  0.73028909296E+02 -0.47811586592E+02 -0.16868422125E+03  0.18993034487E+03  0.00000000000E+00 0. -1.
          3    1    1    2  501    0 -0.53147205450E+02  0.30679565416E+02 -0.50579799113E+02  0.79524695910E+02  0.00000000000E+00 0.  1.
<scales pt_clust_3="50.10111" pt_clust_4="32.49931" pt_clust_5="106.42875" pt_clust_6="32.49931"></scales>
<clustering>
<clus scale="   32.499">  4  6 -1 -1</clus>
<clus scale="   50.101">  2  3  1 -1</clus>
<clus scale="  106.429">  2  5  1 -1</clus>
<clus scale="   50.101">  2  3  1 -1</clus>
</clustering>
</event>
<event>
 6    0  0.1361744E+002  0.1467570E+03  0.7546771E-02  0.1204516E+00
          2   -1    0    0  505    0 -0.00000000000E+00  0.00000000000E+00  0.11342090260E+04  0.11342090260E+04  0.00000000000E+00 0. -1.
         21   -1    0    0  504  502  0.00000000000E+00 -0.00000000000E+00 -0.60787495334E+02  0.60787495334E+02  0.00000000000E+00 0. -1.
         21    1    1    2  503  502 -0.65734235122E+02  0.39971280298E+01  0.25240580141E+02  0.70526970624E+02  0.00000000000E+00 0. -1.
         21    1    1    2  504  501  0.18582618125E+03  0.76010353015E+02  0.30757943789E+03  0.36730648513E+03  0.00000000000E+00 0. -1.
         21    1    1    2  505  503 -0.29815825301E+02 -0.11517667086E+02  0.68680584695E+02  0.75753962322E+02  0.00000000000E+00 0.  1.
          2    1    1    2  501    0 -0.90276120824E+02 -0.68489813959E+02  0.67192092794E+03  0.68140910326E+03  0.00000000000E+00 0. -1.
<scales pt_clust_3="67.16869" pt_clust_4="146.75700" pt_clust_5="31.96311" pt_clust_6="14000.00000"></scales>
<clustering>
<clus scale="   31.963">  1  5  2 -1</clus>
<clus scale="   67.169">  2  3  1 -1</clus>
<clus scale="  146.757">  2  4  1 -1</clus>
<clus scale="   67.169">  2  3  1 -1</clus>
</clustering>
</event>
<event>
 6    0  0.1361744E+002  0.1270663E+03  0.7546771E-02  0.1231875E+00
          1   -1    0    0  503    0 -0.00000000000E+00  0.00000000000E+00  0.11128815741E+04  0.11128815741E+04  0.00000000000E+00 0.  1.
         21   -1    0    0  504  502  0.00000000000E+00 -0.00000000000E+00 -0.66324940647E+02  0.66324940647E+02  0.00000000000E+00 0.  1.
         21    1    1    2  503  502 -0.59415831964E+02 -0.46869973366E+02  0.80318202574E+03  0.80673936433E+03  0.00000000000E+00 0.  1.
         21    1    1    2  504  505  0.13745081205E+03  0.17450676592E+02  0.32642524112E+02  0.14234741384E+03  0.00000000000E+00 0.  1.
         21    1    1    2  505  501 -0.26608852665E+02  0.26636769323E+02  0.60025737086E+02  0.70856457948E+02  0.00000000000E+00 0.  1.
          1    1    1    2  501    0 -0.51426127417E+02  0.27825274509E+01  0.15070634649E+03  0.15926327860E+03  0.00000000000E+00 0.  1.
<scales pt_clust_3="75.67718" pt_clust_4="120.63875" pt_clust_5="34.11649" pt_clust_6="34.11649"></scales>
<clustering>
<clus scale="   34.116">  5  6 -1 -1</clus>
<clus scale="   75.677">  1  3  2 -1</clus>
<clus scale="  120.639">  2  4  1 -1</clus>
<clus scale="  120.639">  2  3  1 -1</clus>
</clustering>
</event>
<event>
 6    0  0.1361744E+002  0.2422106E+03  0.7546771E-02  0.1118329E+00
         21   -1    0    0  503  502  0.00000000000E+00  0.00000000000E+00  0.71732244230E+03  0.71732244230E+03  0.00000000000E+00 0.  1.
          2   -1    0    0  504    0 -0.00000000000E+00 -0.00000000000E+00 -0.22268372229E+03  0.22268372229E+03  0.00000000000E+00 0.  1.
         21    1    1    2  503  505  0.46419056003E+02  0.12533475951E+03  0.25426138533E+03  0.28724968716E+03  0.00000000000E+00 0.  1.
         21    1    1    2  504  502 -0.42363304133E+02  0.34220874332E+01 -0.66229877406E+01  0.43014232366E+02  0.00000000000E+00 0. -1.
         21    1    1    2  505  501  0.52882891195E+02  0.86399205330E+02  0.35009921860E+03  0.36445971757E+03  0.00000000000E+00 0.  1.
          2    1    1    2  501    0 -0.56938643066E+02 -0.21515605227E+03 -0.10309889618E+03  0.24528252750E+03  0.00000000000E+00 0.  1.
<scales pt_clust_3="60.19980" pt_clust_4="42.50130" pt_clust_5="60.19980" pt_clust_6="232.13084"></scales>
<clustering>
<clus scale="   42.501">  2  4  1 -1</clus>
<clus scale="   60.200">  3  5 -1 -1</clus>
<clus scale="  232.131">  2  6  1 -1</clus>
<clus scale="  242.211">  1  3  2 -1</clus>
</clustering>
</event>
<event>
 6    0  0.1361744E+002  0.1766092E+03  0.7546771E-02  0.1171126E+00
         21   -1    0    0  504  502  0.00000000000E+00  0.00000000000E+00  0.20254127721E+04  0.20254127721E+04  0.00000000000E+00 0.  1.
         -1   -1    0    0    0  501 -0.00000000000E+00 -0.00000000000E+00 -0.10350135113E+04  0.10350135113E+04  0.00000000000E+00 0.  1.
         21    1    1    2  503  501  0.10440284643E+03  0.27894582440E+02  0.12377052534E+04  0.12424139231E+04  0.00000000000E+00 0.  1.
         21    1    1    2  504  503  0.45966084703E+02  0.53656197980E+02  0.76770910780E+03  0.77095339854E+03  0.00000000000E+00 0.  1.
         21    1    1    2  505  502 -0.81436115846E+02 -0.35942952573E+02 -0.12634632362E+03  0.15455461913E+03  0.00000000000E+00 0. -1.
         -1    1    1    2    0  505 -0.68932815282E+02 -0.45607827847E+02 -0.88866877673E+03  0.89250434269E+03  0.00000000000E+00 0.  1.
<scales pt_clust_3="42.01402" pt_clust_4="42.01402" pt_clust_5="168.79260" pt_clust_6="82.65475"></scales>
<clustering>
<clus scale="   42.014">  3  4 -1 -1</clus>
<clus scale="   82.655">  2  6  1 -1</clus>
<clus scale="  168.793">  2  5  1 -1</clus>
<clus scale="  176.609">  1  3  2 -1</clus>
</clustering>
</event>
<event>
 6    0  0.1361744E+002  0.4740616E+03  0.7546771E-02  0.1020780E+00
          2   -1    0    0  504    0 -0.00000000000E+00  0.00000000000E+00  0.31780259715E+03  0.31780259715E+03  0.00000000000E+00 0. -1.
         21   -1    0    0  503  502  0.00000000000E+00 -0.00000000000E+00 -0.69166305693E+03  0.69166305693E+03  0.00000000000E+00 0. -1.
         21    1    1    2  503  501 -0.19575951492E+01 -0.11215092823E+03 -0.71829823943E+02  0.13319604532E+03  0.00000000000E+00 0. -1.
         21    1    1    2  504  505  0.71547105698E+01  0.25152854517E+03 -0.94677175098E+02  0.26885231337E+03  0.00000000000E+00 0. -1.
         21    1    1    2  505  502  0.12518559267E+03  0.18382322915E+03 -0.78360864155E+02  0.23580253862E+03  0.00000000000E+00 0. -1.
          2    1    1    2  501    0 -0.13038270809E+03 -0.32320084608E+03 -0.12899259659E+03  0.37161475678E+03  0.00000000000E+00 0. -1.
<scales pt_clust_3="48.99740" pt_clust_4="125.03796" pt_clust_5="125.03796" pt_clust_6="463.14609"></scales>
<clustering>
<clus scale="   48.997">  3  6 -1 -1</clus>
<clus scale="  125.038">  4  5 -1 -1</clus>
<clus scale="  463.146">  2  3  1 -1</clus>
<clus scale="  463.146">  2  3  1 -1</clus>
</clustering>
</event>
<event>
 6    0  0.1361744E+002  0.1504332E+03  0.7546771E-02  0.1199942E+00
          2   -1    0    0  504    0 -0.00000000000E+00  0.00000000000E+00  0.30464281796E+04  0.30464281796E+04  0.00000000000E+00 0. -1.
         21   -1    0    0  505  502  0.00000000000E+00 -0.00000000000E+00 -0.83181128953E+02  0.83181128953E+02  0.00000000000E+00 0.  1.
         21    1    1    2  503  502 -0.89567076023E+02 -0.26962195328E+02 -0.34123431862E+02  0.99567211904E+02  0.00000000000E+00 0.  1.
         21    1    1    2  504  503  0.17491505947E+02  0.52022176826E+02  0.95640789241E+03  0.95798137577E+03  0.00000000000E+00 0. -1.
         21    1    1    2  505  501 -0.55361124786E+02 -0.30033584723E+02  0.59969744210E+02  0.86966893525E+02  0.00000000000E+00 0.  1.
          2    1    1    2  501    0  0.12743669486E+03  0.49736032262E+01  0.19809928459E+04  0.19850938274E+04  0.00000000000E+00 0. -1.
<scales pt_clust_3="14000.00000" pt_clust_4="54.88406" pt_clust_5="61.58414" pt_clust_6="150.43324"></scales>
<clustering>
<clus scale="   54.884">  1  4  2 -1</clus>
<clus scale="   61.584">  2  5  1 -1</clus>
<clus scale="  150.433">  1  6  2 -1</clus>
<clus scale="   61.584">  2  3  1 -1</clus>
</clustering>
</event>
<event>
 6    0  0.1361744E+002  0.7089893E+02  0.7546771E-02  0.1357063E+00
          1   -1    0    0  504    0 -0.00000000000E+00  0.00000000000E+00  0.95244505944E+03  0.95244505944E+03  0.00000000000E+00 0.  1.
         21   -1    0    0  503  502  0.00000000000E+00 -0.00000000000E+00 -0.72998954583E+03  0.72998954583E+03  0.00000000000E+00 0.  1.
         21    1    1    2  503  505 -0.57095119877E+02 -0.54698713689E+02 -0.56434712982E+03  0.56985917991E+03  0.00000000000E+00 0.  1.
         21    1    1    2  504  502  0.41616812109E+02 -0.35808984610E+01  0.19343940097E+03  0.19789791240E+03  0.00000000000E+00 0.  1.
         21    1    1    2  505  501  0.68103249595E+02 -0.83280365504E+01 -0.15080721589E+03  0.16568109477E+03  0.00000000000E+00 0.  1.
          1    1    1    2  501    0 -0.52624941826E+02  0.66607648700E+02  0.74417045836E+03  0.74899641819E+03  0.00000000000E+00 0.  1.
<scales pt_clust_3="14000.00000" pt_clust_4="41.77059" pt_clust_5="70.89893" pt_clust_6="64.12712"></scales>
<clustering>
<clus scale="   41.771">  1  4  2 -1</clus>
<clus scale="   64.127">  1  6  2 -1</clus>
<clus scale="   70.899">  1  5  2 -1</clus>
<clus scale="   70.899">  2  3  1 -1</clus>
</clustering>
</event>
<event>
 6    0  0.1361744E+002  0.1694315E+03  0.7546771E-02  0.1178442E+00
         21   -1    0    0  503  502  0.00000000000E+00  0.00000000000E+00  0.35879725079E+03  0.35879725079E+03  0.00000000000E+00 0.  1.
          3   -1    0    0  504    0 -0.00000000000E+00 -0.00000000000E+00 -0.96236893289E+03  0.96236893289E+03  0.00000000000E+00 0. -1.
         21    1    1    2  503  505 -0.10197891046E+03 -0.60002320468E+02  0.15053488517E+03  0.19146991486E+03  0.00000000000E+00 0.  1.
         21    1    1    2  504  502 -0.22455526731E+02 -0.38535552066E+02  0.17723821743E+03  0.18276385084E+03  0.00000000000E+00 0.  1.
         21    1    1    2  505  501  0.75766026020E+02  0.24761667628E+02 -0.35410466671E+03  0.36296521302E+03  0.00000000000E+00 0.  1.
          3    1    1    2  501    0  0.48668411173E+02  0.73776204905E+02 -0.57724011800E+03  0.58396720497E+03  0.00000000000E+00 0. -1.
<scales pt_clust_3="156.91645" pt_clust_4="44.60089" pt_clust_5="60.66589" pt_clust_6="60.66589"></scales>
<clustering>
<clus scale="   44.601">  1  4  2 -1</clus>
<clus scale="   60.666">  5  6 -1 -1</clus>
<clus scale="  156.916">  1  3  2 -1</clus>
<clus scale="   44.601">  1  3  2 -1</clus>
</clustering>
</event>
<event>
 6    0  0.1361744E+002  0.1532965E+03  0.7546771E-02  0.1196480E+00
         21   -1    0    0  504  502  0.00000000000E+00  0.00000000000E+00  0.11494080238E+04  0.11494080238E+04  0.00000000000E+00 0.  1.
         -3   -1    0    0    0  501 -0.00000000000E+00 -0.00000000000E+00 -0.16466193679E+03  0.16466193679E+03  0.00000000000E+00 0.  1.
         21    1    1    2  503  502 -0.19472756530E+03  0.61450026391E+02  0.84680050371E+03  0.87107176715E+03  0.00000000000E+00 0.  1.
         21    1    1    2  504  505  0.10628686663E+03 -0.11401193335E+02  0.23950269467E+03  0.26227547728E+03  0.00000000000E+00 0.  1.
         21    1    1    2  505  501  0.39315845534E+01 -0.43235911182E+02  0.59354544000E+01  0.43818158242E+02  0.00000000000E+00 0. -1.
         -3    1    1    2    0  503  0.84509114109E+02 -0.68129218745E+01 -0.10749256580E+03  0.13690455790E+03  0.00000000000E+00 0.  1.
<scales pt_clust_3="153.29647" pt_clust_4="14000.00000" pt_clust_5="43.41430" pt_clust_6="97.80035"></scales>
<clustering>
<clus scale="   43.414">  2  5  1 -1</clus>
<clus scale="   97.800">  2  6  1 -1</clus>
<clus scale="  153.296">  2  3  1 -1</clus>
<clus scale="  153.296">  1  3  2 -1</clus>
</clustering>
</event>
<event>
 6    0  0.1361744E+002  0.1189189E+03  0.7546771E-02  0.1244891E+00
         21   -1    0    0  505  502  0.00000000000E+00  0.00000000000E+00  0.85546657418E+03  0.85546657418E+03  0.00000000000E+00 0. -1.
          2   -1    0    0  503    0 -0.00000000000E+00 -0.00000000000E+00 -0.15773885068E+03  0.15773885068E+03  0.00000000000E+00 0. -1.
         21    1    1    2  503  502  0.77054842243E+02  0.60695245944E+02  0.26737950614E+01  0.98124975278E+02  0.00000000000E+00 0. -1.
         21    1    1    2  504  501 -0.84516500648E+02  0.36326751374E+02  0.34368556015E+03  0.35578425485E+03  0.00000000000E+00 0. -1.
         21    1    1    2  505  504 -0.39048839472E+02  0.77934100621E+01  0.42248848480E+03  0.42436077681E+03  0.00000000000E+00 0. -1.
          2    1    1    2  501    0  0.46510497878E+02 -0.10481540738E+03 -0.71120116505E+02  0.13493541792E+03  0.00000000000E+00 0. -1.
<scales pt_clust_3="95.13831" pt_clust_4="14000.00000" pt_clust_5="39.81895" pt_clust_6="118.91892"></scales>
<clustering>
<clus scale="   39.819">  1  5  2 -1</clus>
<clus scale="   95.138">  2  3  1 -1</clus>
<clus scale="  118.919">  2  6  1 -1</clus>
<clus scale="   39.819">  1  3  2 -1</clus>
</clustering>
</event>
<event>
 6    0  0.1361744E+002  0.8289252E+02  0.7546771E-02  0.1321038E+00
         21   -1    0    0  503  502  0.00000000000E+00  0.00000000000E+00  0.17165233097E+03  0.17165233097E+03  0.00000000000E+00 0.  1.
          2   -1    0    0  504    0 -0.00000000000E+00 -0.00000000000E+00 -0.17740211135E+03  0.17740211135E+03  0.00000000000E+00 0.  1.
         21    1    1    2  503  501  0.22293652563E+02  0.41634573356E+02  0.24685419091E+02  0.53289910479E+02  0.00000000000E+00 0.  1.
         21    1    1    2  504  505 -0.90682676385E+02  0.36044644526E+02 -0.50710649658E+02  0.10997333397E+03  0.00000000000E+00 0.  1.
         21    1    1    2  505  502  0.51952136982E+01 -0.37962461125E+02  0.80977471717E+02  0.89585097119E+02  0.00000000000E+00 0.  1.
          2    1    1    2  501    0  0.63193810124E+02 -0.39716756756E+02 -0.60702021532E+02  0.96206100759E+02  0.00000000000E+00 0.  1.
<scales pt_clust_3="34.74537" pt_clust_4="82.89252" pt_clust_5="38.31630" pt_clust_6="14000.00000"></scales>
<clustering>
<clus scale="   38.316">  1  5  2 -1</clus>
<clus scale="   34.745">  1  3  2 -1</clus>
<clus scale="   82.893">  1  4  2 -1</clus>
<clus scale="   38.316">  1  3  2 -1</clus>
</clustering>
</event>
<event>
 6    0  0.1361744E+002  0.1149288E+03  0.7546771E-02  0.1251705E+00
          2   -1    0    0  505    0 -0.00000000000E+00  0.00000000000E+00  0.10231142854E+04  0.10231142854E+04  0.00000000000E+00 0. -1.
         21   -1    0    0  504  502  0.00000000000E+00 -0.00000000000E+00 -0.13745276720E+03  0.13745276720E+03  0.00000000000E+00 0. -1.
         21    1    1    2  503  502  0.15644420341E+02  0.60467207136E+02 -0.45794236750E+01  0.62625890395E+02  0.00000000000E+00 0. -1.
         21    1    1    2  504  501 -0.90490133017E+02 -0.14829088630E+03 -0.21456788578E+02  0.17504012371E+03  0.00000000000E+00 0. -1.
         21    1    1    2  505  503  0.42668424192E+02  0.17771365078E+02  0.14156430891E+03  0.14891900281E+03  0.00000000000E+00 0. -1.
          2    1    1    2  501    0  0.32177288484E+02  0.70052314082E+02  0.77013342150E+03  0.77398203566E+03  0.00000000000E+00 0. -1.
<scales pt_clust_3="63.39209" pt_clust_4="114.92884" pt_clust_5="46.22138" pt_clust_6="14000.00000"></scales>
<clustering>
<clus scale="   46.221">  1  5  2 -1</clus>
<clus scale="   63.392">  2  3  1 -1</clus>
<clus scale="  114.929">  2  4  1 -1</clus>
<clus scale="   63.392">  2  3  1 -1</clus>
</clustering>
</event>
<event>
 6    0  0.1361744E+002  0.1462202E+03  0.7546771E-02  0.1205196E+00
          2   -1    0    0  505    0 -0.00000000000E+00  0.00000000000E+00  0.14466996505E+04  0.14466996505E+04  0.00000000000E+00 0. -1.
         21   -1    0    0  504  502  0.00000000000E+00 -0.00000000000E+00 -0.22697558190E+03  0.22697558190E+03  0.00000000000E+00 0.  1.
         21    1    1    2  503  502 -0.85696799569E+01  0.30232628588E+02 -0.23296800585E+02  0.39117670730E+02  0.00000000000E+00 0.  1.
         21    1    1    2  504  501  0.15092244632E+03  0.99243305746E+01 -0.16092271980E+03  0.22084428652E+03  0.00000000000E+00 0.  1.
         21    1    1    2  505  503 -0.10227121998E+03 -0.49459868239E+02  0.75858124381E+03  0.76704053639E+03  0.00000000000E+00 0. -1.
          2    1    1    2  501    0 -0.40081546384E+02  0.93029090764E+01  0.64536234517E+03  0.64667273875E+03  0.00000000000E+00 0. -1.
<scales pt_clust_3="31.42374" pt_clust_4="14000.00000" pt_clust_5="146.22023" pt_clust_6="41.19790"></scales>
<clustering>
<clus scale="   31.424">  2  3  1 -1</clus>
<clus scale="   41.198">  1  6  2 -1</clus>
<clus scale="  146.220">  1  5  2 -1</clus>
<clus scale="   31.424">  2  3  1 -1</clus>
</clustering>
</event>
<event>
 6    0  0.1361744E+002  0.1898662E+03  0.7546771E-02  0.1158582E+00
          1   -1    0    0  505    0 -0.00000000000E+00  0.00000000000E+00  0.12954371974E+04  0.12954371974E+04  0.00000000000E+00 0. -1.
         21   -1    0    0  503  502  0.00000000000E+00 -0.00000000000E+00 -0.94771409402E+02  0.94771409402E+02  0.00000000000E+00 0. -1.
         21    1    1    2  503  504  0.11778675062E+02 -0.48448271254E+02  0.27075691245E+02  0.56736806662E+02  0.00000000000E+00 0. -1.
         21    1    1    2  504  501 -0.24393882277E+02  0.52792155220E+02  0.98232851914E+02  0.11415676213E+03  0.00000000000E+00 0. -1.
         21    1    1    2  505  502  0.20090611853E+03 -0.45657652628E+01  0.97256167028E+02  0.22325518292E+03  0.00000000000E+00 0. -1.
          1    1    1    2  501    0 -0.18829091131E+03  0.22188129734E+00  0.97810107786E+03  0.99605985514E+03  0.00000000000E+00 0. -1.
<scales pt_clust_3="49.85952" pt_clust_4="53.29181" pt_clust_5="14000.00000" pt_clust_6="189.86620"></scales>
<clustering>
<clus scale="   49.860">  2  3  1 -1</clus>
<clus scale="   53.292">  2  4  1 -1</clus>
<clus scale="  189.866">  1  6  2 -1</clus>
<clus scale="   49.860">  2  3  1 -1</clus>
</clustering>
</event>
<event>
 6    0  0.1361744E+002  0.1539153E+03  0.7546771E-02  0.1195743E+00
         21   -1    0    0  501  502  0.00000000000E+00  0.00000000000E+00  0.97858714360E+02  0.97858714360E+02  0.00000000000E+00 0. -1.
          2   -1    0    0  503    0 -0.00000000000E+00 -0.00000000000E+00 -0.23792713558E+04  0.23792713558E+04  0.00000000000E+00 0.  1.
         21    1    1    2  503  504 -0.66004586819E+02 -0.24517529811E+02 -0.21116027637E+03  0.22259015492E+03  0.00000000000E+00 0. -1.
         21    1    1    2  504  505  0.12573748604E+03 -0.68639401257E+02  0.85916070548E+01  0.14350992479E+03  0.00000000000E+00 0. -1.
         21    1    1    2  505  502 -0.43994931279E+01 -0.31011378773E+02 -0.38154906897E+01  0.31553432814E+02  0.00000000000E+00 0. -1.
          2    1    1    2  501    0 -0.55333406098E+02  0.12416830984E+03 -0.20750284814E+04  0.20794765576E+04  0.00000000000E+00 0.  1.
<scales pt_clust_3="71.45099" pt_clust_4="14000.00000" pt_clust_5="31.32190" pt_clust_6="153.91527"></scales>
<clustering>
<clus scale="   31.322">  1  5  2 -1</clus>
<clus scale="   71.451">  2  3  1 -1</clus>
<clus scale="  153.915">  2  6  1 -1</clus>
<clus scale="   31.322">  1  3  2 -1</clus>
</clustering>
</event>
<event>
 6    0  0.1361744E+002  0.7531095E+02  0.7546771E-02  0.1342911E+00
         21   -1    0    0  505  502  0.00000000000E+00  0.00000000000E+00  0.54710869419E+03  0.54710869419E+03  0.00000000000E+00 0. -1.
          1   -1    0    0  504    0 -0.00000000000E+00 -0.00000000000E+00 -0.22326947635E+03  0.22326947635E+03  0.00000000000E+00 0. -1.
         21    1    1    2  503  502  0.15429816591E+02  0.61426340605E+02  0.15045176633E+03  0.16323911465E+03  0.00000000000E+00 0. -1.
         21    1    1    2  504  503 -0.19083205040E+02  0.37872502294E+02 -0.18709678664E+02  0.46352424104E+02  0.00000000000E+00 0.  1.
         21    1    1    2  505  501  0.56671354246E+02 -0.32370582408E+02  0.36349039911E+03  0.36930308318E+03  0.00000000000E+00 0. -1.
          1    1    1    2  501    0 -0.53017965797E+02 -0.66928260491E+02 -0.17139326894E+03  0.19148354861E+03  0.00000000000E+00 0. -1.
<scales pt_clust_3="64.41675" pt_clust_4="42.40867" pt_clust_5="75.31095" pt_clust_6="14000.00000"></scales>
<clustering>
<clus scale="   42.409">  2  4  1 -1</clus>
<clus scale="   64.417">  1  3  2 -1</clus>
<clus scale="   75.311">  1  5  2 -1</clus>
<clus scale="   64.417">  1  3  2 -1</clus>
</clustering>
</event>
<event>
 6    0  0.1361744E+002  0.1558617E+03  0.7546771E-02  0.1193450E+00
         21   -1    0    0  503  502  0.00000000000E+00  0.00000000000E+00  0.48660531973E+03  0.48660531973E+03  0.00000000000E+00 0. -1.
         -4   -1    0    0    0  501 -0.00000000000E+00 -0.00000000000E+00 -0.27375956773E+03  0.27375956773E+03  0.00000000000E+00 0.  1.
         21    1    1    2  503  501  0.28282088684E+02 -0.50441851832E+02 -0.12967861501E+02  0.59265693183E+02  0.00000000000E+00 0.  1.
         21    1    1    2  504  502  0.19530926585E+02  0.59088549721E+02  0.17379414801E+03  0.18460043251E+03  0.00000000000E+00 0. -1.
         21    1    1    2  505  504 -0.22118232208E+02  0.93925387685E+02  0.26319626756E+03  0.28032743338E+03  0.00000000000E+00 0. -1.
         -4    1    1    2    0  505 -0.25694783061E+02 -0.10257208557E+03 -0.21117680207E+03  0.23617132838E+03  0.00000000000E+00 0.  1.
<scales pt_clust_3="57.82955" pt_clust_4="33.85658" pt_clust_5="33.85658" pt_clust_6="150.05180"></scales>
<clustering>
<clus scale="   33.857">  4  5 -1 -1</clus>
<clus scale="   57.830">  2  3  1 -1</clus>
<clus scale="  150.052">  2  6  1 -1</clus>
<clus scale="  155.862">  1  3  2 -1</clus>
</clustering>
</event>
<event>
 6    0  0.1361744E+002  0.3324653E+03  0.7546771E-02  0.1070051E+00
         21   -1    0    0  501  502  0.00000000000E+00  0.00000000000E+00  0.35157558086E+03  0.35157558086E+03  0.00000000000E+00 0. -1.
          1   -1    0    0  504    0 -0.00000000000E+00 -0.00000000000E+00 -0.87626012444E+03  0.87626012444E+03  0.00000000000E+00 0. -1.
         21    1    1    2  503  502 -0.69910591726E+02  0.98365026523E+02  0.58967561033E+02  0.13431434224E+03  0.00000000000E+00 0. -1.
         21    1    1    2  504  505  0.34175455211E+02  0.17679329721E+02 -0.47134230392E+02  0.60845345861E+02  0.00000000000E+00 0. -1.
         21    1    1    2  505  503 -0.13828759239E+03  0.15883591259E+03  0.15962837133E+03  0.26426033050E+03  0.00000000000E+00 0. -1.
          1    1    1    2  501    0  0.17402272891E+03 -0.27488026884E+03 -0.69614624555E+03  0.76841568670E+03  0.00000000000E+00 0. -1.
<scales pt_clust_3="30.07779" pt_clust_4="38.47753" pt_clust_5="30.07779" pt_clust_6="330.08245"></scales>
<clustering>
<clus scale="   30.078">  3  5 -1 -1</clus>
<clus scale="   38.478">  2  4  1 -1</clus>
<clus scale="  330.082">  2  6  1 -1</clus>
<clus scale="  332.465">  1  3  2 -1</clus>
</clustering>
</event>
<event>
 6    0  0.1361744E+002  0.7025539E+02  0.7546771E-02  0.1359227E+00
          2   -1    0    0  503    0 -0.00000000000E+00  0.00000000000E+00  0.31009661555E+04  0.31009661555E+04  0.00000000000E+00 0.  1.
         21   -1    0    0  504  502  0.00000000000E+00 -0.00000000000E+00 -0.70848518222E+03  0.70848518222E+03  0.00000000000E+00 0. -1.
         21    1    1    2  503  505  0.18630874530E+02  0.54496097298E+02  0.15692921516E+03  0.16716373015E+03  0.00000000000E+00 0.  1.
         21    1    1    2  504  501  0.59065980351E+02  0.14242430564E+02 -0.58319154166E+03  0.58634802901E+03  0.00000000000E+00 0. -1.
         21    1    1    2  505  502 -0.22740116220E+02  0.46049656997E+02 -0.11159134508E+03  0.12284263141E+03  0.00000000000E+00 0.  1.
          2    1    1    2  501    0 -0.54956738660E+02 -0.11478818486E+03  0.29303346448E+04  0.29330969471E+04  0.00000000000E+00 0.  1.
<scales pt_clust_3="57.90714" pt_clust_4="70.25539" pt_clust_5="51.35839" pt_clust_6="14000.00000"></scales>
<clustering>
<clus scale="   51.358">  2  5  1 -1</clus>
<clus scale="   57.907">  1  3  2 -1</clus>
<clus scale="   70.255">  2  4  1 -1</clus>
<clus scale="   51.358">  2  3  1 -1</clus>
</clustering>
</event>
<event>
 6    0  0.1361744E+002  0.1314705E+03  0.7546771E-02  0.1225290E+00
          1   -1    0    0  505    0 -0.00000000000E+00  0.00000000000E+00  0.21713806372E+04  0.21713806372E+04  0.00000000000E+00 0. -1.
         21   -1    0    0  501  502  0.00000000000E+00 -0.00000000000E+00 -0.28297650098E+02  0.28297650098E+02  0.00000000000E+00 0.  1.
         21    1    1    2  503  502 -0.68045699589E+01  0.56300533842E+02  0.42758983884E+02  0.71023819850E+02  0.00000000000E+00 0. -1.
         21    1    1    2  504  503 -0.56305880775E+02  0.12809675635E+02  0.79332602498E+02  0.98122891411E+02  0.00000000000E+00 0.  1.
         21    1    1    2  505  504 -0.40523160513E+02  0.61638191440E+01  0.16102513998E+03  0.16616020856E+03  0.00000000000E+00 0. -1.
          1    1    1    2  501    0  0.10363361125E+03 -0.75274028621E+02  0.18599662607E+04  0.18643713675E+04  0.00000000000E+00 0. -1.
<scales pt_clust_3="56.71025" pt_clust_4="40.73692" pt_clust_5="40.73692" pt_clust_6="122.25644"></scales>
<clustering>
<clus scale="   40.737">  4  5 -1 -1</clus>
<clus scale="   56.710">  2  3  1 -1</clus>
<clus scale="  122.256">  1  6  2 -1</clus>
<clus scale="   56.710">  2  3  1 -1</clus>
</clustering>
</event>
<event>
 6    0  0.1361744E+002  0.1306582E+03  0.7546771E-02  0.1226482E+00
         21   -1    0    0  505  502  0.00000000000E+00  0.00000000000E+00  0.87094469369E+03  0.87094469369E+03  0.00000000000E+00 0. -1.
          2   -1    0    0  503    0 -0.00000000000E+00 -0.00000000000E+00 -0.87918940820E+03  0.87918940820E+03  0.00000000000E+00 0. -1.
         21    1    1    2  503  502 -0.41693972801E+02 -0.23237389132E+02  0.15203275928E+03  0.15934968941E+03  0.00000000000E+00 0. -1.
         21    1    1    2  504  501  0.17980615615E+02  0.48430249311E+02 -0.27792561983E+03  0.28268611876E+03  0.00000000000E+00 0.  1.
         21    1    1    2  505  504 -0.44387137961E+02 -0.62067513255E+02  0.70829633538E+03  0.71239475919E+03  0.00000000000E+00 0. -1.
          2    1    1    2  501    0  0.68100495147E+02  0.36874653076E+02 -0.59064818934E+03  0.59570353453E+03  0.00000000000E+00 0. -1.
<scales pt_clust_3="47.73221" pt_clust_4="40.51788" pt_clust_5="120.87404" pt_clust_6="40.51788"></scales>
<clustering>
<clus scale="   40.518">  4  6 -1 -1</clus>
<clus scale="   47.732">  1  3  2 -1</clus>
<clus scale="  120.874">  1  5  2 -1</clus>
<clus scale="   47.732">  1  3  2 -1</clus>
</clustering>
</event>
<event>
 6    0  0.1361744E+002  0.1261689E+03  0.7546771E-02  0.1233254E+00
          1   -1    0    0  503    0 -0.00000000000E+00  0.00000000000E+00  0.25114530560E+03  0.25114530560E+03  0.00000000000E+00 0. -1.
         21   -1    0    0  505  502  0.00000000000E+00 -0.00000000000E+00 -0.28815341629E+03  0.28815341629E+03  0.00000000000E+00 0. -1.
         21    1    1    2  503  504 -0.28523769010E+02 -0.96927822851E+02  0.82090924578E+02  0.13018267219E+03  0.00000000000E+00 0. -1.
         21    1    1    2  504  502  0.31506308572E+02  0.10098756951E+03 -0.23004721848E+03  0.25320517255E+03  0.00000000000E+00 0. -1.
         21    1    1    2  505  501  0.67581083988E+01  0.31235563837E+02 -0.67375973947E+01  0.32660797541E+02  0.00000000000E+00 0.  1.
          1    1    1    2  501    0 -0.97406479604E+01 -0.35295310494E+02  0.11768578061E+03  0.12325007961E+03  0.00000000000E+00 0. -1.
<scales pt_clust_3="126.16894" pt_clust_4="14000.00000" pt_clust_5="31.95829" pt_clust_6="36.28406"></scales>
<clustering>
<clus scale="   31.958">  2  5  1 -1</clus>
<clus scale="   36.284">  1  6  2 -1</clus>
<clus scale="  126.169">  1  3  2 -1</clus>
<clus scale="   31.958">  2  3  1 -1</clus>
</clustering>
</event>
<event>
 6    0  0.1361744E+002  0.4849318E+03  0.7546771E-02  0.1017789E+00
          2   -1    0    0  504    0 -0.00000000000E+00  0.00000000000E+00  0.24992713182E+04  0.24992713182E+04  0.00000000000E+00 0.  1.
         21   -1    0    0  505  502  0.00000000000E+00 -0.00000000000E+00 -0.20438375711E+03  0.20438375711E+03  0.00000000000E+00 0.  1.
         21    1    1    2  503  501 -0.49582931662E+02  0.58571688506E+02  0.67524232846E+02  0.10221854933E+03  0.00000000000E+00 0.  1.
         21    1    1    2  504  502 -0.79358134148E+02 -0.46258029269E+01  0.70537481405E+03  0.70983993957E+03  0.00000000000E+00 0.  1.
         21    1    1    2  505  503 -0.33169173964E+03  0.20415571062E+03  0.14288321012E+03  0.41486693777E+03  0.00000000000E+00 0.  1.
          2    1    1    2  501    0  0.46063280545E+03 -0.25810159620E+03  0.13791053041E+04  0.14767296486E+04  0.00000000000E+00 0.  1.
<scales pt_clust_3="41.42638" pt_clust_4="79.49284" pt_clust_5="41.42638" pt_clust_6="475.86636"></scales>
<clustering>
<clus scale="   41.426">  3  5 -1 -1</clus>
<clus scale="   79.493">  1  4  2 -1</clus>
<clus scale="  475.866">  1  6  2 -1</clus>
<clus scale="  484.932">  2  3  1 -1</clus>
</clustering>
</event>
<event>
 6    0  0.1361744E+002  0.2575151E+03  0.7546771E-02  0.1108645E+00
         21   -1    0    0  505  502  0.00000000000E+00  0.00000000000E+00  0.37813526784E+03  0.37813526784E+03  0.00000000000E+00 0.  1.
          2   -1    0    0  503    0 -0.00000000000E+00 -0.00000000000E+00 -0.57313063546E+03  0.57313063546E+03  0.00000000000E+00 0.  1.
         21    1    1    2  503  504  0.17544863214E+03 -0.20742312486E+03 -0.33587462985E+02  0.27374201891E+03  0.00000000000E+00 0.  1.
         21    1    1    2  504  502 -0.38953231785E+02  0.61236530850E+02  0.14065422505E+03  0.15827469160E+03  0.00000000000E+00 0.  1.
         21    1    1    2  505  501  0.31336472313E+02 -0.42901526862E+02  0.58406359875E+02  0.78954533613E+02  0.00000000000E+00 0.  1.
          2    1    1    2  501    0 -0.16783187267E+03  0.18908812087E+03 -0.36046848956E+03  0.44029465918E+03  0.00000000000E+00 0.  1.
<scales pt_clust_3="257.51506" pt_clust_4="46.99779" pt_clust_5="53.12735" pt_clust_6="14000.00000"></scales>
<clustering>
<clus scale="   53.127">  1  5  2 -1</clus>
<clus scale="   46.998">  1  4  2 -1</clus>
<clus scale="  257.515">  1  3  2 -1</clus>
<clus scale="   53.127">  1  3  2 -1</clus>
</clustering>
</event>
<event>
 6    0  0.1361744E+002  0.1867831E+03  0.7546771E-02  0.1161395E+00
          4   -1    0    0  503    0 -0.00000000000E+00  0.00000000000E+00  0.78961083480E+03  0.78961083480E+03  0.00000000000E+00 0.  1.
         21   -1    0    0  504  502  0.00000000000E+00 -0.00000000000E+00 -0.25878591544E+03  0.25878591544E+03  0.00000000000E+00 0. -1.
         21    1    1    2  503  505 -0.12427324252E+03  0.91124592050E+02 -0.93739567237E+02  0.18037360269E+03  0.00000000000E+00 0. -1.
         21    1    1    2  504  501 -0.79173614937E+02 -0.19994539222E+02  0.43210021920E+01  0.81773552942E+02  0.00000000000E+00 0. -1.
         21    1    1    2  505  502  0.61955646448E+02  0.55712376097E+02 -0.44792809530E+02  0.94597921556E+02  0.00000000000E+00 0. -1.
          4    1    1    2  501    0  0.14149121101E+03 -0.12684242892E+03  0.66503629394E+03  0.69165167304E+03  0.00000000000E+00 0.  1.
<scales pt_clust_3="14000.00000" pt_clust_4="81.65931" pt_clust_5="61.63231" pt_clust_6="186.78310"></scales>
<clustering>
<clus scale="   81.659">  2  4  1 -1</clus>
<clus scale="   61.632">  2  5  1 -1</clus>
<clus scale="  186.783">  1  6  2 -1</clus>
<clus scale="   81.659">  2  3  1 -1</clus>
</clustering>
</event>
<event>
 6    0  0.1361744E+002  0.6780262E+02  0.7546771E-02  0.1367729E+00
          2   -1    0    0  503    0 -0.00000000000E+00  0.00000000000E+00  0.10543821901E+04  0.10543821901E+04  0.00000000000E+00 0. -1.
         21   -1    0    0  504  502  0.00000000000E+00 -0.00000000000E+00 -0.17344259577E+03  0.17344259577E+03  0.00000000000E+00 0.  1.
         21    1    1    2  503  505 -0.59202583709E+00  0.60762153986E+02  0.52288259912E+03  0.52640155994E+03  0.00000000000E+00 0.  1.
         21    1    1    2  504  501 -0.33134917821E+02  0.24052565568E+02  0.11336437924E+02  0.42484862177E+02  0.00000000000E+00 0.  1.
         21    1    1    2  505  502  0.71154431976E+02 -0.38599013402E+01 -0.14374033733E+03  0.16043421270E+03  0.00000000000E+00 0.  1.
          2    1    1    2  501    0 -0.37427488318E+02 -0.80954818214E+02  0.49046089462E+03  0.49850415106E+03  0.00000000000E+00 0. -1.
<scales pt_clust_3="67.80262" pt_clust_4="40.94446" pt_clust_5="43.72836" pt_clust_6="14000.00000"></scales>
<clustering>
<clus scale="   40.944">  2  4  1 -1</clus>
<clus scale="   43.728">  2  5  1 -1</clus>
<clus scale="   67.803">  1  3  2 -1</clus>
<clus scale="   40.944">  2  3  1 -1</clus>
</clustering>
</event>
<event>
 6    0  0.1361744E+002  0.1032210E+03  0.7546771E-02  0.1273665E+00
          2   -1    0    0  503    0 -0.00000000000E+00  0.00000000000E+00  0.31246872820E+03  0.31246872820E+03  0.00000000000E+00 0.  1.
         21   -1    0    0  505  502  0.00000000000E+00 -0.00000000000E+00 -0.40518263712E+03  0.40518263712E+03  0.00000000000E+00 0. -1.
         21    1    1    2  503  504  0.54001854441E+02  0.92720144194E+01  0.44290974313E+02  0.70454672947E+02  0.00000000000E+00 0. -1.
         21    1    1    2  504  502 -0.32014791794E+02 -0.23714045282E+02 -0.92882459946E+02  0.10106658302E+03  0.00000000000E+00 0. -1.
         21    1    1    2  505  501 -0.15730916894E+02  0.11556269734E+03 -0.27243411563E+03  0.29634869009E+03  0.00000000000E+00 0. -1.
          2    1    1    2  501    0 -0.62561457528E+01 -0.10112066648E+03  0.22831169233E+03  0.24978141926E+03  0.00000000000E+00 0.  1.
<scales pt_clust_3="53.28792" pt_clust_4="39.84097" pt_clust_5="103.22097" pt_clust_6="14000.00000"></scales>
<clustering>
<clus scale="   39.841">  2  4  1 -1</clus>
<clus scale="   53.288">  1  3  2 -1</clus>
<clus scale="  103.221">  2  5  1 -1</clus>
<clus scale="   39.841">  2  3  1 -1</clus>
</clustering>
</event>
<event>
 6    0  0.1361744E+002  0.1336091E+03  0.7546771E-02  0.1222197E+00
         21   -1    0    0  504  502  0.00000000000E+00  0.00000000000E+00  0.45657163840E+03  0.45657163840E+03  0.00000000000E+00 0.  1.
          2   -1    0    0  505    0 -0.00000000000E+00 -0.00000000000E+00 -0.20022464149E+03  0.20022464149E+03  0.00000000000E+00 0.  1.
         21    1    1    2  503  502 -0.23436537907E+02 -0.36483779862E+02  0.24354554432E+03  0.24737576611E+03  0.00000000000E+00 0.  1.
         21    1    1    2  504  501 -0.54425552572E+02 -0.71704670887E+02  0.15487515405E+02  0.91343109939E+02  0.00000000000E+00 0.  1.
         21    1    1    2  505  503  0.32363586894E+01 -0.50802863110E+02  0.10172536377E+03  0.11375172329E+03  0.00000000000E+00 0.  1.
          2    1    1    2  501    0  0.74625731790E+02  0.15899131386E+03 -0.10441142658E+03  0.20432568054E+03  0.00000000000E+00 0.  1.
<scales pt_clust_3="43.36286" pt_clust_4="133.60910" pt_clust_5="69.96807" pt_clust_6="14000.00000"></scales>
<clustering>
<clus scale="   43.363">  1  3  2 -1</clus>
<clus scale="   69.968">  1  5  2 -1</clus>
<clus scale="  133.609">  1  4  2 -1</clus>
<clus scale="   43.363">  1  3  2 -1</clus>
</clustering>
</event>
<event>
 6    0  0.1361744E+002  0.1838082E+03  0.7546771E-02  0.1164168E+00
         21   -1    0    0  501  502  0.00000000000E+00  0.00000000000E+00  0.78957431898E+03  0.78957431898E+03  0.00000000000E+00 0. -1.
          2   -1    0    0  505    0 -0.00000000000E+00 -0.00000000000E+00 -0.42953719017E+03  0.42953719017E+03  0.00000000000E+00 0. -1.
         21    1    1    2  503  502 -0.20904972813E+03 -0.51965388882E+02  0.47298046502E+03  0.51972368693E+03  0.00000000000E+00 0. -1.
         21    1    1    2  504  503  0.69759463688E+02  0.17475632511E+03  0.21366758176E+03  0.28471036412E+03  0.00000000000E+00 0.  1.
         21    1    1    2  505  504  0.66712549839E+02  0.11981018584E+02 -0.17905240187E+02  0.70104969428E+02  0.00000000000E+00 0.  1.
          2    1    1    2  501    0  0.72577714604E+02 -0.13477195481E+03 -0.30870567777E+03  0.34457248867E+03  0.00000000000E+00 0. -1.
<scales pt_clust_3="183.80818" pt_clust_4="14000.00000" pt_clust_5="67.77986" pt_clust_6="179.43546"></scales>
<clustering>
<clus scale="   67.780">  2  5  1 -1</clus>
<clus scale="  179.435">  2  6  1 -1</clus>
<clus scale="  183.808">  1  3  2 -1</clus>
<clus scale="  183.808">  1  3  2 -1</clus>
</clustering>
</event>
<event>
 6    0  0.1361744E+002  0.1750080E+03  0.7546771E-02  0.1172724E+00
         21   -1    0    0  504  502  0.00000000000E+00  0.00000000000E+00  0.66864224088E+03  0.66864224088E+03  0.00000000000E+00 0.  1.
          2   -1    0    0  505    0 -0.00000000000E+00 -0.00000000000E+00 -0.43781028326E+03  0.43781028326E+03  0.00000000000E+00 0. -1.
         21    1    1    2  503  501 -0.24667839302E+02  0.41803229989E+02  0.26251652293E+03  0.26696617229E+03  0.00000000000E+00 0.  1.
         21    1    1    2  504  503 -0.11099471033E+03  0.49094760275E+02  0.36870836556E+03  0.38817004012E+03  0.00000000000E+00 0.  1.
         21    1    1    2  505  502 -0.85303605943E+01 -0.37187623384E+02 -0.25007597199E+02  0.45618705621E+02  0.00000000000E+00 0.  1.
          2    1    1    2  501    0  0.14419291023E+03 -0.53710366879E+02 -0.37538533367E+03  0.40569760612E+03  0.00000000000E+00 0. -1.
<scales pt_clust_3="40.41791" pt_clust_4="40.41791" pt_clust_5="38.15346" pt_clust_6="162.89872"></scales>
<clustering>
<clus scale="   38.153">  2  5  1 -1</clus>
<clus scale="   40.418">  3  4 -1 -1</clus>
<clus scale="  162.899">  2  6  1 -1</clus>
<clus scale="  175.008">  1  3  2 -1</clus>
</clustering>
</event>
<event>
 6    0  0.1361744E+002  0.1373512E+03  0.7546771E-02  0.1216938E+00
          1   -1    0    0  503    0 -0.00000000000E+00  0.00000000000E+00  0.14089755204E+04  0.14089755204E+04  0.00000000000E+00 0. -1.
         21   -1    0    0  504  502  0.00000000000E+00 -0.00000000000E+00 -0.53964825066E+02  0.53964825066E+02  0.00000000000E+00 0. -1.
         21    1    1    2  503  502 -0.43046666429E+02 -0.12906755441E+03  0.84297564016E+02  0.16005476685E+03  0.00000000000E+00 0. -1.
         21    1    1    2  504  505 -0.10046251784E+02  0.67055269095E+02  0.82836150670E+02  0.10704748547E+03  0.00000000000E+00 0. -1.
         21    1    1    2  505  501  0.12979618195E+02  0.43636606978E+02  0.14391614397E+03  0.15094528960E+03  0.00000000000E+00 0. -1.
          1    1    1    2  501    0  0.40113300018E+02  0.18375678332E+02  0.10439608367E+04  0.10448928036E+04  0.00000000000E+00 0. -1.
<scales pt_clust_3="126.42378" pt_clust_4="43.99250" pt_clust_5="43.99250" pt_clust_6="44.12190"></scales>
<clustering>
<clus scale="   43.992">  4  5 -1 -1</clus>
<clus scale="   44.122">  1  6  2 -1</clus>
<clus scale="  126.424">  2  3  1 -1</clus>
<clus scale="  126.424">  2  3  1 -1</clus>
</clustering>
</event>
<event>
 6    0  0.1361744E+002  0.1648702E+03  0.7546771E-02  0.1183306E+00
         21   -1    0    0  505  502  0.00000000000E+00  0.00000000000E+00  0.26424043011E+03  0.26424043011E+03  0.00000000000E+00 0.  1.
          2   -1    0    0  504    0 -0.00000000000E+00 -0.00000000000E+00 -0.11070068795E+04  0.11070068795E+04  0.00000000000E+00 0. -1.
         21    1    1    2  503  502  0.14779990332E+02  0.13268227293E+03  0.72473223734E+02  0.15190589792E+03  0.00000000000E+00 0.  1.
         21    1    1    2  504  503 -0.13751509056E+03 -0.32021243891E+02  0.11091282743E+03  0.17954780835E+03  0.00000000000E+00 0.  1.
         21    1    1    2  505  501  0.30662611574E+02 -0.44328074473E+02 -0.22305043449E+03  0.22947041261E+03  0.00000000000E+00 0.  1.
          2    1    1    2  501    0  0.92072488659E+02 -0.56332954569E+02 -0.80310206608E+03  0.81032319076E+03  0.00000000000E+00 0. -1.
<scales pt_clust_3="133.50294" pt_clust_4="155.55365" pt_clust_5="38.60948" pt_clust_6="38.60948"></scales>
<clustering>
<clus scale="   38.609">  5  6 -1 -1</clus>
<clus scale="  133.503">  1  3  2 -1</clus>
<clus scale="  155.554">  1  4  2 -1</clus>
<clus scale="  133.503">  1  3  2 -1</clus>
</clustering>
</event>
<event>
 6    0  0.1361744E+002  0.1362649E+03  0.7546771E-02  0.1218445E+00
         21   -1    0    0  503  502  0.00000000000E+00  0.00000000000E+00  0.54351942057E+02  0.54351942057E+02  0.00000000000E+00 0. -1.
          2   -1    0    0  504    0 -0.00000000000E+00 -0.00000000000E+00 -0.15697110990E+04  0.15697110990E+04  0.00000000000E+00 0.  1.
         21    1    1    2  503  505 -0.53983730276E+02  0.50229833484E+02 -0.18476681716E+02  0.76017544512E+02  0.00000000000E+00 0. -1.
         21    1    1    2  504  502  0.32553239394E+02 -0.28815539917E+02 -0.19013580698E+03  0.19504274873E+03  0.00000000000E+00 0.  1.
         21    1    1    2  505  501 -0.97977759082E+02 -0.10391491983E+02 -0.10025229839E+03  0.14056367850E+03  0.00000000000E+00 0. -1.
          2    1    1    2  501    0  0.11940824996E+03 -0.11022801584E+02 -0.12064943698E+04  0.12124390693E+04  0.00000000000E+00 0.  1.
<scales pt_clust_3="72.24682" pt_clust_4="43.47469" pt_clust_5="14000.00000" pt_clust_6="136.26492"></scales>
<clustering>
<clus scale="   43.475">  2  4  1 -1</clus>
<clus scale="   72.247">  1  3  2 -1</clus>
<clus scale="  136.265">  2  6  1 -1</clus>
<clus scale="   72.247">  1  3  2 -1</clus>
</clustering>
</event>
<event>
 6    0  0.1361744E+002  0.1364400E+03  0.7546771E-02  0.1218201E+00
         21   -1    0    0  505  502  0.00000000000E+00  0.00000000000E+00  0.29486258641E+03  0.29486258641E+03  0.00000000000E+00 0.  1.
          4   -1    0    0  503    0 -0.00000000000E+00 -0.00000000000E+00 -0.31853524825E+03  0.31853524825E+03  0.00000000000E+00 0. -1.
         21    1    1    2  503  502  0.19339523042E+02  0.40302172481E+02 -0.49197849199E+02  0.66473382823E+02  0.00000000000E+00 0.  1.
         21    1    1    2  504  501 -0.52353971947E+02  0.64955176952E+02  0.11632128211E+03  0.14314591878E+03  0.00000000000E+00 0.  1.
         21    1    1    2  505  504 -0.40547135394E+02  0.22366874770E+02  0.13019885027E+03  0.13818859536E+03  0.00000000000E+00 0.  1.
          4    1    1    2  501    0  0.73561584300E+02 -0.12762422420E+03 -0.22099494502E+03  0.26558993771E+03  0.00000000000E+00 0. -1.
<scales pt_clust_3="44.70215" pt_clust_4="34.31296" pt_clust_5="34.31296" pt_clust_6="128.43172"></scales>
<clustering>
<clus scale="   34.313">  4  5 -1 -1</clus>
<clus scale="   44.702">  2  3  1 -1</clus>
<clus scale="  128.432">  2  6  1 -1</clus>
<clus scale="  136.440">  1  3  2 -1</clus>
</clustering>
</event>
<event>
 6    0  0.1361744E+002  0.4302296E+03  0.7546771E-02  0.1033787E+00
         21   -1    0    0  503  502  0.00000000000E+00  0.00000000000E+00  0.19835484250E+03  0.19835484250E+03  0.00000000000E+00 0. -1.
          1   -1    0    0  502    0 -0.00000000000E+00 -0.00000000000E+00 -0.10861567811E+04  0.10861567811E+04  0.00000000000E+00 0. -1.
         21    1    1    2  503  505 -0.14636934824E+03 -0.24004034845E+03 -0.18483431284E+03  0.33646259553E+03  0.00000000000E+00 0. -1.
         21    1    1    2  504  501 -0.71035905763E+00  0.64893712042E+02 -0.86576005302E+02  0.10819936768E+03  0.00000000000E+00 0.  1.
         21    1    1    2  505  504 -0.96710104970E-01 -0.12630650380E+03  0.12660119706E+02  0.12693943787E+03  0.00000000000E+00 0. -1.
          1    1    1    2  501    0  0.14717641741E+03  0.30145314021E+03 -0.62905174020E+03  0.71291022256E+03  0.00000000000E+00 0. -1.
<scales pt_clust_3="114.99524" pt_clust_4="35.28466" pt_clust_5="114.99524" pt_clust_6="402.61382"></scales>
<clustering>
<clus scale="   35.285">  4  6 -1 -1</clus>
<clus scale="  114.995">  3  5 -1 -1</clus>
<clus scale="  402.614">  2  4  1 -1</clus>
<clus scale="  430.230">  1  3  2 -1</clus>
</clustering>
</event>
<event>
 6    0  0.1361744E+002  0.1286458E+03  0.7546771E-02  0.1229479E+00
         -2   -1    0    0    0  501 -0.00000000000E+00  0.00000000000E+00  0.24416286679E+03  0.24416286679E+03  0.00000000000E+00 0. -1.
         21   -1    0    0  505  502  0.00000000000E+00 -0.00000000000E+00 -0.23786808771E+03  0.23786808771E+03  0.00000000000E+00 0. -1.
         21    1    1    2  503  502  0.50839479053E+02  0.13556093717E+03 -0.10745784828E+03  0.18030144058E+03  0.00000000000E+00 0. -1.
         21    1    1    2  504  503 -0.53075020113E+02 -0.91786604529E+02 -0.10972794187E+02  0.10659334287E+03  0.00000000000E+00 0. -1.
         21    1    1    2  505  501 -0.21757426824E+02  0.35752961674E+02 -0.38841599918E+01  0.42032684774E+02  0.00000000000E+00 0.  1.
         -2    1    1    2    0  504  0.23992967884E+02 -0.79527294316E+02  0.12860958154E+03  0.15310348629E+03  0.00000000000E+00 0. -1.
<scales pt_clust_3="128.64580" pt_clust_4="14000.00000" pt_clust_5="41.85284" pt_clust_6="80.76126"></scales>
<clustering>
<clus scale="   41.853">  2  5  1 -1</clus>
<clus scale="   80.761">  1  6  2 -1</clus>
<clus scale="  128.646">  2  3  1 -1</clus>
<clus scale="   41.853">  2  3  1 -1</clus>
</clustering>
</event>
<event>
 6    0  0.1361744E+002  0.9840838E+02  0.7546771E-02  0.1283679E+00
          2   -1    0    0  505    0 -0.00000000000E+00  0.00000000000E+00  0.56395430638E+03  0.56395430638E+03  0.00000000000E+00 0.  1.
         21   -1    0    0  503  502  0.00000000000E+00 -0.00000000000E+00 -0.19201105555E+03  0.19201105555E+03  0.00000000000E+00 0. -1.
         21    1    1    2  503  504 -0.35186887218E+02  0.13821397794E+02 -0.39396526406E+02  0.54600680966E+02  0.00000000000E+00 0. -1.
         21    1    1    2  504  501  0.38093081377E+02  0.88253727683E+02 -0.11453296968E+03  0.14952459478E+03  0.00000000000E+00 0. -1.
         21    1    1    2  505  502 -0.29515011714E+02 -0.45277528447E+02  0.56104541861E+02  0.77903209922E+02  0.00000000000E+00 0.  1.
          2    1    1    2  501    0  0.26608817555E+02 -0.56797597030E+02  0.46976820506E+03  0.47393687626E+03  0.00000000000E+00 0.  1.
<scales pt_clust_3="37.80407" pt_clust_4="98.40838" pt_clust_5="54.69286" pt_clust_6="14000.00000"></scales>
<clustering>
<clus scale="   37.804">  2  3  1 -1</clus>
<clus scale="   54.693">  1  5  2 -1</clus>
<clus scale="   98.408">  2  4  1 -1</clus>
<clus scale="   37.804">  2  3  1 -1</clus>
</clustering>
</event>
<event>
 6    0  0.2859593E+002  0.1427035E+03  0.7546771E-02  0.1209737E+00
          1   -1    0    0  502    0 -0.00000000000E+00  0.00000000000E+00  0.27309065730E+04  0.27309065730E+04  0.00000000000E+00 0.  1.
         21   -1    0    0  505  502  0.00000000000E+00 -0.00000000000E+00 -0.51243982622E+03  0.51243982622E+03  0.00000000000E+00 0. -1.
         21    1    1    2  503  504 -0.56246339423E+02  0.12040770084E+02 -0.43554856091E+01  0.57685362941E+02  0.00000000000E+00 0. -1.
         21    1    1    2  504  501 -0.11216249047E+03 -0.36077995655E+02  0.10058386216E+03  0.15491662069E+03  0.00000000000E+00 0. -1.
         21    1    1    2  505  503  0.33333019027E+02 -0.27499539349E+02 -0.45119181629E+03  0.45325640636E+03  0.00000000000E+00 0. -1.
          1    1    1    2  501    0  0.13507581087E+03  0.51536764920E+02  0.25734301865E+04  0.25774880092E+04  0.00000000000E+00 0.  1.
<scales pt_clust_3="39.13245" pt_clust_4="14000.00000" pt_clust_5="43.21244" pt_clust_6="142.70352"></scales>
<clustering>
<clus scale="   43.212">  2  5  1 -1</clus>
<clus scale="   39.132">  2  3  1 -1</clus>
<clus scale="  142.704">  1  6  2 -1</clus>
<clus scale="   43.212">  2  3  1 -1</clus>
</clustering>
</event>
<event>
 6    0  0.1361744E+002  0.3983855E+03  0.7546771E-02  0.1044340E+00
         21   -1    0    0  504  502  0.00000000000E+00  0.00000000000E+00  0.44357700454E+03  0.44357700454E+03  0.00000000000E+00 0. -1.
          2   -1    0    0  505    0 -0.00000000000E+00 -0.00000000000E+00 -0.20075066289E+04  0.20075066289E+04  0.00000000000E+00 0. -1.
         21    1    1    2  503  501  0.10871407410E+02 -0.21407659783E+03 -0.92351914682E+03  0.94806887502E+03  0.00000000000E+00 0. -1.
         21    1    1    2  504  503  0.63500412569E+01  0.66575148687E+02 -0.35974579010E+02  0.75939079409E+02  0.00000000000E+00 0.  1.
         21    1    1    2  505  502  0.20264609750E+02  0.32988925277E+03  0.33427120219E+03  0.47007957849E+03  0.00000000000E+00 0. -1.
          2    1    1    2  501    0 -0.37486058417E+02 -0.18238780363E+03 -0.93870710068E+03  0.95699610049E+03  0.00000000000E+00 0. -1.
<scales pt_clust_3="55.08871" pt_clust_4="66.87730" pt_clust_5="393.97636" pt_clust_6="55.08871"></scales>
<clustering>
<clus scale="   55.089">  3  6 -1 -1</clus>
<clus scale="   66.877">  1  4  2 -1</clus>
<clus scale="  393.976">  1  5  2 -1</clus>
<clus scale="   66.877">  1  3  2 -1</clus>
</clustering>
</event>
<event>
 6    0  0.1361744E+002  0.1396534E+03  0.7546771E-02  0.1213796E+00
         21   -1    0    0  503  502  0.00000000000E+00  0.00000000000E+00  0.37471054571E+02  0.37471054571E+02  0.00000000000E+00 0.  1.
          2   -1    0    0  505    0 -0.00000000000E+00 -0.00000000000E+00 -0.13361295052E+04  0.13361295052E+04  0.00000000000E+00 0.  1.
         21    1    1    2  503  504  0.85947355545E+02  0.22103910097E+02 -0.57974416981E+02  0.10600265936E+03  0.00000000000E+00 0.  1.
         21    1    1    2  504  501  0.51946780518E+02  0.70709998036E+00 -0.81672147603E+02  0.96795184232E+02  0.00000000000E+00 0.  1.
         21    1    1    2  505  502 -0.53990242442E+02  0.26197902048E+02 -0.27529681008E+03  0.28176161909E+03  0.00000000000E+00 0.  1.
          2    1    1    2  501    0 -0.83903893621E+02 -0.49008912125E+02 -0.88371507593E+03  0.88904109706E+03  0.00000000000E+00 0.  1.
<scales pt_clust_3="34.98420" pt_clust_4="34.98420" pt_clust_5="60.01064" pt_clust_6="131.95606"></scales>
<clustering>
<clus scale="   34.984">  3  4 -1 -1</clus>
<clus scale="   60.011">  2  5  1 -1</clus>
<clus scale="  131.956">  2  6  1 -1</clus>
<clus scale="  139.653">  1  3  2 -1</clus>
</clustering>
</event>
<event>
 6    0  0.1361744E+002  0.1210146E+03  0.7546771E-02  0.1241433E+00
          2   -1    0    0  504    0 -0.00000000000E+00  0.00000000000E+00  0.32731135146E+04  0.32731135146E+04  0.00000000000E+00 0.  1.
         21   -1    0    0  503  502  0.00000000000E+00 -0.00000000000E+00 -0.11214148978E+03  0.11214148978E+03  0.00000000000E+00 0. -1.
         21    1    1    2  503  501  0.10635067663E+01  0.58936484976E+02  0.71260341360E+02  0.92480682084E+02  0.00000000000E+00 0.  1.
         21    1    1    2  504  505 -0.49777239732E+02 -0.21522056079E+02  0.65724096985E+03  0.65947453700E+03  0.00000000000E+00 0. -1.
         21    1    1    2  505  502  0.10598610978E+03  0.37957010188E+01 -0.71775803621E+02  0.12805947368E+03  0.00000000000E+00 0. -1.
          2    1    1    2  501    0 -0.57272376818E+02 -0.41210129916E+02  0.25042465172E+04  0.25052403116E+04  0.00000000000E+00 0.  1.
<scales pt_clust_3="58.26471" pt_clust_4="54.23073" pt_clust_5="14000.00000" pt_clust_6="121.01464"></scales>
<clustering>
<clus scale="   54.231">  1  4  2 -1</clus>
<clus scale="   58.265">  2  3  1 -1</clus>
<clus scale="  121.015">  1  6  2 -1</clus>
<clus scale="   58.265">  2  3  1 -1</clus>
</clustering>
</event>
<event>
 6    0  0.1361744E+002  0.1876490E+03  0.7546771E-02  0.1160599E+00
         21   -1    0    0  501  502  0.00000000000E+00  0.00000000000E+00  0.58641251945E+02  0.58641251945E+02  0.00000000000E+00 0. -1.
          2   -1    0    0  504    0 -0.00000000000E+00 -0.00000000000E+00 -0.27541629464E+04  0.27541629464E+04  0.00000000000E+00 0.  1.
         21    1    1    2  503  502  0.68749180717E+02  0.48549677696E+02 -0.20377379726E+03  0.22047059101E+03  0.00000000000E+00 0. -1.
         21    1    1    2  504  505 -0.25170021599E+02  0.39202634314E+02 -0.18236737894E+03  0.18822390238E+03  0.00000000000E+00 0. -1.
         21    1    1    2  505  503  0.12805804305E+03 -0.12107130478E+02 -0.51666562177E+02  0.13861774290E+03  0.00000000000E+00 0. -1.
          2    1    1    2  501    0 -0.17163720217E+03 -0.75645181531E+02 -0.22577139561E+04  0.22654919620E+04  0.00000000000E+00 0.  1.
<scales pt_clust_3="84.42077" pt_clust_4="46.58730" pt_clust_5="14000.00000" pt_clust_6="187.64902"></scales>
<clustering>
<clus scale="   46.587">  2  4  1 -1</clus>
<clus scale="   84.421">  1  3  2 -1</clus>
<clus scale="  187.649">  2  6  1 -1</clus>
<clus scale="   84.421">  1  3  2 -1</clus>
</clustering>
</event>
<event>
 6    0  0.1361744E+002  0.1163647E+03  0.7546771E-02  0.1249218E+00
          3   -1    0    0  505    0 -0.00000000000E+00  0.00000000000E+00  0.72397452828E+02  0.72397452828E+02  0.00000000000E+00 0. -1.
         21   -1    0    0  504  502  0.00000000000E+00 -0.00000000000E+00 -0.46242798187E+03  0.46242798187E+03  0.00000000000E+00 0. -1.
         21    1    1    2  503  502  0.13931412613E+02  0.38395504006E+02 -0.56069097630E+02  0.69368888519E+02  0.00000000000E+00 0. -1.
         21    1    1    2  504  501 -0.13351104261E+02 -0.32876820402E+02 -0.12997140462E+03  0.13472825733E+03  0.00000000000E+00 0. -1.
         21    1    1    2  505  503 -0.11572910875E+03  0.11643570564E+02 -0.17604745256E+03  0.21100119645E+03  0.00000000000E+00 0. -1.
          3    1    1    2  501    0  0.11514880040E+03 -0.17162254167E+02 -0.27942574231E+02  0.11972709241E+03  0.00000000000E+00 0. -1.
<scales pt_clust_3="34.10808" pt_clust_4="35.48432" pt_clust_5="116.36465" pt_clust_6="14000.00000"></scales>
<clustering>
<clus scale="   35.484">  2  4  1 -1</clus>
<clus scale="   34.108">  2  3  1 -1</clus>
<clus scale="  116.365">  2  5  1 -1</clus>
<clus scale="   35.484">  2  3  1 -1</clus>
</clustering>
</event>
<event>
 6    0  0.1361744E+002  0.9031573E+02  0.7546771E-02  0.1302089E+00
         21   -1    0    0  503  502  0.00000000000E+00  0.00000000000E+00  0.32089637214E+03  0.32089637214E+03  0.00000000000E+00 0.  1.
          1   -1    0    0  504    0 -0.00000000000E+00 -0.00000000000E+00 -0.12142943871E+04  0.12142943871E+04  0.00000000000E+00 0.  1.
         21    1    1    2  503  501 -0.67958561709E+02 -0.72122845884E+02  0.25005612407E+03  0.26897608851E+03  0.00000000000E+00 0.  1.
         21    1    1    2  504  505  0.15256206853E+02  0.27477345394E+02 -0.39387222914E+02  0.50389579144E+02  0.00000000000E+00 0.  1.
         21    1    1    2  505  502  0.78347022999E+02  0.95517336531E+01  0.27381710867E+02  0.83541903968E+02  0.00000000000E+00 0.  1.
          1    1    1    2  501    0 -0.25644668143E+02  0.35093766838E+02 -0.11314486270E+04  0.11322831876E+04  0.00000000000E+00 0.  1.
<scales pt_clust_3="90.31573" pt_clust_4="31.42859" pt_clust_5="14000.00000" pt_clust_6="62.64083"></scales>
<clustering>
<clus scale="   31.429">  2  4  1 -1</clus>
<clus scale="   62.641">  2  6  1 -1</clus>
<clus scale="   90.316">  1  3  2 -1</clus>
<clus scale="   90.316">  1  3  2 -1</clus>
</clustering>
</event>
<event>
 6    0  0.1361744E+002  0.6732101E+02  0.7546771E-02  0.1369448E+00
         21   -1    0    0  503  502  0.00000000000E+00  0.00000000000E+00  0.19283320468E+03  0.19283320468E+03  0.00000000000E+00 0.  1.
          1   -1    0    0  505    0 -0.00000000000E+00 -0.00000000000E+00 -0.80961257351E+03  0.80961257351E+03  0.00000000000E+00 0. -1.
         21    1    1    2  503  501 -0.15022120465E+01 -0.89609976161E+02  0.14733828412E+03  0.17245513746E+03  0.00000000000E+00 0.  1.
         21    1    1    2  504  502  0.21133026335E+02  0.27186394601E+02  0.11382368801E+02  0.36266557226E+02  0.00000000000E+00 0. -1.
         21    1    1    2  505  504  0.32848213290E+02  0.91112168961E+02 -0.32062758504E+03  0.33493653240E+03  0.00000000000E+00 0. -1.
          1    1    1    2  501    0 -0.52479027579E+02 -0.28688587401E+02 -0.45487243670E+03  0.45878755111E+03  0.00000000000E+00 0. -1.
<scales pt_clust_3="67.32101" pt_clust_4="34.43407" pt_clust_5="14000.00000" pt_clust_6="59.44312"></scales>
<clustering>
<clus scale="   34.434">  1  4  2 -1</clus>
<clus scale="   59.443">  2  6  1 -1</clus>
<clus scale="   67.321">  1  3  2 -1</clus>
<clus scale="   34.434">  1  3  2 -1</clus>
</clustering>
</event>
<event>
 6    0  0.1361744E+002  0.7863058E+02  0.7546771E-02  0.1332983E+00
         -1   -1    0    0    0  501 -0.00000000000E+00  0.00000000000E+00  0.26885510553E+03  0.26885510553E+03  0.00000000000E+00 0.  1.
         21   -1    0    0  504  502  0.00000000000E+00 -0.00000000000E+00 -0.31772199879E+03  0.31772199879E+03  0.00000000000E+00 0.  1.
         21    1    1    2  503  501  0.41009881602E+02  0.85311231659E+02  0.94239603948E+02  0.13356990525E+03  0.00000000000E+00 0.  1.
         21    1    1    2  504  503  0.15703955082E+02 -0.74347854520E+02 -0.12231357388E+03  0.14399593061E+03  0.00000000000E+00 0.  1.
         21    1    1    2  505  502 -0.72746795049E+02  0.63607087670E+02 -0.13842307049E+03  0.16881618475E+03  0.00000000000E+00 0.  1.
         -1    1    1    2    0  505  0.16032958364E+02 -0.74570464809E+02  0.11763014716E+03  0.14019508371E+03  0.00000000000E+00 0.  1.
<scales pt_clust_3="78.63058" pt_clust_4="75.98827" pt_clust_5="59.70097" pt_clust_6="14000.00000"></scales>
<clustering>
<clus scale="   75.988">  2  4  1 -1</clus>
<clus scale="   59.701">  2  5  1 -1</clus>
<clus scale="   78.631">  2  3  1 -1</clus>
<clus scale="   75.988">  2  3  1 -1</clus>
</clustering>
</event>
<event>
 6    0  0.1361744E+002  0.7002512E+02  0.7546771E-02  0.1360008E+00
         21   -1    0    0  504  502  0.00000000000E+00  0.00000000000E+00  0.41983991793E+02  0.41983991793E+02  0.00000000000E+00 0.  1.
          2   -1    0    0  503    0 -0.00000000000E+00 -0.00000000000E+00 -0.25014820937E+04  0.25014820937E+04  0.00000000000E+00 0.  1.
         21    1    1    2  503  502  0.43236831404E+02  0.89555475122E+01 -0.85131973121E+02  0.95901398679E+02  0.00000000000E+00 0. -1.
         21    1    1    2  504  505 -0.94379285405E+02 -0.57503743450E+02 -0.50870313261E+02  0.12166313655E+03  0.00000000000E+00 0.  1.
         21    1    1    2  505  501  0.10008476059E+02  0.60452972372E+02 -0.15634991804E+04  0.15646994659E+04  0.00000000000E+00 0.  1.
          2    1    1    2  501    0  0.41133977942E+02 -0.11904776435E+02 -0.75999663514E+03  0.76120208439E+03  0.00000000000E+00 0.  1.
<scales pt_clust_3="46.13504" pt_clust_4="70.02512" pt_clust_5="14000.00000" pt_clust_6="42.82205"></scales>
<clustering>
<clus scale="   42.822">  2  6  1 -1</clus>
<clus scale="   46.135">  1  3  2 -1</clus>
<clus scale="   70.025">  1  4  2 -1</clus>
<clus scale="   46.135">  1  3  2 -1</clus>
</clustering>
</event>
<event>
 6    0  0.1361744E+002  0.1456630E+03  0.7546771E-02  0.1205906E+00
         21   -1    0    0  503  502  0.00000000000E+00  0.00000000000E+00  0.89005931736E+02  0.89005931736E+02  0.00000000000E+00 0. -1.
          2   -1    0    0  505    0 -0.00000000000E+00 -0.00000000000E+00 -0.33399714447E+03  0.33399714447E+03  0.00000000000E+00 0. -1.
         21    1    1    2  503  504  0.43330454669E+02  0.46541266200E+02 -0.28039968265E+02  0.69497176789E+02  0.00000000000E+00 0. -1.
         21    1    1    2  504  501  0.17597668919E+02  0.83277753043E+02 -0.32749994308E+01  0.85179737758E+02  0.00000000000E+00 0. -1.
         21    1    1    2  505  502  0.17108014548E+02 -0.30415176909E+02 -0.34546172837E+02  0.49104024335E+02  0.00000000000E+00 0. -1.
          2    1    1    2  501    0 -0.78036138137E+02 -0.99403842334E+02 -0.17913007221E+03  0.21922213733E+03  0.00000000000E+00 0. -1.
<scales pt_clust_3="42.63865" pt_clust_4="42.63865" pt_clust_5="34.89652" pt_clust_6="137.25380"></scales>
<clustering>
<clus scale="   34.897">  2  5  1 -1</clus>
<clus scale="   42.639">  3  4 -1 -1</clus>
<clus scale="  137.254">  2  6  1 -1</clus>
<clus scale="  145.663">  1  3  2 -1</clus>
</clustering>
</event>
<event>
 6    0  0.1361744E+002  0.7429223E+02  0.7546771E-02  0.1346077E+00
          1   -1    0    0  505    0 -0.00000000000E+00  0.00000000000E+00  0.22701421878E+04  0.22701421878E+04  0.00000000000E+00 0.  1.
         21   -1    0    0  504  502  0.00000000000E+00 -0.00000000000E+00 -0.14218822164E+04  0.14218822164E+04  0.00000000000E+00 0.  1.
         21    1    1    2  503  502  0.30269582493E+02 -0.60849030627E+02 -0.13215623888E+04  0.13233087318E+04  0.00000000000E+00 0.  1.
         21    1    1    2  504  501  0.88233211853E+01  0.30673243210E+02 -0.87764489966E+02  0.93387925047E+02  0.00000000000E+00 0. -1.
         21    1    1    2  505  503  0.22715826402E+02  0.73255148143E+02  0.17135721179E+03  0.18773816749E+03  0.00000000000E+00 0. -1.
          1    1    1    2  501    0 -0.61808730081E+02 -0.43079360726E+02  0.20862296384E+04  0.20875895800E+04  0.00000000000E+00 0.  1.
<scales pt_clust_3="49.46328" pt_clust_4="31.91706" pt_clust_5="74.29223" pt_clust_6="14000.00000"></scales>
<clustering>
<clus scale="   31.917">  2  4  1 -1</clus>
<clus scale="   49.463">  2  3  1 -1</clus>
<clus scale="   74.292">  2  5  1 -1</clus>
<clus scale="   31.917">  2  3  1 -1</clus>
</clustering>
</event>
<event>
 6    0  0.1361744E+002  0.2901066E+03  0.7546771E-02  0.1090294E+00
         21   -1    0    0  505  502  0.00000000000E+00  0.00000000000E+00  0.64020401051E+03  0.64020401051E+03  0.00000000000E+00 0. -1.
          2   -1    0    0  503    0 -0.00000000000E+00 -0.00000000000E+00 -0.58148010917E+03  0.58148010917E+03  0.00000000000E+00 0.  1.
         21    1    1    2  503  502 -0.12398450050E+03  0.55031297692E+02 -0.33096545037E+03  0.35768523792E+03  0.00000000000E+00 0.  1.
         21    1    1    2  504  501  0.10905681651E+03  0.10223866063E+03  0.21769369968E+03  0.26407703391E+03  0.00000000000E+00 0. -1.
         21    1    1    2  505  504  0.95018632945E+02  0.11147568305E+03  0.26641508660E+03  0.30402691803E+03  0.00000000000E+00 0. -1.
          2    1    1    2  501    0 -0.80090948962E+02 -0.26874564137E+03 -0.94419434592E+02  0.29589492982E+03  0.00000000000E+00 0.  1.
<scales pt_clust_3="135.64881" pt_clust_4="32.23086" pt_clust_5="32.23086" pt_clust_6="288.27358"></scales>
<clustering>
<clus scale="   32.231">  4  5 -1 -1</clus>
<clus scale="  135.649">  2  3  1 -1</clus>
<clus scale="  288.274">  2  6  1 -1</clus>
<clus scale="  290.107">  1  3  2 -1</clus>
</clustering>
</event>
<event>
 6    0  0.1361744E+002  0.1263929E+03  0.7546771E-02  0.1232908E+00
         21   -1    0    0  505  502  0.00000000000E+00  0.00000000000E+00  0.29852483142E+04  0.29852483142E+04  0.00000000000E+00 0. -1.
         -3   -1    0    0    0  501 -0.00000000000E+00 -0.00000000000E+00 -0.89466342981E+02  0.89466342981E+02  0.00000000000E+00 0.  1.
         21    1    1    2  503  502 -0.48110450423E+01  0.57528381027E+02  0.41038016849E+03  0.41442073243E+03  0.00000000000E+00 0. -1.
         21    1    1    2  504  501 -0.27357104273E+02  0.21179363969E+02  0.42954018663E+02  0.55154549510E+02  0.00000000000E+00 0.  1.
         21    1    1    2  505  504  0.32367308946E+02  0.67599652560E+02  0.24569700030E+04  0.24581128841E+04  0.00000000000E+00 0. -1.
         -3    1    1    2    0  503 -0.19915963100E+00 -0.14630739756E+03 -0.14522218896E+02  0.14702649110E+03  0.00000000000E+00 0.  1.
<scales pt_clust_3="58.29920" pt_clust_4="34.59735" pt_clust_5="126.39286" pt_clust_6="14000.00000"></scales>
<clustering>
<clus scale="   34.597">  2  4  1 -1</clus>
<clus scale="   58.299">  1  3  2 -1</clus>
<clus scale="  126.393">  1  5  2 -1</clus>
<clus scale="   58.299">  1  3  2 -1</clus>
</clustering>
</event>
<event>
 6    0  0.1361744E+002  0.2344190E+03  0.7546771E-02  0.1123568E+00
          2   -1    0    0  502    0 -0.00000000000E+00  0.00000000000E+00  0.28838505567E+04  0.28838505567E+04  0.00000000000E+00 0. -1.
         21   -1    0    0  503  502  0.00000000000E+00 -0.00000000000E+00 -0.14263401658E+03  0.14263401658E+03  0.00000000000E+00 0.  1.
         21    1    1    2  503  504 -0.19847732958E+02  0.55144228502E+02 -0.54799146025E+02  0.80235683120E+02  0.00000000000E+00 0.  1.
         21    1    1    2  504  505 -0.11701503606E+03  0.12910445650E+03  0.38465587352E+02  0.17843789049E+03  0.00000000000E+00 0.  1.
         21    1    1    2  505  501  0.39533976228E+02 -0.40829338456E+02  0.41748201631E+03  0.42133265254E+03  0.00000000000E+00 0. -1.
          2    1    1    2  501    0  0.97328792791E+02 -0.14341934654E+03  0.23400680825E+04  0.23464783471E+04  0.00000000000E+00 0. -1.
<scales pt_clust_3="58.60732" pt_clust_4="225.69021" pt_clust_5="36.28895" pt_clust_6="36.28895"></scales>
<clustering>
<clus scale="   36.289">  5  6 -1 -1</clus>
<clus scale="   58.607">  2  3  1 -1</clus>
<clus scale="  225.690">  2  4  1 -1</clus>
<clus scale="   58.607">  2  3  1 -1</clus>
</clustering>
</event>
<event>
 6    0  0.1361744E+002  0.1484791E+03  0.7546771E-02  0.1202354E+00
          2   -1    0    0  504    0 -0.00000000000E+00  0.00000000000E+00  0.25593674377E+04  0.25593674377E+04  0.00000000000E+00 0. -1.
         21   -1    0    0  505  502  0.00000000000E+00 -0.00000000000E+00 -0.18333167875E+03  0.18333167875E+03  0.00000000000E+00 0.  1.
         21    1    1    2  503  501 -0.55897803199E+02 -0.22953295656E+02 -0.36556593016E+02  0.70624377356E+02  0.00000000000E+00 0. -1.
         21    1    1    2  504  502  0.42397554760E+02  0.23880375260E+02  0.14219372440E+03  0.15028932175E+03  0.00000000000E+00 0.  1.
         21    1    1    2  505  503 -0.64077028692E+02 -0.54221758794E+02 -0.11064522009E+03  0.13888207034E+03  0.00000000000E+00 0.  1.
          2    1    1    2  501    0  0.77577277131E+02  0.53294679191E+02  0.23810438476E+04  0.23829033470E+04  0.00000000000E+00 0. -1.
<scales pt_clust_3="36.73579" pt_clust_4="48.66030" pt_clust_5="36.73579" pt_clust_6="142.02615"></scales>
<clustering>
<clus scale="   36.736">  3  5 -1 -1</clus>
<clus scale="   48.660">  1  4  2 -1</clus>
<clus scale="  142.026">  1  6  2 -1</clus>
<clus scale="  148.479">  2  3  1 -1</clus>
</clustering>
</event>
<event>
 6    0  0.1361744E+002  0.8657117E+02  0.7546771E-02  0.1311374E+00
          2   -1    0    0  503    0 -0.00000000000E+00  0.00000000000E+00  0.79412631462E+03  0.79412631462E+03  0.00000000000E+00 0.  1.
         21   -1    0    0  505  502  0.00000000000E+00 -0.00000000000E+00 -0.67910677983E+02  0.67910677983E+02  0.00000000000E+00 0.  1.
         21    1    1    2  503  504  0.30547336769E+02  0.10621067135E+02  0.43114347437E+03  0.43235476445E+03  0.00000000000E+00 0.  1.
         21    1    1    2  504  502  0.31484914253E+02 -0.35300873512E+02  0.33270899811E+02  0.57830824570E+02  0.00000000000E+00 0.  1.
         21    1    1    2  505  501 -0.10665135562E+03  0.78760170902E+02  0.38879058600E+02  0.13816387868E+03  0.00000000000E+00 0.  1.
          2    1    1    2  501    0  0.44619104595E+02 -0.54080364525E+02  0.22292220386E+03  0.23368752491E+03  0.00000000000E+00 0.  1.
<scales pt_clust_3="32.34110" pt_clust_4="49.00522" pt_clust_5="14000.00000" pt_clust_6="86.57117"></scales>
<clustering>
<clus scale="   32.341">  1  3  2 -1</clus>
<clus scale="   49.005">  2  4  1 -1</clus>
<clus scale="   86.571">  1  6  2 -1</clus>
<clus scale="   49.005">  2  3  1 -1</clus>
</clustering>
</event>
<event>
 6    0  0.1361744E+002  0.2138753E+03  0.7546771E-02  0.1138533E+00
          2   -1    0    0  504    0 -0.00000000000E+00  0.00000000000E+00  0.25487987774E+04  0.25487987774E+04  0.00000000000E+00 0.  1.
         21   -1    0    0  501  502  0.00000000000E+00 -0.00000000000E+00 -0.27564504644E+02  0.27564504644E+02  0.00000000000E+00 0.  1.
         21    1    1    2  503  502  0.52398488696E+02 -0.15658530880E+03  0.43237382395E+03  0.46283008134E+03  0.00000000000E+00 0.  1.
         21    1    1    2  504  505 -0.50835631252E+02  0.18289860686E+03  0.16831115462E+04  0.16937829373E+04  0.00000000000E+00 0.  1.
         21    1    1    2  505  503  0.43747884786E+02 -0.34109806830E+02  0.15060082775E+03  0.16049288353E+03  0.00000000000E+00 0.  1.
          2    1    1    2  501    0 -0.45310742230E+02  0.77965087645E+01  0.25514807484E+03  0.25925737985E+03  0.00000000000E+00 0.  1.
<scales pt_clust_3="32.08050" pt_clust_4="206.58972" pt_clust_5="32.08050" pt_clust_6="45.97661"></scales>
<clustering>
<clus scale="   32.080">  3  5 -1 -1</clus>
<clus scale="   45.977">  1  6  2 -1</clus>
<clus scale="  206.590">  1  4  2 -1</clus>
<clus scale="  213.875">  2  3  1 -1</clus>
</clustering>
</event>
<event>
 6    0  0.1361744E+002  0.3379020E+03  0.7546771E-02  0.1067693E+00
         21   -1    0    0  505  502  0.00000000000E+00  0.00000000000E+00  0.42744003244E+02  0.42744003244E+02  0.00000000000E+00 0.  1.
          2   -1    0    0  503    0 -0.00000000000E+00 -0.00000000000E+00 -0.27412951127E+04  0.27412951127E+04  0.00000000000E+00 0.  1.
         21    1    1    2  503  504  0.20230364259E+03 -0.36103254429E+02 -0.78410563983E+03  0.81058735692E+03  0.00000000000E+00 0.  1.
         21    1    1    2  504  502  0.11743719248E+03  0.28678379050E+02 -0.25768942180E+03  0.28463622698E+03  0.00000000000E+00 0.  1.
         21    1    1    2  505  501 -0.58994960045E+02  0.27531723630E+02 -0.28343527723E+03  0.29081602001E+03  0.00000000000E+00 0. -1.
          2    1    1    2  501    0 -0.26074587502E+03 -0.20106848251E+02 -0.13733207706E+04  0.13979995120E+04  0.00000000000E+00 0.  1.
<scales pt_clust_3="83.62730" pt_clust_4="83.62730" pt_clust_5="35.16718" pt_clust_6="327.50160"></scales>
<clustering>
<clus scale="   35.167">  5  6 -1 -1</clus>
<clus scale="   83.627">  3  4 -1 -1</clus>
<clus scale="  327.502">  2  5  1 -1</clus>
<clus scale="  337.902">  1  3  2 -1</clus>
</clustering>
</event>
<event>
 6    0  0.1361744E+002  0.1832245E+03  0.7546771E-02  0.1164718E+00
         21   -1    0    0  503  502  0.00000000000E+00  0.00000000000E+00  0.56524328920E+02  0.56524328920E+02  0.00000000000E+00 0.  1.
          2   -1    0    0  504    0 -0.00000000000E+00 -0.00000000000E+00 -0.82381749774E+03  0.82381749774E+03  0.00000000000E+00 0. -1.
         21    1    1    2  503  501 -0.77965174564E+02 -0.75220938918E+01 -0.18803287193E+03  0.20369465203E+03  0.00000000000E+00 0. -1.
         21    1    1    2  504  505  0.11392546035E+03  0.17026826965E+02 -0.12926188563E+03  0.17314028540E+03  0.00000000000E+00 0.  1.
         21    1    1    2  505  502  0.56254093700E+02  0.22292095365E+02 -0.21765674675E+02  0.64305560940E+02  0.00000000000E+00 0.  1.
          2    1    1    2  501    0 -0.92214379484E+02 -0.31796828438E+02 -0.42823273659E+03  0.43920132829E+03  0.00000000000E+00 0. -1.
<scales pt_clust_3="49.28489" pt_clust_4="40.11987" pt_clust_5="40.11987" pt_clust_6="183.11729"></scales>
<clustering>
<clus scale="   40.120">  4  5 -1 -1</clus>
<clus scale="   49.285">  3  6 -1 -1</clus>
<clus scale="  183.117">  2  3  1 -1</clus>
<clus scale="  183.224">  1  3  2 -1</clus>
</clustering>
</event>
<event>
 6    0  0.1361744E+002  0.1021229E+03  0.7546771E-02  0.1275894E+00
         21   -1    0    0  503  502  0.00000000000E+00  0.00000000000E+00  0.29250480455E+02  0.29250480455E+02  0.00000000000E+00 0.  1.
          2   -1    0    0  504    0 -0.00000000000E+00 -0.00000000000E+00 -0.11318148985E+04  0.11318148985E+04  0.00000000000E+00 0.  1.
         21    1    1    2  503  505  0.40110449992E+02  0.85469623914E+01 -0.73115411087E+02  0.83831748778E+02  0.00000000000E+00 0.  1.
         21    1    1    2  504  502 -0.46675578093E+02 -0.33532052481E+02 -0.80442760313E+02  0.98863774057E+02  0.00000000000E+00 0.  1.
         21    1    1    2  505  501 -0.66352472647E+02  0.91912046307E+02 -0.27992216457E+03  0.30200478986E+03  0.00000000000E+00 0.  1.
          2    1    1    2  501    0  0.72917600748E+02 -0.66926956218E+02 -0.66908408203E+03  0.67636506621E+03  0.00000000000E+00 0.  1.
<scales pt_clust_3="41.01096" pt_clust_4="43.45730" pt_clust_5="102.12290" pt_clust_6="14000.00000"></scales>
<clustering>
<clus scale="   41.011">  1  3  2 -1</clus>
<clus scale="   43.457">  1  4  2 -1</clus>
<clus scale="  102.123">  1  5  2 -1</clus>
<clus scale="   41.011">  1  3  2 -1</clus>
</clustering>
</event>
<event>
 6    0  0.1361744E+002  0.1299249E+03  0.7546771E-02  0.1227567E+00
          2   -1    0    0  504    0 -0.00000000000E+00  0.00000000000E+00  0.28882028053E+04  0.28882028053E+04  0.00000000000E+00 0. -1.
         21   -1    0    0  505  502  0.00000000000E+00 -0.00000000000E+00 -0.64308726500E+02  0.64308726500E+02  0.00000000000E+00 0.  1.
         21    1    1    2  503  501 -0.50262668435E+02 -0.42046730461E+02  0.33486823279E+02  0.73590968970E+02  0.00000000000E+00 0.  1.
         21    1    1    2  504  502  0.89243494833E+02 -0.89274881139E+01  0.19523708620E+03  0.21485255699E+03  0.00000000000E+00 0. -1.
         21    1    1    2  505  503 -0.30756089533E+02 -0.72568715526E+02  0.14147123934E+02  0.80076817070E+02  0.00000000000E+00 0.  1.
          2    1    1    2  501    0 -0.82247368653E+01  0.12354293410E+03  0.25810230454E+04  0.25839911888E+04  0.00000000000E+00 0. -1.
<scales pt_clust_3="36.97174" pt_clust_4="89.68891" pt_clust_5="36.97174" pt_clust_6="123.43592"></scales>
<clustering>
<clus scale="   36.972">  3  5 -1 -1</clus>
<clus scale="   89.689">  2  4  1 -1</clus>
<clus scale="  123.436">  1  6  2 -1</clus>
<clus scale="   89.689">  2  3  1 -1</clus>
</clustering>
</event>
<event>
 6    0  0.1361744E+002  0.9883186E+02  0.7546771E-02  0.1282772E+00
         21   -1    0    0  503  502  0.00000000000E+00  0.00000000000E+00  0.11712243861E+02  0.11712243861E+02  0.00000000000E+00 0. -1.
          2   -1    0    0  505    0 -0.00000000000E+00 -0.00000000000E+00 -0.41958920054E+04  0.41958920054E+04  0.00000000000E+00 0.  1.
         21    1    1    2  503  501  0.13206039011E+02  0.47629566706E+02 -0.42057088767E+03  0.42346528387E+03  0.00000000000E+00 0. -1.
         21    1    1    2  504  502 -0.43727260888E+02  0.46700651897E+02 -0.15708956625E+03  0.16961767613E+03  0.00000000000E+00 0. -1.
         21    1    1    2  505  504  0.76224169225E+02  0.15051889143E+02 -0.52455175309E+03  0.53027466940E+03  0.00000000000E+00 0. -1.
          2    1    1    2  501    0 -0.45702947349E+02 -0.10938210775E+03 -0.30819675545E+04  0.30842466198E+04  0.00000000000E+00 0.  1.
<scales pt_clust_3="49.42646" pt_clust_4="83.74179" pt_clust_5="98.83186" pt_clust_6="14000.00000"></scales>
<clustering>
<clus scale="   49.426">  1  3  2 -1</clus>
<clus scale="   83.742">  1  4  2 -1</clus>
<clus scale="   98.832">  1  5  2 -1</clus>
<clus scale="   49.426">  1  3  2 -1</clus>
</clustering>
</event>
<event>
 6    0  0.1361744E+002  0.7979401E+02  0.7546771E-02  0.1329637E+00
         21   -1    0    0  503  502  0.00000000000E+00  0.00000000000E+00  0.10399859379E+04  0.10399859379E+04  0.00000000000E+00 0.  1.
          2   -1    0    0  505    0 -0.00000000000E+00 -0.00000000000E+00 -0.18131696645E+03  0.18131696645E+03  0.00000000000E+00 0.  1.
         21    1    1    2  503  501  0.49122055594E+02  0.62918557216E+02  0.98187252878E+03  0.98511186368E+03  0.00000000000E+00 0.  1.
         21    1    1    2  504  502 -0.18265766769E+02  0.36191624959E+02 -0.28024643140E+02  0.49283390467E+02  0.00000000000E+00 0.  1.
         21    1    1    2  505  504 -0.33752309740E+02  0.10188861420E+01  0.15907390054E+02  0.37326955409E+02  0.00000000000E+00 0.  1.
          2    1    1    2  501    0  0.28960209152E+01 -0.10012906832E+03 -0.11108630425E+03  0.14958069478E+03  0.00000000000E+00 0.  1.
<scales pt_clust_3="79.79401" pt_clust_4="44.69985" pt_clust_5="33.76768" pt_clust_6="14000.00000"></scales>
<clustering>
<clus scale="   33.768">  2  5  1 -1</clus>
<clus scale="   44.700">  2  4  1 -1</clus>
<clus scale="   79.794">  1  3  2 -1</clus>
<clus scale="   79.794">  1  3  2 -1</clus>
</clustering>
</event>
<event>
 6    0  0.1361744E+002  0.7923957E+02  0.7546771E-02  0.1331223E+00
          2   -1    0    0  505    0 -0.00000000000E+00  0.00000000000E+00  0.51015989862E+03  0.51015989862E+03  0.00000000000E+00 0.  1.
         21   -1    0    0  503  502  0.00000000000E+00 -0.00000000000E+00 -0.14734571162E+03  0.14734571162E+03  0.00000000000E+00 0.  1.
         21    1    1    2  503  504 -0.65641303038E+02  0.45963835718E+02 -0.50174726313E+02  0.94546062949E+02  0.00000000000E+00 0.  1.
         21    1    1    2  504  501  0.73072068413E+02  0.58953787478E+01  0.11524625683E+03  0.13658690415E+03  0.00000000000E+00 0.  1.
         21    1    1    2  505  502  0.28182759913E+02 -0.83077592778E+02 -0.31898335642E+02  0.93346977427E+02  0.00000000000E+00 0.  1.
          2    1    1    2  501    0 -0.35613525288E+02  0.31218378312E+02  0.32964099213E+03  0.33302566571E+03  0.00000000000E+00 0.  1.
<scales pt_clust_3="14000.00000" pt_clust_4="55.50416" pt_clust_5="79.23957" pt_clust_6="47.35937"></scales>
<clustering>
<clus scale="   47.359">  1  6  2 -1</clus>
<clus scale="   55.504">  1  4  2 -1</clus>
<clus scale="   79.240">  1  5  2 -1</clus>
<clus scale="   79.240">  2  3  1 -1</clus>
</clustering>
</event>
<event>
 6    0  0.1361744E+002  0.1342627E+03  0.7546771E-02  0.1221264E+00
         21   -1    0    0  503  502  0.00000000000E+00  0.00000000000E+00  0.37725987404E+03  0.37725987404E+03  0.00000000000E+00 0.  1.
          2   -1    0    0  505    0 -0.00000000000E+00 -0.00000000000E+00 -0.13339347334E+03  0.13339347334E+03  0.00000000000E+00 0.  1.
         21    1    1    2  503  501 -0.42259989374E+02 -0.37833870119E+02  0.10541451131E+03  0.11970600496E+03  0.00000000000E+00 0.  1.
         21    1    1    2  504  502  0.31199219876E+02  0.65276964100E+02 -0.50276856155E+02  0.88103550597E+02  0.00000000000E+00 0.  1.
         21    1    1    2  505  504  0.60041374761E+02  0.14158643820E+02 -0.34409451781E+02  0.70635998258E+02  0.00000000000E+00 0.  1.
          2    1    1    2  501    0 -0.48980605263E+02 -0.41601737801E+02  0.22313819733E+03  0.23220779356E+03  0.00000000000E+00 0.  1.
<scales pt_clust_3="33.36935" pt_clust_4="53.77567" pt_clust_5="53.77567" pt_clust_6="126.08108"></scales>
<clustering>
<clus scale="   33.369">  3  6 -1 -1</clus>
<clus scale="   53.776">  4  5 -1 -1</clus>
<clus scale="  126.081">  1  3  2 -1</clus>
<clus scale="  126.081">  1  3  2 -1</clus>
</clustering>
</event>
<event>
 6    0  0.1361744E+002  0.1458512E+03  0.7546771E-02  0.1205666E+00
          3   -1    0    0  504    0 -0.00000000000E+00  0.00000000000E+00  0.23271986529E+03  0.23271986529E+03  0.00000000000E+00 0.  1.
         21   -1    0    0  501  502  0.00000000000E+00 -0.00000000000E+00 -0.94012708164E+03  0.94012708164E+03  0.00000000000E+00 0.  1.
         21    1    1    2  503  505 -0.39837207728E+02 -0.79459387104E+02 -0.41917195987E+03  0.42849262451E+03  0.00000000000E+00 0.  1.
         21    1    1    2  504  503 -0.47298487393E+02  0.61607438257E+02 -0.81631146001E+01  0.78097757959E+02  0.00000000000E+00 0.  1.
         21    1    1    2  505  502 -0.19054570353E+02 -0.48427262048E+02 -0.45122309596E+03  0.45421422114E+03  0.00000000000E+00 0.  1.
          3    1    1    2  501    0  0.10619026547E+03  0.66279210895E+02  0.17115095408E+03  0.21204234332E+03  0.00000000000E+00 0.  1.
<scales pt_clust_3="32.10584" pt_clust_4="77.66996" pt_clust_5="32.10584" pt_clust_6="139.68530"></scales>
<clustering>
<clus scale="   32.106">  3  5 -1 -1</clus>
<clus scale="   77.670">  1  4  2 -1</clus>
<clus scale="  139.685">  1  6  2 -1</clus>
<clus scale="  145.851">  2  3  1 -1</clus>
</clustering>
</event>
<event>
 6    0  0.1361744E+002  0.1182571E+03  0.7546771E-02  0.1246000E+00
         21   -1    0    0  503  502  0.00000000000E+00  0.00000000000E+00  0.36569482791E+03  0.36569482791E+03  0.00000000000E+00 0. -1.
          2   -1    0    0  505    0 -0.00000000000E+00 -0.00000000000E+00 -0.65694396880E+03  0.65694396880E+03  0.00000000000E+00 0. -1.
         21    1    1    2  503  501 -0.19966796910E+02  0.75135346525E+02  0.28234439744E+03  0.29285209926E+03  0.00000000000E+00 0. -1.
         21    1    1    2  504  502 -0.69943634147E+02  0.80332041349E+01  0.49632717987E+02  0.86139718024E+02  0.00000000000E+00 0. -1.
         21    1    1    2  505  504  0.35350830726E+01 -0.51969302052E+02 -0.10349545424E+03  0.11586463747E+03  0.00000000000E+00 0. -1.
          2    1    1    2  501    0  0.86375347985E+02 -0.31199248607E+02 -0.51973080208E+03  0.52778234195E+03  0.00000000000E+00 0. -1.
<scales pt_clust_3="118.25705" pt_clust_4="70.10934" pt_clust_5="52.08940" pt_clust_6="14000.00000"></scales>
<clustering>
<clus scale="   52.089">  2  5  1 -1</clus>
<clus scale="   70.109">  1  4  2 -1</clus>
<clus scale="  118.257">  1  3  2 -1</clus>
<clus scale="   70.109">  1  3  2 -1</clus>
</clustering>
</event>
<event>
 6    0  0.1361744E+002  0.1040349E+03  0.7546771E-02  0.1272033E+00
         21   -1    0    0  504  502  0.00000000000E+00  0.00000000000E+00  0.24301258581E+03  0.24301258581E+03  0.00000000000E+00 0.  1.
          2   -1    0    0  503    0 -0.00000000000E+00 -0.00000000000E+00 -0.25250168422E+03  0.25250168422E+03  0.00000000000E+00 0.  1.
         21    1    1    2  503  502 -0.13093693162E+03 -0.86613027057E+02 -0.14174911628E+03  0.21151621329E+03  0.00000000000E+00 0.  1.
         21    1    1    2  504  505  0.54364813240E+02 -0.18935352263E+02  0.97905857874E+02  0.11357657104E+03  0.00000000000E+00 0.  1.
         21    1    1    2  505  501  0.19070323576E+02  0.66572828163E+02  0.64556224914E+02  0.94673781302E+02  0.00000000000E+00 0. -1.
          2    1    1    2  501    0  0.57501794808E+02  0.38975551156E+02 -0.30202064922E+02  0.75747704385E+02  0.00000000000E+00 0.  1.
<scales pt_clust_3="14000.00000" pt_clust_4="57.56805" pt_clust_5="75.17166" pt_clust_6="104.03485"></scales>
<clustering>
<clus scale="   57.568">  1  4  2 -1</clus>
<clus scale="   75.172">  1  5  2 -1</clus>
<clus scale="  104.035">  2  6  1 -1</clus>
<clus scale="   57.568">  1  3  2 -1</clus>
</clustering>
</event>
<event>
 6    0  0.1361744E+002  0.2421048E+03  0.7546771E-02  0.1118399E+00
          1   -1    0    0  505    0 -0.00000000000E+00  0.00000000000E+00  0.74564073582E+03  0.74564073582E+03  0.00000000000E+00 0. -1.
         21   -1    0    0  504  502  0.00000000000E+00 -0.00000000000E+00 -0.60590384930E+03  0.60590384930E+03  0.00000000000E+00 0.  1.
         21    1    1    2  503  501  0.94620307352E+02 -0.58167341779E+02 -0.22319577373E+03  0.24930462415E+03  0.00000000000E+00 0.  1.
         21    1    1    2  504  503  0.30290044709E+02 -0.12674030293E+03 -0.33757433597E+03  0.36185221224E+03  0.00000000000E+00 0.  1.
         21    1    1    2  505  502  0.29174812113E+01  0.34256722777E+02  0.51087243001E+02  0.61578739428E+02  0.00000000000E+00 0.  1.
          1    1    1    2  501    0 -0.12782783327E+03  0.15065092193E+03  0.64941975322E+03  0.67880900930E+03  0.00000000000E+00 0. -1.
<scales pt_clust_3="88.90245" pt_clust_4="88.90245" pt_clust_5="34.38073" pt_clust_6="222.16801"></scales>
<clustering>
<clus scale="   34.381">  1  5  2 -1</clus>
<clus scale="   88.902">  3  4 -1 -1</clus>
<clus scale="  222.168">  1  6  2 -1</clus>
<clus scale="  242.105">  2  3  1 -1</clus>
</clustering>
</event>
<event>
 6    0  0.1361744E+002  0.1055709E+03  0.7546771E-02  0.1268999E+00
          3   -1    0    0  503    0 -0.00000000000E+00  0.00000000000E+00  0.21227223862E+04  0.21227223862E+04  0.00000000000E+00 0.  1.
         21   -1    0    0  504  502  0.00000000000E+00 -0.00000000000E+00 -0.12664841766E+03  0.12664841766E+03  0.00000000000E+00 0. -1.
         21    1    1    2  503  505  0.98268014752E+02 -0.46354558780E+01  0.14746479955E+03  0.17726803796E+03  0.00000000000E+00 0.  1.
         21    1    1    2  504  501  0.22323136596E+02  0.34848655515E+02  0.11656292409E+04  0.11663636990E+04  0.00000000000E+00 0.  1.
         21    1    1    2  505  502 -0.96688943869E+02 -0.49480785395E+02 -0.84520009559E+02  0.13762533199E+03  0.00000000000E+00 0. -1.
          3    1    1    2  501    0 -0.23902207480E+02  0.19267585758E+02  0.76749993766E+03  0.76811373487E+03  0.00000000000E+00 0.  1.
<scales pt_clust_3="105.57088" pt_clust_4="51.45961" pt_clust_5="14000.00000" pt_clust_6="30.70106"></scales>
<clustering>
<clus scale="   30.701">  1  6  2 -1</clus>
<clus scale="   51.460">  1  4  2 -1</clus>
<clus scale="  105.571">  1  3  2 -1</clus>
<clus scale="  105.571">  2  3  1 -1</clus>
</clustering>
</event>
<event>
 6    0  0.1361744E+002  0.1904460E+03  0.7546771E-02  0.1158060E+00
         21   -1    0    0  501  502  0.00000000000E+00  0.00000000000E+00  0.31258872668E+03  0.31258872668E+03  0.00000000000E+00 0.  1.
          2   -1    0    0  504    0 -0.00000000000E+00 -0.00000000000E+00 -0.64725707765E+03  0.64725707765E+03  0.00000000000E+00 0.  1.
         21    1    1    2  503  505  0.37582769914E+01 -0.12979894266E+03  0.23150453119E+03  0.26543593978E+03  0.00000000000E+00 0.  1.
         21    1    1    2  504  503  0.14420433206E+02  0.27038471342E+02 -0.25820323856E+02  0.40071398158E+02  0.00000000000E+00 0. -1.
         21    1    1    2  505  502 -0.11150398422E+02 -0.50324646308E+02  0.32770905230E+02  0.61080550428E+02  0.00000000000E+00 0. -1.
          2    1    1    2  501    0 -0.70283117754E+01  0.15308511762E+03 -0.57312346353E+03  0.59325791597E+03  0.00000000000E+00 0.  1.
<scales pt_clust_3="41.02511" pt_clust_4="30.64356" pt_clust_5="41.02511" pt_clust_6="178.87793"></scales>
<clustering>
<clus scale="   30.644">  2  4  1 -1</clus>
<clus scale="   41.025">  3  5 -1 -1</clus>
<clus scale="  178.878">  2  6  1 -1</clus>
<clus scale="  190.446">  1  3  2 -1</clus>
</clustering>
</event>
<event>
 6    0  0.1361744E+002  0.1096735E+03  0.7546771E-02  0.1261176E+00
         21   -1    0    0  505  502  0.00000000000E+00  0.00000000000E+00  0.13186778831E+04  0.13186778831E+04  0.00000000000E+00 0. -1.
          2   -1    0    0  502    0 -0.00000000000E+00 -0.00000000000E+00 -0.20177594173E+02  0.20177594173E+02  0.00000000000E+00 0. -1.
         21    1    1    2  503  501 -0.78179605639E+01  0.39020129260E+02  0.10914562456E+03  0.11617425858E+03  0.00000000000E+00 0.  1.
         21    1    1    2  504  503  0.67418499287E+02 -0.10139043728E+03  0.72065002109E+03  0.73086368614E+03  0.00000000000E+00 0. -1.
         21    1    1    2  505  504 -0.34880631193E+02  0.79175665076E+01  0.39629667932E+03  0.39790753239E+03  0.00000000000E+00 0.  1.
          2    1    1    2  501    0 -0.24719907530E+02  0.54452741514E+02  0.72407963932E+02  0.93910000146E+02  0.00000000000E+00 0. -1.
<scales pt_clust_3="30.28001" pt_clust_4="103.20111" pt_clust_5="35.76795" pt_clust_6="30.28001"></scales>
<clustering>
<clus scale="   30.280">  3  6 -1 -1</clus>
<clus scale="   35.768">  1  5  2 -1</clus>
<clus scale="  103.201">  1  4  2 -1</clus>
<clus scale="   35.768">  1  3  2 -1</clus>
</clustering>
</event>
<event>
 6    0  0.1361744E+002  0.1447000E+03  0.7546771E-02  0.1207141E+00
         21   -1    0    0  503  502  0.00000000000E+00  0.00000000000E+00  0.52237037634E+02  0.52237037634E+02  0.00000000000E+00 0. -1.
         -1   -1    0    0    0  501 -0.00000000000E+00 -0.00000000000E+00 -0.13308701811E+04  0.13308701811E+04  0.00000000000E+00 0.  1.
         21    1    1    2  503  505 -0.35608388745E+02  0.82271603656E+02 -0.23078216290E+02  0.92569855700E+02  0.00000000000E+00 0. -1.
         21    1    1    2  504  502 -0.22122950263E+02 -0.45189257733E+02 -0.36653802825E+03  0.36997516146E+03  0.00000000000E+00 0. -1.
         21    1    1    2  505  501  0.11550785388E+02  0.44196440428E+02 -0.26129861664E+02  0.52626187969E+02  0.00000000000E+00 0. -1.
         -1    1    1    2    0  504  0.46180553620E+02 -0.81278786351E+02 -0.86288703729E+03  0.86793601363E+03  0.00000000000E+00 0.  1.
<scales pt_clust_3="136.60328" pt_clust_4="48.47076" pt_clust_5="32.61483" pt_clust_6="48.47076"></scales>
<clustering>
<clus scale="   32.615">  3  5 -1 -1</clus>
<clus scale="   48.471">  4  6 -1 -1</clus>
<clus scale="  136.603">  1  3  2 -1</clus>
<clus scale="  136.603">  1  3  2 -1</clus>
</clustering>
</event>
<event>
 6    0  0.1361744E+002  0.1181350E+03  0.7546771E-02  0.1246206E+00
         21   -1    0    0  504  502  0.00000000000E+00  0.00000000000E+00  0.38795658963E+02  0.38795658963E+02  0.00000000000E+00 0.  1.
          1   -1    0    0  503    0 -0.00000000000E+00 -0.00000000000E+00 -0.11494732674E+04  0.11494732674E+04  0.00000000000E+00 0.  1.
         21    1    1    2  503  505 -0.11755696112E+02 -0.57349450564E+02 -0.16290164130E+03  0.17310141712E+03  0.00000000000E+00 0.  1.
         21    1    1    2  504  501  0.12034897033E+03 -0.60959954063E+02 -0.29285661622E+03  0.32243602206E+03  0.00000000000E+00 0. -1.
         21    1    1    2  505  502 -0.72396431051E+02 -0.17996319827E+02 -0.13746139149E+03  0.15639931236E+03  0.00000000000E+00 0.  1.
          1    1    1    2  501    0 -0.36196843168E+02  0.13630572445E+03 -0.51745795945E+03  0.53633217485E+03  0.00000000000E+00 0.  1.
<scales pt_clust_3="58.54192" pt_clust_4="118.13502" pt_clust_5="78.77657" pt_clust_6="14000.00000"></scales>
<clustering>
<clus scale="   58.542">  2  3  1 -1</clus>
<clus scale="   78.777">  1  5  2 -1</clus>
<clus scale="  118.135">  1  4  2 -1</clus>
<clus scale="   78.777">  1  3  2 -1</clus>
</clustering>
</event>
<event>
 6    0  0.1361744E+002  0.1450780E+03  0.7546771E-02  0.1206655E+00
         -2   -1    0    0    0  501 -0.00000000000E+00  0.00000000000E+00  0.71483688737E+03  0.71483688737E+03  0.00000000000E+00 0. -1.
         21   -1    0    0  503  502  0.00000000000E+00 -0.00000000000E+00 -0.63082100818E+02  0.63082100818E+02  0.00000000000E+00 0.  1.
         21    1    1    2  503  504  0.11697562350E+02 -0.33780433388E+02 -0.70703724066E+01  0.36440922200E+02  0.00000000000E+00 0.  1.
         21    1    1    2  504  501 -0.25775019106E+02 -0.99052587860E+02  0.46890716299E+02  0.11258110875E+03  0.00000000000E+00 0.  1.
         21    1    1    2  505  502  0.28141434036E+02  0.61570039504E+02  0.21617878330E+03  0.22653051985E+03  0.00000000000E+00 0. -1.
         -2    1    1    2    0  505 -0.14063977280E+02  0.71262981744E+02  0.39575565936E+03  0.40236643739E+03  0.00000000000E+00 0. -1.
<scales pt_clust_3="31.15557" pt_clust_4="143.60329" pt_clust_5="54.65190" pt_clust_6="54.65190"></scales>
<clustering>
<clus scale="   31.156">  3  4 -1 -1</clus>
<clus scale="   54.652">  5  6 -1 -1</clus>
<clus scale="  143.603">  2  3  1 -1</clus>
<clus scale="  143.603">  2  3  1 -1</clus>
</clustering>
</event>
<event>
 6    0  0.1361744E+002  0.8439599E+02  0.7546771E-02  0.1317020E+00
         21   -1    0    0  503  502  0.00000000000E+00  0.00000000000E+00  0.23178557990E+03  0.23178557990E+03  0.00000000000E+00 0. -1.
          2   -1    0    0  505    0 -0.00000000000E+00 -0.00000000000E+00 -0.13718293039E+04  0.13718293039E+04  0.00000000000E+00 0. -1.
         21    1    1    2  503  504 -0.42299006621E+02 -0.14357409734E+02 -0.44634474132E+02  0.63147268004E+02  0.00000000000E+00 0. -1.
         21    1    1    2  504  501 -0.47643314994E+02 -0.45169718320E+02 -0.88839672107E+03  0.89081924257E+03  0.00000000000E+00 0. -1.
         21    1    1    2  505  502  0.12848532182E+03  0.16666796621E+02  0.20015073675E+03  0.23842520306E+03  0.00000000000E+00 0. -1.
          2    1    1    2  501    0 -0.38543000210E+02  0.42860331434E+02 -0.40716326550E+03  0.41122317013E+03  0.00000000000E+00 0. -1.
<scales pt_clust_3="44.66924" pt_clust_4="14000.00000" pt_clust_5="84.39599" pt_clust_6="57.80358"></scales>
<clustering>
<clus scale="   44.669">  1  3  2 -1</clus>
<clus scale="   57.804">  2  6  1 -1</clus>
<clus scale="   84.396">  1  5  2 -1</clus>
<clus scale="   44.669">  1  3  2 -1</clus>
</clustering>
</event>
<event>
 6    0  0.1361744E+002  0.2472885E+03  0.7546771E-02  0.1115030E+00
          2   -1    0    0  504    0 -0.00000000000E+00  0.00000000000E+00  0.14199564229E+04  0.14199564229E+04  0.00000000000E+00 0. -1.
         21   -1    0    0  505  502  0.00000000000E+00 -0.00000000000E+00 -0.19789029454E+03  0.19789029454E+03  0.00000000000E+00 0.  1.
         21    1    1    2  503  502  0.63314610091E+02 -0.15110062901E+03 -0.12176492964E+02  0.16428148685E+03  0.00000000000E+00 0.  1.
         21    1    1    2  504  503  0.55397248325E+02  0.31716973101E+03  0.39224706522E+03  0.50746749015E+03  0.00000000000E+00 0.  1.
         21    1    1    2  505  501  0.36376558962E+02  0.12101683651E+02 -0.26139481306E+02  0.46400186121E+02  0.00000000000E+00 0. -1.
          2    1    1    2  501    0 -0.15508841738E+03 -0.17817078564E+03  0.86813503743E+03  0.89969755434E+03  0.00000000000E+00 0. -1.
<scales pt_clust_3="166.72220" pt_clust_4="247.28853" pt_clust_5="38.33673" pt_clust_6="14000.00000"></scales>
<clustering>
<clus scale="   38.337">  2  5  1 -1</clus>
<clus scale="  166.722">  2  3  1 -1</clus>
<clus scale="  247.289">  2  4  1 -1</clus>
<clus scale="   38.337">  2  3  1 -1</clus>
</clustering>
</event>
<event>
 6    0  0.1361744E+002  0.1554302E+03  0.7546771E-02  0.1193955E+00
         21   -1    0    0  503  502  0.00000000000E+00  0.00000000000E+00  0.62118247071E+02  0.62118247071E+02  0.00000000000E+00 0.  1.
          2   -1    0    0  504    0 -0.00000000000E+00 -0.00000000000E+00 -0.23481731697E+04  0.23481731697E+04  0.00000000000E+00 0. -1.
         21    1    1    2  503  505 -0.83905210049E+02  0.38579158165E+02 -0.21732680930E+02  0.94872256949E+02  0.00000000000E+00 0.  1.
         21    1    1    2  504  502  0.27033674951E+02 -0.23956323198E+02 -0.91207614850E+02  0.98099714623E+02  0.00000000000E+00 0. -1.
         21    1    1    2  505  501 -0.65818885647E+02  0.58137460422E+02 -0.78306848320E+02  0.11766075177E+03  0.00000000000E+00 0.  1.
          2    1    1    2  501    0  0.12269042075E+03 -0.72760295389E+02 -0.20948077786E+04  0.20996586935E+04  0.00000000000E+00 0. -1.
<scales pt_clust_3="56.43443" pt_clust_4="36.12098" pt_clust_5="56.43443" pt_clust_6="144.10957"></scales>
<clustering>
<clus scale="   36.121">  1  4  2 -1</clus>
<clus scale="   56.434">  3  5 -1 -1</clus>
<clus scale="  144.110">  2  6  1 -1</clus>
<clus scale="   36.121">  1  3  2 -1</clus>
</clustering>
</event>
<event>
 6    0  0.1361744E+002  0.1676716E+03  0.7546771E-02  0.1180298E+00
         -3   -1    0    0    0  501 -0.00000000000E+00  0.00000000000E+00  0.43785425259E+03  0.43785425259E+03  0.00000000000E+00 0.  1.
         21   -1    0    0  503  502  0.00000000000E+00 -0.00000000000E+00 -0.10160050828E+04  0.10160050828E+04  0.00000000000E+00 0.  1.
         21    1    1    2  503  505  0.65138634981E+02  0.32359229659E+02 -0.20275878838E+02  0.75506773034E+02  0.00000000000E+00 0.  1.
         21    1    1    2  504  502 -0.12216222171E+03  0.11623343594E+03 -0.93542946956E+03  0.95050624015E+03  0.00000000000E+00 0.  1.
         21    1    1    2  505  501  0.36078884007E+02  0.12887527480E+02  0.77708291910E+02  0.86639210912E+02  0.00000000000E+00 0.  1.
         -3    1    1    2    0  504  0.20944702720E+02 -0.16148019307E+03  0.29984622633E+03  0.34120711125E+03  0.00000000000E+00 0.  1.
<scales pt_clust_3="75.68818" pt_clust_4="14000.00000" pt_clust_5="38.31154" pt_clust_6="167.67156"></scales>
<clustering>
<clus scale="   38.312">  1  5  2 -1</clus>
<clus scale="   75.688">  1  3  2 -1</clus>
<clus scale="  167.672">  1  6  2 -1</clus>
<clus scale="  167.672">  2  3  1 -1</clus>
</clustering>
</event>
<event>
 6    0  0.1361744E+002  0.1191777E+03  0.7546771E-02  0.1244460E+00
          1   -1    0    0  504    0 -0.00000000000E+00  0.00000000000E+00  0.15854486519E+04  0.15854486519E+04  0.00000000000E+00 0.  1.
         21   -1    0    0  503  502  0.00000000000E+00 -0.00000000000E+00 -0.59809413647E+02  0.59809413647E+02  0.00000000000E+00 0.  1.
         21    1    1    2  503  501 -0.73210919841E+01  0.46547110607E+02 -0.14050185772E+02  0.49169498817E+02  0.00000000000E+00 0.  1.
         21    1    1    2  504  505 -0.76932837170E+02 -0.12573983430E+03  0.57476635999E+03  0.59336795999E+03  0.00000000000E+00 0. -1.
         21    1    1    2  505  502  0.27170084019E+02 -0.14536833759E+02 -0.75782883158E+00  0.30823810697E+02  0.00000000000E+00 0. -1.
          1    1    1    2  501    0  0.57083845135E+02  0.93729557447E+02  0.96568089283E+03  0.97189679601E+03  0.00000000000E+00 0.  1.
<scales pt_clust_3="38.11026" pt_clust_4="119.17765" pt_clust_5="30.81449" pt_clust_6="14000.00000"></scales>
<clustering>
<clus scale="   30.814">  2  5  1 -1</clus>
<clus scale="   38.110">  2  3  1 -1</clus>
<clus scale="  119.178">  2  4  1 -1</clus>
<clus scale="   30.814">  2  3  1 -1</clus>
</clustering>
</event>
<event>
 6    0  0.1361744E+002  0.1569975E+03  0.7546771E-02  0.1192129E+00
          2   -1    0    0  505    0 -0.00000000000E+00  0.00000000000E+00  0.52571436223E+03  0.52571436223E+03  0.00000000000E+00 0. -1.
         21   -1    0    0  503  502  0.00000000000E+00 -0.00000000000E+00 -0.34475279494E+03  0.34475279494E+03  0.00000000000E+00 0. -1.
         21    1    1    2  503  504  0.92943748221E+02  0.12239713582E+03 -0.29518438394E+03  0.33279636373E+03  0.00000000000E+00 0. -1.
         21    1    1    2  504  501 -0.31807146947E+02 -0.49510997905E+01  0.23158695859E+03  0.23381344567E+03  0.00000000000E+00 0.  1.
         21    1    1    2  505  502 -0.53262416588E+01 -0.83822838033E+02  0.47910423125E+02  0.96695634183E+02  0.00000000000E+00 0. -1.
          2    1    1    2  501    0 -0.55810359616E+02 -0.33623197997E+02  0.19664856951E+03  0.20716171359E+03  0.00000000000E+00 0. -1.
<scales pt_clust_3="150.79654" pt_clust_4="30.70746" pt_clust_5="83.99189" pt_clust_6="30.70746"></scales>
<clustering>
<clus scale="   30.707">  4  6 -1 -1</clus>
<clus scale="   83.992">  1  5  2 -1</clus>
<clus scale="  150.797">  2  3  1 -1</clus>
<clus scale="  150.797">  2  3  1 -1</clus>
</clustering>
</event>
<event>
 6    0  0.1361744E+002  0.1152449E+03  0.7546771E-02  0.1251154E+00
         21   -1    0    0  504  502  0.00000000000E+00  0.00000000000E+00  0.56100689727E+03  0.56100689727E+03  0.00000000000E+00 0. -1.
          2   -1    0    0  502    0 -0.00000000000E+00 -0.00000000000E+00 -0.10213250586E+04  0.10213250586E+04  0.00000000000E+00 0.  1.
         21    1    1    2  503  505 -0.59757032848E+02  0.49559697115E+02  0.33778677515E+03  0.34659338139E+03  0.00000000000E+00 0.  1.
         21    1    1    2  504  503 -0.35336786676E+02 -0.58031672003E+01  0.17972607390E+03  0.18325890669E+03  0.00000000000E+00 0. -1.
         21    1    1    2  505  501  0.19955744945E+03 -0.17915245202E+02 -0.26841890010E+03  0.33495199293E+03  0.00000000000E+00 0. -1.
          2    1    1    2  501    0 -0.10446362993E+03 -0.25841284713E+02 -0.70941211028E+03  0.71752767486E+03  0.00000000000E+00 0.  1.
<scales pt_clust_3="30.11727" pt_clust_4="30.11727" pt_clust_5="106.37183" pt_clust_6="107.61237"></scales>
<clustering>
<clus scale="   30.117">  3  4 -1 -1</clus>
<clus scale="  107.612">  2  6  1 -1</clus>
<clus scale="  106.372">  2  5  1 -1</clus>
<clus scale="  115.245">  1  3  2 -1</clus>
</clustering>
</event>
<event>
 6    0  0.1361744E+002  0.1292169E+03  0.7546771E-02  0.1228622E+00
         21   -1    0    0  505  502  0.00000000000E+00  0.00000000000E+00  0.81960701151E+03  0.81960701151E+03  0.00000000000E+00 0.  1.
          1   -1    0    0  504    0 -0.00000000000E+00 -0.00000000000E+00 -0.21612120144E+03  0.21612120144E+03  0.00000000000E+00 0. -1.
         21    1    1    2  503  502 -0.91027137260E+02 -0.92406103672E+01  0.13656426809E+03  0.16438104488E+03  0.00000000000E+00 0.  1.
         21    1    1    2  504  503 -0.55036875509E+02 -0.57172098769E+02 -0.25795875168E+02  0.83445393636E+02  0.00000000000E+00 0. -1.
         21    1    1    2  505  501  0.18092541398E+03  0.12138711726E+03  0.61331106335E+03  0.65086042904E+03  0.00000000000E+00 0.  1.
          1    1    1    2  501    0 -0.34861401209E+02 -0.54974408122E+02 -0.12059364620E+03  0.13704134539E+03  0.00000000000E+00 0. -1.
<scales pt_clust_3="98.24370" pt_clust_4="129.21691" pt_clust_5="14000.00000" pt_clust_6="65.09610"></scales>
<clustering>
<clus scale="   65.096">  2  6  1 -1</clus>
<clus scale="   98.244">  1  3  2 -1</clus>
<clus scale="  129.217">  2  4  1 -1</clus>
<clus scale="   98.244">  1  3  2 -1</clus>
</clustering>
</event>
<event>
 6    0  0.1361744E+002  0.4488959E+03  0.7546771E-02  0.1028052E+00
         -4   -1    0    0    0  501 -0.00000000000E+00  0.00000000000E+00  0.50543921411E+03  0.50543921411E+03  0.00000000000E+00 0.  1.
         21   -1    0    0  504  502  0.00000000000E+00 -0.00000000000E+00 -0.22772256837E+04  0.22772256837E+04  0.00000000000E+00 0.  1.
         21    1    1    2  503  501 -0.79504941710E+01  0.71055471784E+02  0.26583782247E+02  0.76280979979E+02  0.00000000000E+00 0. -1.
         21    1    1    2  504  505  0.59409726766E+02  0.12833419726E+03 -0.46273367138E+03  0.48386117064E+03  0.00000000000E+00 0.  1.
         21    1    1    2  505  503  0.26798743347E+03  0.11662643158E+03 -0.16490004775E+04  0.16747004400E+04  0.00000000000E+00 0.  1.
         -4    1    1    2    0  502 -0.31944666607E+03 -0.31601610063E+03  0.31336389701E+03  0.54782230720E+03  0.00000000000E+00 0.  1.
<scales pt_clust_3="71.49888" pt_clust_4="126.42981" pt_clust_5="126.42981" pt_clust_6="410.77367"></scales>
<clustering>
<clus scale="   71.499">  1  3  2 -1</clus>
<clus scale="  126.430">  4  5 -1 -1</clus>
<clus scale="  410.774">  1  6  2 -1</clus>
<clus scale="  448.896">  2  3  1 -1</clus>
</clustering>
</event>
<event>
 6    0  0.1361744E+002  0.9183084E+02  0.7546771E-02  0.1298478E+00
          1   -1    0    0  504    0 -0.00000000000E+00  0.00000000000E+00  0.30148673358E+04  0.30148673358E+04  0.00000000000E+00 0.  1.
         21   -1    0    0  505  502  0.00000000000E+00 -0.00000000000E+00 -0.19695184986E+03  0.19695184986E+03  0.00000000000E+00 0.  1.
         21    1    1    2  503  502  0.81812760907E+02  0.75428797702E+02 -0.13706053532E+03  0.17654580627E+03  0.00000000000E+00 0.  1.
         21    1    1    2  504  503  0.71359678925E+01 -0.43796275109E+02  0.10958169977E+03  0.11822514401E+03  0.00000000000E+00 0.  1.
         21    1    1    2  505  501 -0.50522334470E+02  0.11199364480E+02 -0.16699123030E+02  0.54376398879E+02  0.00000000000E+00 0. -1.
          1    1    1    2  501    0 -0.38426394329E+02 -0.42831887073E+02  0.28620934446E+04  0.28626718365E+04  0.00000000000E+00 0.  1.
<scales pt_clust_3="91.83084" pt_clust_4="44.37382" pt_clust_5="51.64264" pt_clust_6="14000.00000"></scales>
<clustering>
<clus scale="   44.374">  1  4  2 -1</clus>
<clus scale="   51.643">  2  5  1 -1</clus>
<clus scale="   91.831">  2  3  1 -1</clus>
<clus scale="   51.643">  2  3  1 -1</clus>
</clustering>
</event>
<event>
 6    0  0.2336125E+002  0.9020265E+02  0.7546771E-02  0.1302362E+00
          2   -1    0    0  503    0 -0.00000000000E+00  0.00000000000E+00  0.10167132775E+04  0.10167132775E+04  0.00000000000E+00 0.  1.
         21   -1    0    0  504  502  0.00000000000E+00 -0.00000000000E+00 -0.49296523961E+03  0.49296523961E+03  0.00000000000E+00 0. -1.
         21    1    1    2  503  505 -0.27273738335E+02  0.16824784979E+02  0.66611443962E+02  0.73918973607E+02  0.00000000000E+00 0.  1.
         21    1    1    2  504  501 -0.92714476212E+02  0.23470987183E+02 -0.45694439506E+03  0.46684584342E+03  0.00000000000E+00 0. -1.
         21    1    1    2  505  502  0.57535396898E+02  0.81675386880E+01  0.71572802518E+01  0.58551321462E+02  0.00000000000E+00 0. -1.
          2    1    1    2  501    0  0.62452817650E+02 -0.48463310850E+02  0.90692370872E+03  0.91036237860E+03  0.00000000000E+00 0.  1.
<scales pt_clust_3="32.04575" pt_clust_4="14000.00000" pt_clust_5="90.20265" pt_clust_6="48.57343"></scales>
<clustering>
<clus scale="   32.046">  1  3  2 -1</clus>
<clus scale="   48.573">  1  6  2 -1</clus>
<clus scale="   90.203">  1  5  2 -1</clus>
<clus scale="   90.203">  2  3  1 -1</clus>
</clustering>
</event>
<event>
 6    0  0.1361744E+002  0.8816194E+02  0.7546771E-02  0.1307365E+00
          2   -1    0    0  504    0 -0.00000000000E+00  0.00000000000E+00  0.60997937591E+03  0.60997937591E+03  0.00000000000E+00 0.  1.
         21   -1    0    0  503  502  0.00000000000E+00 -0.00000000000E+00 -0.26360152258E+03  0.26360152258E+03  0.00000000000E+00 0.  1.
         21    1    1    2  503  501  0.18587468561E+02 -0.30107794055E+02 -0.11520301339E+03  0.12051434580E+03  0.00000000000E+00 0.  1.
         21    1    1    2  504  505 -0.28455484830E+02  0.19412199800E+02  0.30192033584E+02  0.45805098078E+02  0.00000000000E+00 0.  1.
         21    1    1    2  505  502 -0.93506111318E+02 -0.15231692529E+02 -0.11589912493E+03  0.14969303414E+03  0.00000000000E+00 0.  1.
          2    1    1    2  501    0  0.10337412759E+03  0.25927286784E+02  0.54728795807E+03  0.55756842046E+03  0.00000000000E+00 0.  1.
<scales pt_clust_3="35.23720" pt_clust_4="34.44631" pt_clust_5="88.16194" pt_clust_6="14000.00000"></scales>
<clustering>
<clus scale="   34.446">  1  4  2 -1</clus>
<clus scale="   35.237">  2  3  1 -1</clus>
<clus scale="   88.162">  2  5  1 -1</clus>
<clus scale="   35.237">  2  3  1 -1</clus>
</clustering>
</event>
<event>
 6    0  0.1445340E+002  0.8346385E+02  0.7546771E-02  0.1319499E+00
         21   -1    0    0  505  502  0.00000000000E+00  0.00000000000E+00  0.88300456430E+03  0.88300456430E+03  0.00000000000E+00 0.  1.
          4   -1    0    0  504    0 -0.00000000000E+00 -0.00000000000E+00 -0.11437578956E+04  0.11437578956E+04  0.00000000000E+00 0.  1.
         21    1    1    2  503  501 -0.14983859860E+02  0.65578584806E+02 -0.10719527266E+02  0.68117362737E+02  0.00000000000E+00 0.  1.
         21    1    1    2  504  502 -0.25233254272E+02 -0.92047063890E+02  0.77368183653E+03  0.77954663957E+03  0.00000000000E+00 0.  1.
         21    1    1    2  505  503 -0.20540292268E+02 -0.30762790498E+02  0.71608862875E+02  0.80598276209E+02  0.00000000000E+00 0.  1.
          4    1    1    2  501    0  0.60757406399E+02  0.57231269583E+02 -0.10953245034E+04  0.10985001813E+04  0.00000000000E+00 0.  1.
<scales pt_clust_3="66.37158" pt_clust_4="14000.00000" pt_clust_5="36.98990" pt_clust_6="83.46385"></scales>
<clustering>
<clus scale="   36.990">  1  5  2 -1</clus>
<clus scale="   66.372">  1  3  2 -1</clus>
<clus scale="   83.464">  2  6  1 -1</clus>
<clus scale="   36.990">  1  3  2 -1</clus>
</clustering>
</event>
<event>
 6    0  0.1361744E+002  0.1519530E+03  0.7546771E-02  0.1198094E+00
          1   -1    0    0  504    0 -0.00000000000E+00  0.00000000000E+00  0.84230598376E+03  0.84230598376E+03  0.00000000000E+00 0. -1.
         21   -1    0    0  505  502  0.00000000000E+00 -0.00000000000E+00 -0.32001812015E+03  0.32001812015E+03  0.00000000000E+00 0.  1.
         21    1    1    2  503  502 -0.99298738163E+02 -0.11088987803E+03 -0.15110391301E+03  0.21210656986E+03  0.00000000000E+00 0.  1.
         21    1    1    2  504  503  0.34634545108E+02 -0.15326035476E+02  0.10777457839E+03  0.11423571607E+03  0.00000000000E+00 0. -1.
         21    1    1    2  505  501 -0.29486022217E+02  0.27439668339E+02 -0.12535337349E+03  0.13166559593E+03  0.00000000000E+00 0.  1.
          1    1    1    2  501    0  0.94150215272E+02  0.98776245171E+02  0.69097057173E+03  0.70431622205E+03  0.00000000000E+00 0. -1.
<scales pt_clust_3="151.95300" pt_clust_4="37.87399" pt_clust_5="40.12409" pt_clust_6="14000.00000"></scales>
<clustering>
<clus scale="   37.874">  1  4  2 -1</clus>
<clus scale="   40.124">  2  5  1 -1</clus>
<clus scale="  151.953">  2  3  1 -1</clus>
<clus scale="   40.124">  2  3  1 -1</clus>
</clustering>
</event>
<event>
 6    0  0.1361744E+002  0.1124501E+03  0.7546771E-02  0.1256099E+00
          2   -1    0    0  503    0 -0.00000000000E+00  0.00000000000E+00  0.17348125666E+04  0.17348125666E+04  0.00000000000E+00 0. -1.
         21   -1    0    0  504  502  0.00000000000E+00 -0.00000000000E+00 -0.56499335820E+02  0.56499335820E+02  0.00000000000E+00 0.  1.
         21    1    1    2  503  505 -0.34753182604E+02 -0.15723172494E+02  0.30280315124E+03  0.30519624875E+03  0.00000000000E+00 0. -1.
         21    1    1    2  504  501  0.85858551253E+01 -0.69898142327E+02 -0.20356335090E+02  0.73306531682E+02  0.00000000000E+00 0.  1.
         21    1    1    2  505  502  0.32716476513E+02 -0.38199252272E+02  0.10970255470E+03  0.12068223240E+03  0.00000000000E+00 0.  1.
          2    1    1    2  501    0 -0.65491490342E+01  0.12382056709E+03  0.12861638599E+04  0.12921268896E+04  0.00000000000E+00 0. -1.
<scales pt_clust_3="38.14449" pt_clust_4="112.45014" pt_clust_5="49.52387" pt_clust_6="14000.00000"></scales>
<clustering>
<clus scale="   38.144">  1  3  2 -1</clus>
<clus scale="   49.524">  2  5  1 -1</clus>
<clus scale="  112.450">  2  4  1 -1</clus>
<clus scale="   49.524">  2  3  1 -1</clus>
</clustering>
</event>
<event>
 6    0  0.1361744E+002  0.1495910E+03  0.7546771E-02  0.1200977E+00
          1   -1    0    0  504    0 -0.00000000000E+00  0.00000000000E+00  0.15464266970E+04  0.15464266970E+04  0.00000000000E+00 0.  1.
         21   -1    0    0  503  502  0.00000000000E+00 -0.00000000000E+00 -0.22713870610E+02  0.22713870610E+02  0.00000000000E+00 0.  1.
         21    1    1    2  503  505  0.43755681184E+02  0.22256519987E+02  0.62038498754E+02  0.79111867917E+02  0.00000000000E+00 0.  1.
         21    1    1    2  504  502 -0.37264035088E+02  0.24217468477E+02  0.18573507192E+03  0.19097803809E+03  0.00000000000E+00 0.  1.
         21    1    1    2  505  501  0.92415475814E+02  0.28381951776E+02  0.29831899588E+03  0.31359269548E+03  0.00000000000E+00 0.  1.
          1    1    1    2  501    0 -0.98907121910E+02 -0.74855940239E+02  0.97762025981E+03  0.98545796610E+03  0.00000000000E+00 0.  1.
<scales pt_clust_3="40.63979" pt_clust_4="44.44203" pt_clust_5="40.63979" pt_clust_6="138.29295"></scales>
<clustering>
<clus scale="   40.640">  3  5 -1 -1</clus>
<clus scale="   44.442">  1  4  2 -1</clus>
<clus scale="  138.293">  1  6  2 -1</clus>
<clus scale="  149.591">  2  3  1 -1</clus>
</clustering>
</event>
<event>
 6    0  0.1361744E+002  0.1324474E+03  0.7546771E-02  0.1223869E+00
          2   -1    0    0  505    0 -0.00000000000E+00  0.00000000000E+00  0.28627529946E+04  0.28627529946E+04  0.00000000000E+00 0. -1.
         21   -1    0    0  504  502  0.00000000000E+00 -0.00000000000E+00 -0.29624677421E+03  0.29624677421E+03  0.00000000000E+00 0.  1.
         21    1    1    2  503  502 -0.60335241728E+02  0.11997804652E+02  0.92294468655E+01  0.62205075358E+02  0.00000000000E+00 0. -1.
         21    1    1    2  504  501  0.40866256367E+01 -0.13395588738E+03 -0.25073504609E+03  0.28430431514E+03  0.00000000000E+00 0.  1.
         21    1    1    2  505  503  0.37729546907E+01  0.74764325557E+02  0.20005482115E+04  0.20019483225E+04  0.00000000000E+00 0. -1.
          2    1    1    2  501    0  0.52475661401E+02  0.47193757166E+02  0.80746360808E+03  0.81054205575E+03  0.00000000000E+00 0. -1.
<scales pt_clust_3="61.51657" pt_clust_4="14000.00000" pt_clust_5="132.44738" pt_clust_6="70.36618"></scales>
<clustering>
<clus scale="   61.517">  2  3  1 -1</clus>
<clus scale="   70.366">  1  6  2 -1</clus>
<clus scale="  132.447">  1  5  2 -1</clus>
<clus scale="   61.517">  2  3  1 -1</clus>
</clustering>
</event>
<event>
 6    0  0.1361744E+002  0.1197748E+03  0.7546771E-02  0.1243469E+00
         21   -1    0    0  505  502  0.00000000000E+00  0.00000000000E+00  0.51154501442E+02  0.51154501442E+02  0.00000000000E+00 0. -1.
          2   -1    0    0  504    0 -0.00000000000E+00 -0.00000000000E+00 -0.11041575392E+04  0.11041575392E+04  0.00000000000E+00 0.  1.
         21    1    1    2  503  502  0.42912862047E+02  0.31737723675E+01 -0.22687840076E+02  0.48644883055E+02  0.00000000000E+00 0.  1.
         21    1    1    2  504  503  0.96808363244E+02 -0.10783198979E+03 -0.16974275623E+03  0.22318647027E+03  0.00000000000E+00 0. -1.
         21    1    1    2  505  501 -0.41650335012E+02  0.42224454403E+02 -0.12020104183E+03  0.13403710461E+03  0.00000000000E+00 0.  1.
          2    1    1    2  501    0 -0.98070890280E+02  0.62433763022E+02 -0.74037139958E+03  0.74944358267E+03  0.00000000000E+00 0.  1.
<scales pt_clust_3="43.03007" pt_clust_4="14000.00000" pt_clust_5="54.58248" pt_clust_6="119.77485"></scales>
<clustering>
<clus scale="   43.030">  1  3  2 -1</clus>
<clus scale="   54.582">  1  5  2 -1</clus>
<clus scale="  119.775">  2  6  1 -1</clus>
<clus scale="   43.030">  1  3  2 -1</clus>
</clustering>
</event>
<event>
 6    0  0.1361744E+002  0.1521681E+03  0.7546771E-02  0.1197834E+00
         21   -1    0    0  505  502  0.00000000000E+00  0.00000000000E+00  0.18574981578E+04  0.18574981578E+04  0.00000000000E+00 0. -1.
         -2   -1    0    0    0  501 -0.00000000000E+00 -0.00000000000E+00 -0.35517188823E+02  0.35517188823E+02  0.00000000000E+00 0.  1.
         21    1    1    2  503  502  0.59047904690E+02  0.54371088908E+00  0.69492928950E+03  0.69743362987E+03  0.00000000000E+00 0. -1.
         21    1    1    2  504  503  0.76735714211E+02  0.56790840994E+02  0.90729830340E+03  0.91230684575E+03  0.00000000000E+00 0. -1.
         21    1    1    2  505  501 -0.39953604413E+02  0.23631497520E+02  0.98072417458E+02  0.10850316699E+03  0.00000000000E+00 0.  1.
         -2    1    1    2    0  504 -0.95830014488E+02 -0.80966049402E+02  0.12168095863E+03  0.17477170402E+03  0.00000000000E+00 0.  1.
<scales pt_clust_3="38.58336" pt_clust_4="38.58336" pt_clust_5="46.41916" pt_clust_6="144.04313"></scales>
<clustering>
<clus scale="   38.583">  3  4 -1 -1</clus>
<clus scale="   46.419">  2  5  1 -1</clus>
<clus scale="  144.043">  2  6  1 -1</clus>
<clus scale="  152.168">  1  3  2 -1</clus>
</clustering>
</event>
<event>
 6    0  0.1361744E+002  0.9135224E+02  0.7546771E-02  0.1299610E+00
          2   -1    0    0  503    0 -0.00000000000E+00  0.00000000000E+00  0.18296629105E+04  0.18296629105E+04  0.00000000000E+00 0. -1.
         21   -1    0    0  505  502  0.00000000000E+00 -0.00000000000E+00 -0.37712353234E+03  0.37712353234E+03  0.00000000000E+00 0. -1.
         21    1    1    2  503  504 -0.74889350017E+02  0.42570289767E+02  0.27964631919E+03  0.29261358163E+03  0.00000000000E+00 0.  1.
         21    1    1    2  504  502 -0.23939052122E+02 -0.45660111149E+02 -0.31073085394E+03  0.31497870969E+03  0.00000000000E+00 0. -1.
         21    1    1    2  505  501  0.68265700784E+01 -0.35455002233E+02 -0.50362445432E+02  0.61968017172E+02  0.00000000000E+00 0.  1.
          2    1    1    2  501    0  0.92001832061E+02  0.38544823616E+02  0.15339863584E+04  0.15372261344E+04  0.00000000000E+00 0. -1.
<scales pt_clust_3="91.35224" pt_clust_4="82.06099" pt_clust_5="36.10622" pt_clust_6="14000.00000"></scales>
<clustering>
<clus scale="   36.106">  2  5  1 -1</clus>
<clus scale="   82.061">  2  4  1 -1</clus>
<clus scale="   91.352">  2  3  1 -1</clus>
<clus scale="   36.106">  2  3  1 -1</clus>
</clustering>
</event>
<event>
 6    0  0.1361744E+002  0.1344881E+03  0.7546771E-02  0.1220944E+00
         21   -1    0    0  505  502  0.00000000000E+00  0.00000000000E+00  0.31062921924E+03  0.31062921924E+03  0.00000000000E+00 0. -1.
         -2   -1    0    0    0  501 -0.00000000000E+00 -0.00000000000E+00 -0.98837909741E+02  0.98837909741E+02  0.00000000000E+00 0. -1.
         21    1    1    2  503  501  0.28906783036E+02  0.32807480273E+02  0.50642374945E+02  0.66907271708E+02  0.00000000000E+00 0. -1.
         21    1    1    2  504  502 -0.97654453595E+02  0.23708426749E+02  0.52930541483E+02  0.11357871292E+03  0.00000000000E+00 0. -1.
         21    1    1    2  505  503  0.10569696178E+03 -0.16698417414E+02  0.13179395906E+03  0.16976552217E+03  0.00000000000E+00 0. -1.
         -2    1    1    2    0  504 -0.36949291219E+02 -0.39817489608E+02 -0.23575565982E+02  0.59215622192E+02  0.00000000000E+00 0. -1.
<scales pt_clust_3="42.17653" pt_clust_4="117.19101" pt_clust_5="42.17653" pt_clust_6="54.32019"></scales>
<clustering>
<clus scale="   42.177">  3  5 -1 -1</clus>
<clus scale="   54.320">  2  6  1 -1</clus>
<clus scale="  117.191">  2  4  1 -1</clus>
<clus scale="  134.488">  1  3  2 -1</clus>
</clustering>
</event>
<event>
 6    0  0.1361744E+002  0.7539128E+02  0.7546771E-02  0.1342664E+00
          2   -1    0    0  504    0 -0.00000000000E+00  0.00000000000E+00  0.13495329816E+04  0.13495329816E+04  0.00000000000E+00 0. -1.
         21   -1    0    0  505  502  0.00000000000E+00 -0.00000000000E+00 -0.69068314988E+02  0.69068314988E+02  0.00000000000E+00 0. -1.
         21    1    1    2  503  501  0.37387696968E+02  0.60431311131E+02  0.38755205941E+03  0.39401317491E+03  0.00000000000E+00 0.  1.
         21    1    1    2  504  502 -0.77441625786E+02  0.21237097776E+02 -0.24452855086E+02  0.83941419145E+02  0.00000000000E+00 0. -1.
         21    1    1    2  505  503  0.47670332192E+02 -0.45341484995E+02  0.85155004697E+02  0.10760894785E+03  0.00000000000E+00 0.  1.
          2    1    1    2  501    0 -0.76164033736E+01 -0.36326923912E+02  0.83221045759E+03  0.83303775468E+03  0.00000000000E+00 0. -1.
<scales pt_clust_3="45.68741" pt_clust_4="75.39128" pt_clust_5="14000.00000" pt_clust_6="37.11678"></scales>
<clustering>
<clus scale="   37.117">  1  6  2 -1</clus>
<clus scale="   45.687">  1  3  2 -1</clus>
<clus scale="   75.391">  2  4  1 -1</clus>
<clus scale="   75.391">  2  3  1 -1</clus>
</clustering>
</event>
<event>
 6    0  0.1361744E+002  0.1380038E+03  0.7546771E-02  0.1216041E+00
         21   -1    0    0  503  502  0.00000000000E+00  0.00000000000E+00  0.70089682841E+03  0.70089682841E+03  0.00000000000E+00 0. -1.
          2   -1    0    0  504    0 -0.00000000000E+00 -0.00000000000E+00 -0.19444743778E+04  0.19444743778E+04  0.00000000000E+00 0. -1.
         21    1    1    2  503  505  0.67639266546E+01 -0.33614350238E+02  0.62148195900E+03  0.62242710466E+03  0.00000000000E+00 0. -1.
         21    1    1    2  504  502 -0.90773624879E+02  0.12628235547E+02 -0.14201061896E+03  0.16901579573E+03  0.00000000000E+00 0. -1.
         21    1    1    2  505  501 -0.64246703520E+02  0.17953946317E+01  0.45706509768E+02  0.78866643077E+02  0.00000000000E+00 0.  1.
          2    1    1    2  501    0  0.14825640174E+03  0.19190720059E+02 -0.17687553992E+04  0.17750616628E+04  0.00000000000E+00 0. -1.
<scales pt_clust_3="34.28812" pt_clust_4="14000.00000" pt_clust_5="63.88887" pt_clust_6="138.00378"></scales>
<clustering>
<clus scale="   34.288">  1  3  2 -1</clus>
<clus scale="   63.889">  1  5  2 -1</clus>
<clus scale="  138.004">  2  6  1 -1</clus>
<clus scale="   34.288">  1  3  2 -1</clus>
</clustering>
</event>
<event>
 6    0  0.1361744E+002  0.1311065E+03  0.7546771E-02  0.1225823E+00
          2   -1    0    0  504    0 -0.00000000000E+00  0.00000000000E+00  0.33280597923E+03  0.33280597923E+03  0.00000000000E+00 0. -1.
         21   -1    0    0  505  502  0.00000000000E+00 -0.00000000000E+00 -0.30203759646E+03  0.30203759646E+03  0.00000000000E+00 0.  1.
         21    1    1    2  503  501 -0.42772484916E+02  0.49843799215E+02 -0.20899355408E+03  0.21907121087E+03  0.00000000000E+00 0.  1.
         21    1    1    2  504  502  0.84545021035E+02 -0.56467487926E+02  0.14499311210E+03  0.17708596876E+03  0.00000000000E+00 0.  1.
         21    1    1    2  505  503 -0.31627236448E+02  0.43929599803E+02 -0.59036715062E+02  0.80096351661E+02  0.00000000000E+00 0. -1.
          2    1    1    2  501    0 -0.10145299671E+02 -0.37305911092E+02  0.15380553981E+03  0.15859004440E+03  0.00000000000E+00 0. -1.
<scales pt_clust_3="51.95518" pt_clust_4="117.71443" pt_clust_5="51.95518" pt_clust_6="38.66081"></scales>
<clustering>
<clus scale="   38.661">  1  6  2 -1</clus>
<clus scale="   51.955">  3  5 -1 -1</clus>
<clus scale="  117.714">  1  4  2 -1</clus>
<clus scale="  131.107">  2  3  1 -1</clus>
</clustering>
</event>
<event>
 6    0  0.1361744E+002  0.1860939E+03  0.7546771E-02  0.1162032E+00
         21   -1    0    0  505  502  0.00000000000E+00  0.00000000000E+00  0.26946187820E+04  0.26946187820E+04  0.00000000000E+00 0. -1.
          2   -1    0    0  503    0 -0.00000000000E+00 -0.00000000000E+00 -0.25546572091E+04  0.25546572091E+04  0.00000000000E+00 0. -1.
         21    1    1    2  503  504 -0.40460638968E+01  0.30763190541E+02 -0.35299990771E+03  0.35436094504E+03  0.00000000000E+00 0. -1.
         21    1    1    2  504  502  0.10190840041E+03  0.84097177807E+02  0.66002956502E+03  0.67312456803E+03  0.00000000000E+00 0.  1.
         21    1    1    2  505  501 -0.16390544591E+03  0.91319017587E+02  0.20176581236E+04  0.20263633588E+04  0.00000000000E+00 0. -1.
          2    1    1    2  501    0  0.66043109401E+02 -0.20617938593E+03 -0.21847262081E+04  0.21954271192E+04  0.00000000000E+00 0. -1.
<scales pt_clust_3="31.02812" pt_clust_4="132.17642" pt_clust_5="186.09391" pt_clust_6="14000.00000"></scales>
<clustering>
<clus scale="   31.028">  2  3  1 -1</clus>
<clus scale="  132.176">  1  4  2 -1</clus>
<clus scale="  186.094">  1  5  2 -1</clus>
<clus scale="  132.176">  1  3  2 -1</clus>
</clustering>
</event>
<event>
 6    0  0.1361744E+002  0.1937669E+03  0.7546771E-02  0.1155107E+00
         21   -1    0    0  503  502  0.00000000000E+00  0.00000000000E+00  0.13791030844E+02  0.13791030844E+02  0.00000000000E+00 0.  1.
          2   -1    0    0  504    0 -0.00000000000E+00 -0.00000000000E+00 -0.30633246362E+04  0.30633246362E+04  0.00000000000E+00 0.  1.
         21    1    1    2  503  501  0.92090786961E+02 -0.99326259762E+02 -0.12024317135E+04  0.12100365468E+04  0.00000000000E+00 0.  1.
         21    1    1    2  504  505 -0.71505725129E+02  0.80045488954E+02 -0.41670723132E+03  0.43030833789E+03  0.00000000000E+00 0.  1.
         21    1    1    2  505  502 -0.29755828069E+02  0.68390402067E+02 -0.56017961896E+03  0.56512287328E+03  0.00000000000E+00 0.  1.
          2    1    1    2  501    0  0.91707662366E+01 -0.49109631260E+02 -0.87021504156E+03  0.87164790907E+03  0.00000000000E+00 0.  1.
<scales pt_clust_3="44.04003" pt_clust_4="191.24690" pt_clust_5="54.58770" pt_clust_6="44.04003"></scales>
<clustering>
<clus scale="   44.040">  3  6 -1 -1</clus>
<clus scale="   54.588">  4  5 -1 -1</clus>
<clus scale="  191.247">  1  4  2 -1</clus>
<clus scale="  191.247">  1  3  2 -1</clus>
</clustering>
</event>
<event>
 6    0  0.1361744E+002  0.1071878E+03  0.7546771E-02  0.1265868E+00
         21   -1    0    0  503  502  0.00000000000E+00  0.00000000000E+00  0.22426691209E+03  0.22426691209E+03  0.00000000000E+00 0.  1.
          2   -1    0    0  505    0 -0.00000000000E+00 -0.00000000000E+00 -0.13022514925E+04  0.13022514925E+04  0.00000000000E+00 0. -1.
         21    1    1    2  503  501 -0.16772748351E+02  0.10037263755E+03  0.13513970892E+03  0.16917071963E+03  0.00000000000E+00 0.  1.
         21    1    1    2  504  502  0.75003743848E+02 -0.79247507978E+01  0.43181070564E+02  0.86907813927E+02  0.00000000000E+00 0.  1.
         21    1    1    2  505  504  0.24601931569E+02 -0.34403758103E+02 -0.86671048511E+02  0.96440366334E+02  0.00000000000E+00 0. -1.
          2    1    1    2  501    0 -0.82832927065E+02 -0.58044128646E+02 -0.11696343114E+04  0.11739995047E+04  0.00000000000E+00 0. -1.
<scales pt_clust_3="107.18782" pt_clust_4="75.93048" pt_clust_5="42.29508" pt_clust_6="14000.00000"></scales>
<clustering>
<clus scale="   42.295">  2  5  1 -1</clus>
<clus scale="   75.930">  1  4  2 -1</clus>
<clus scale="  107.188">  1  3  2 -1</clus>
<clus scale="   75.930">  1  3  2 -1</clus>
</clustering>
</event>
<event>
 6    0  0.1361744E+002  0.1648120E+03  0.7546771E-02  0.1183369E+00
         21   -1    0    0  505  502  0.00000000000E+00  0.00000000000E+00  0.38741335203E+03  0.38741335203E+03  0.00000000000E+00 0.  1.
          1   -1    0    0  502    0 -0.00000000000E+00 -0.00000000000E+00 -0.80662181445E+03  0.80662181445E+03  0.00000000000E+00 0. -1.
         21    1    1    2  503  504  0.67607052531E+02  0.27953204360E+02  0.13313610087E+03  0.15191220010E+03  0.00000000000E+00 0.  1.
         21    1    1    2  504  501 -0.49366416734E+02 -0.59415603942E+02 -0.28341912819E+03  0.29375782426E+03  0.00000000000E+00 0. -1.
         21    1    1    2  505  503  0.55236080481E+02  0.69973545964E+02  0.22787173403E+03  0.24468929052E+03  0.00000000000E+00 0.  1.
          1    1    1    2  501    0 -0.73476716278E+02 -0.38511146382E+02 -0.49679716913E+03  0.50367585160E+03  0.00000000000E+00 0. -1.
<scales pt_clust_3="43.31258" pt_clust_4="48.08358" pt_clust_5="164.21354" pt_clust_6="48.08358"></scales>
<clustering>
<clus scale="   43.313">  3  5 -1 -1</clus>
<clus scale="   48.084">  4  6 -1 -1</clus>
<clus scale="  164.214">  1  3  2 -1</clus>
<clus scale="  164.214">  1  3  2 -1</clus>
</clustering>
</event>
<event>
 6    0  0.1361744E+002  0.1220591E+03  0.7546771E-02  0.1239738E+00
         21   -1    0    0  505  502  0.00000000000E+00  0.00000000000E+00  0.51652953226E+02  0.51652953226E+02  0.00000000000E+00 0. -1.
          2   -1    0    0  504    0 -0.00000000000E+00 -0.00000000000E+00 -0.26385679964E+04  0.26385679964E+04  0.00000000000E+00 0.  1.
         21    1    1    2  503  502 -0.29027667259E+02  0.12160482690E+03 -0.10895966617E+03  0.16583892259E+03  0.00000000000E+00 0. -1.
         21    1    1    2  504  503  0.12869900254E+03 -0.67507461622E+02 -0.13570671457E+04  0.13648267027E+04  0.00000000000E+00 0.  1.
         21    1    1    2  505  501 -0.27444055203E+02 -0.12866697529E+02  0.48959154891E+01  0.30703388408E+02  0.00000000000E+00 0. -1.
          2    1    1    2  501    0 -0.72227280083E+02 -0.41230667752E+02 -0.11257841469E+04  0.11288519359E+04  0.00000000000E+00 0.  1.
<scales pt_clust_3="122.05914" pt_clust_4="14000.00000" pt_clust_5="30.31053" pt_clust_6="84.53601"></scales>
<clustering>
<clus scale="   30.311">  1  5  2 -1</clus>
<clus scale="   84.536">  2  6  1 -1</clus>
<clus scale="  122.059">  1  3  2 -1</clus>
<clus scale="   30.311">  1  3  2 -1</clus>
</clustering>
</event>
<event>
 6    0  0.1361744E+002  0.9129193E+02  0.7546771E-02  0.1299753E+00
         -2   -1    0    0    0  501 -0.00000000000E+00  0.00000000000E+00  0.31102653003E+03  0.31102653003E+03  0.00000000000E+00 0. -1.
         21   -1    0    0  504  502  0.00000000000E+00 -0.00000000000E+00 -0.38342557383E+03  0.38342557383E+03  0.00000000000E+00 0.  1.
         21    1    1    2  503  502 -0.44764340409E+02 -0.22534618951E+02 -0.26347814882E+03  0.26820214415E+03  0.00000000000E+00 0.  1.
         21    1    1    2  504  501 -0.10981345907E+02 -0.95102582786E+02 -0.52571592980E+02  0.10921933711E+03  0.00000000000E+00 0. -1.
         21    1    1    2  505  503 -0.76139895320E+01  0.50101973051E+02 -0.57408016700E+01  0.51001346493E+02  0.00000000000E+00 0.  1.
         -2    1    1    2    0  505  0.63359675848E+02  0.67535228685E+02  0.24939149967E+03  0.26602927610E+03  0.00000000000E+00 0. -1.
<scales pt_clust_3="50.11642" pt_clust_4="91.29193" pt_clust_5="48.31199" pt_clust_6="14000.00000"></scales>
<clustering>
<clus scale="   50.116">  2  3  1 -1</clus>
<clus scale="   48.312">  2  5  1 -1</clus>
<clus scale="   91.292">  2  4  1 -1</clus>
<clus scale="   50.116">  2  3  1 -1</clus>
</clustering>
</event>
<event>
 6    0  0.1361744E+002  0.9950445E+02  0.7546771E-02  0.1281341E+00
          1   -1    0    0  505    0 -0.00000000000E+00  0.00000000000E+00  0.12902912669E+03  0.12902912669E+03  0.00000000000E+00 0. -1.
         21   -1    0    0  503  502  0.00000000000E+00 -0.00000000000E+00 -0.40653898338E+03  0.40653898338E+03  0.00000000000E+00 0. -1.
         21    1    1    2  503  501 -0.10144988136E+03 -0.91895057326E+01 -0.13579239904E+03  0.16975305912E+03  0.00000000000E+00 0. -1.
         21    1    1    2  504  502  0.23727156639E+01 -0.47506718073E+02 -0.19768340089E+03  0.20332546577E+03  0.00000000000E+00 0. -1.
         21    1    1    2  505  504  0.86038423559E+02  0.10690847449E+02 -0.27776058322E+01  0.86744565489E+02  0.00000000000E+00 0. -1.
          1    1    1    2  501    0  0.13038742135E+02  0.46005376357E+02  0.58743549070E+02  0.75745019689E+02  0.00000000000E+00 0. -1.
<scales pt_clust_3="14000.00000" pt_clust_4="47.56593" pt_clust_5="99.50445" pt_clust_6="45.96260"></scales>
<clustering>
<clus scale="   47.566">  2  4  1 -1</clus>
<clus scale="   45.963">  1  6  2 -1</clus>
<clus scale="   99.504">  1  5  2 -1</clus>
<clus scale="   47.566">  2  3  1 -1</clus>
</clustering>
</event>
<event>
 6    0  0.1361744E+002  0.1527433E+03  0.7546771E-02  0.1197142E+00
          2   -1    0    0  505    0 -0.00000000000E+00  0.00000000000E+00  0.24679259768E+04  0.24679259768E+04  0.00000000000E+00 0. -1.
         21   -1    0    0  503  502  0.00000000000E+00 -0.00000000000E+00 -0.96848216829E+02  0.96848216829E+02  0.00000000000E+00 0.  1.
         21    1    1    2  503  501  0.80156657134E+02  0.96307396955E+01 -0.44346148601E+02  0.92110920774E+02  0.00000000000E+00 0.  1.
         21    1    1    2  504  502  0.74342775118E+02  0.22277017588E+02  0.65699311418E+02  0.10168339710E+03  0.00000000000E+00 0.  1.
         21    1    1    2  505  504  0.65300535045E+02 -0.67452619199E+02  0.65666394828E+03  0.66334120683E+03  0.00000000000E+00 0.  1.
          2    1    1    2  501    0 -0.21979996730E+03  0.35544861916E+02  0.16930606489E+04  0.17076386690E+04  0.00000000000E+00 0. -1.
<scales pt_clust_3="152.74332" pt_clust_4="77.60872" pt_clust_5="95.43923" pt_clust_6="14000.00000"></scales>
<clustering>
<clus scale="   77.609">  2  4  1 -1</clus>
<clus scale="   95.439">  1  5  2 -1</clus>
<clus scale="  152.743">  2  3  1 -1</clus>
<clus scale="   77.609">  2  3  1 -1</clus>
</clustering>
</event>
<event>
 6    0  0.1361744E+002  0.1787777E+03  0.7546771E-02  0.1168991E+00
         21   -1    0    0  504  502  0.00000000000E+00  0.00000000000E+00  0.22903509476E+03  0.22903509476E+03  0.00000000000E+00 0.  1.
          2   -1    0    0  502    0 -0.00000000000E+00 -0.00000000000E+00 -0.11260197889E+04  0.11260197889E+04  0.00000000000E+00 0.  1.
         21    1    1    2  503  505  0.36610666976E+02 -0.14512169455E+03  0.15735355126E+03  0.21716534544E+03  0.00000000000E+00 0.  1.
         21    1    1    2  504  503  0.40274976274E+02 -0.91689215381E+01  0.21896218070E+02  0.46750264189E+02  0.00000000000E+00 0. -1.
         21    1    1    2  505  501 -0.19579737470E+02  0.90201664391E+02 -0.48758992518E+03  0.49624957584E+03  0.00000000000E+00 0.  1.
          2    1    1    2  501    0 -0.57305905780E+02  0.64088951698E+02 -0.58864453826E+03  0.59488969817E+03  0.00000000000E+00 0.  1.
<scales pt_clust_3="171.38894" pt_clust_4="41.30548" pt_clust_5="49.03889" pt_clust_6="49.03889"></scales>
<clustering>
<clus scale="   41.305">  1  4  2 -1</clus>
<clus scale="   49.039">  5  6 -1 -1</clus>
<clus scale="  171.389">  1  3  2 -1</clus>
<clus scale="   41.305">  1  3  2 -1</clus>
</clustering>
</event>
<event>
 6    0  0.1361744E+002  0.2054252E+03  0.7546771E-02  0.1145241E+00
          4   -1    0    0  502    0 -0.00000000000E+00  0.00000000000E+00  0.24824430931E+03  0.24824430931E+03  0.00000000000E+00 0. -1.
         21   -1    0    0  503  502  0.00000000000E+00 -0.00000000000E+00 -0.79352274578E+03  0.79352274578E+03  0.00000000000E+00 0. -1.
         21    1    1    2  503  505 -0.60451126672E+02  0.19487257506E+03 -0.67826845145E+03  0.70829213709E+03  0.00000000000E+00 0. -1.
         21    1    1    2  504  501 -0.13857151797E+02 -0.48759234023E+02  0.22955082493E+02  0.55645479337E+02  0.00000000000E+00 0. -1.
         21    1    1    2  505  504  0.84149433037E+01 -0.10999750417E+03 -0.33943085605E+02  0.11542268085E+03  0.00000000000E+00 0. -1.
          4    1    1    2  501    0  0.65893335164E+02 -0.36115836867E+02  0.14397801809E+03  0.16240675782E+03  0.00000000000E+00 0. -1.
<scales pt_clust_3="195.67635" pt_clust_4="42.38764" pt_clust_5="42.38764" pt_clust_6="75.14177"></scales>
<clustering>
<clus scale="   42.388">  4  5 -1 -1</clus>
<clus scale="   75.142">  1  6  2 -1</clus>
<clus scale="  195.676">  2  3  1 -1</clus>
<clus scale="  195.676">  2  3  1 -1</clus>
</clustering>
</event>
<event>
 6    0  0.1361744E+002  0.1366042E+03  0.7546771E-02  0.1217973E+00
          2   -1    0    0  504    0 -0.00000000000E+00  0.00000000000E+00  0.21313172348E+04  0.21313172348E+04  0.00000000000E+00 0.  1.
         21   -1    0    0  505  502  0.00000000000E+00 -0.00000000000E+00 -0.14461166010E+02  0.14461166010E+02  0.00000000000E+00 0.  1.
         21    1    1    2  503  501 -0.48190160646E+02  0.14211920907E+02  0.25034794139E+03  0.25533969930E+03  0.00000000000E+00 0. -1.
         21    1    1    2  504  502  0.99629951151E+02 -0.10353257662E+03  0.96502337521E+03  0.97566143528E+03  0.00000000000E+00 0.  1.
         21    1    1    2  505  503  0.40376222970E+01  0.51717319072E+02  0.12405781651E+03  0.13446681867E+03  0.00000000000E+00 0.  1.
          2    1    1    2  501    0 -0.55477412802E+02  0.37603336642E+02  0.77742693563E+03  0.78031044752E+03  0.00000000000E+00 0.  1.
<scales pt_clust_3="45.96414" pt_clust_4="125.86683" pt_clust_5="51.87469" pt_clust_6="45.96414"></scales>
<clustering>
<clus scale="   45.964">  3  6 -1 -1</clus>
<clus scale="   51.875">  2  5  1 -1</clus>
<clus scale="  125.867">  2  4  1 -1</clus>
<clus scale="   51.875">  2  3  1 -1</clus>
</clustering>
</event>
<event>
 6    0  0.1361744E+002  0.6548613E+02  0.7546771E-02  0.1376152E+00
          2   -1    0    0  503    0 -0.00000000000E+00  0.00000000000E+00  0.20863111464E+04  0.20863111464E+04  0.00000000000E+00 0.  1.
         21   -1    0    0  504  502  0.00000000000E+00 -0.00000000000E+00 -0.76639768064E+03  0.76639768064E+03  0.00000000000E+00 0. -1.
         21    1    1    2  503  505 -0.27220563553E+02  0.44725407774E+02  0.20089066972E+03  0.20760149894E+03  0.00000000000E+00 0.  1.
         21    1    1    2  504  501  0.44150865642E+02  0.19186638826E+02 -0.38051916988E+03  0.38355216685E+03  0.00000000000E+00 0. -1.
         21    1    1    2  505  502 -0.52251180910E+02  0.45826769116E+02 -0.37605259630E+03  0.38242101650E+03  0.00000000000E+00 0. -1.
          2    1    1    2  501    0  0.35320878821E+02 -0.10973881572E+03  0.18755945623E+04  0.18791341448E+04  0.00000000000E+00 0.  1.
<scales pt_clust_3="52.30198" pt_clust_4="48.13965" pt_clust_5="14000.00000" pt_clust_6="65.48613"></scales>
<clustering>
<clus scale="   48.140">  2  4  1 -1</clus>
<clus scale="   52.302">  1  3  2 -1</clus>
<clus scale="   65.486">  1  6  2 -1</clus>
<clus scale="   48.140">  2  3  1 -1</clus>
</clustering>
</event>
<event>
 6    0  0.1361744E+002  0.8448498E+02  0.7546771E-02  0.1316785E+00
         21   -1    0    0  505  502  0.00000000000E+00  0.00000000000E+00  0.24592676559E+03  0.24592676559E+03  0.00000000000E+00 0. -1.
         -2   -1    0    0    0  501 -0.00000000000E+00 -0.00000000000E+00 -0.45396717524E+03  0.45396717524E+03  0.00000000000E+00 0. -1.
         21    1    1    2  503  501 -0.17950994421E+02  0.24811252239E+02 -0.21685349157E+02  0.37524536059E+02  0.00000000000E+00 0. -1.
         21    1    1    2  504  502 -0.14837934714E+02  0.52087568987E+02  0.15598899481E+03  0.16512372831E+03  0.00000000000E+00 0. -1.
         21    1    1    2  505  503  0.43028439772E+02  0.34095883612E+02  0.59070103391E+02  0.80642749353E+02  0.00000000000E+00 0. -1.
         -2    1    1    2    0  504 -0.10239510637E+02 -0.11099470484E+03 -0.40141415869E+03  0.41660292711E+03  0.00000000000E+00 0. -1.
<scales pt_clust_3="30.62412" pt_clust_4="54.46963" pt_clust_5="84.48498" pt_clust_6="14000.00000"></scales>
<clustering>
<clus scale="   30.624">  2  3  1 -1</clus>
<clus scale="   54.470">  1  4  2 -1</clus>
<clus scale="   84.485">  1  5  2 -1</clus>
<clus scale="   54.470">  1  3  2 -1</clus>
</clustering>
</event>
<event>
 6    0  0.1361744E+002  0.9849592E+02  0.7546771E-02  0.1283491E+00
          2   -1    0    0  503    0 -0.00000000000E+00  0.00000000000E+00  0.25638626241E+04  0.25638626241E+04  0.00000000000E+00 0. -1.
         21   -1    0    0  505  502  0.00000000000E+00 -0.00000000000E+00 -0.46077281757E+02  0.46077281757E+02  0.00000000000E+00 0.  1.
         21    1    1    2  503  504 -0.38971347623E+02  0.32257855672E+02  0.18085692433E+03  0.18779926056E+03  0.00000000000E+00 0.  1.
         21    1    1    2  504  502 -0.15228650468E+02 -0.40453576200E+02  0.59010263463E+02  0.73147896869E+02  0.00000000000E+00 0. -1.
         21    1    1    2  505  501  0.41024308241E+02 -0.89877006142E+02  0.36396654093E+02  0.10528811200E+03  0.00000000000E+00 0.  1.
          2    1    1    2  501    0  0.13175689850E+02  0.98072726670E+02  0.22415215005E+04  0.22437046364E+04  0.00000000000E+00 0. -1.
<scales pt_clust_3="49.47232" pt_clust_4="43.22503" pt_clust_5="98.49592" pt_clust_6="14000.00000"></scales>
<clustering>
<clus scale="   43.225">  2  4  1 -1</clus>
<clus scale="   49.472">  2  3  1 -1</clus>
<clus scale="   98.496">  2  5  1 -1</clus>
<clus scale="   43.225">  2  3  1 -1</clus>
</clustering>
</event>
<event>
 6    0  0.1361744E+002  0.1561155E+03  0.7546771E-02  0.1193153E+00
          2   -1    0    0  504    0 -0.00000000000E+00  0.00000000000E+00  0.74516140288E+03  0.74516140288E+03  0.00000000000E+00 0.  1.
         21   -1    0    0  505  502  0.00000000000E+00 -0.00000000000E+00 -0.12074043393E+04  0.12074043393E+04  0.00000000000E+00 0. -1.
         21    1    1    2  503  502  0.44808952935E+01 -0.34524992790E+02 -0.57881093073E+03  0.57985700572E+03  0.00000000000E+00 0. -1.
         21    1    1    2  504  503  0.13031351293E+03 -0.40730943965E+01 -0.61293821008E+03  0.62665098031E+03  0.00000000000E+00 0. -1.
         21    1    1    2  505  501 -0.68146983594E+02 -0.71634249048E+00  0.20898190810E+03  0.21981347191E+03  0.00000000000E+00 0. -1.
          2    1    1    2  501    0 -0.66647424625E+02  0.39314429677E+02  0.52052429633E+03  0.52624428420E+03  0.00000000000E+00 0.  1.
<scales pt_clust_3="34.81456" pt_clust_4="140.03043" pt_clust_5="64.79635" pt_clust_6="64.79635"></scales>
<clustering>
<clus scale="   34.815">  2  3  1 -1</clus>
<clus scale="   64.796">  5  6 -1 -1</clus>
<clus scale="  140.030">  2  4  1 -1</clus>
<clus scale="   34.815">  2  3  1 -1</clus>
</clustering>
</event>
<event>
 6    0  0.1361744E+002  0.1006064E+03  0.7546771E-02  0.1279026E+00
         21   -1    0    0  504  502  0.00000000000E+00  0.00000000000E+00  0.25276688902E+03  0.25276688902E+03  0.00000000000E+00 0.  1.
          2   -1    0    0  505    0 -0.00000000000E+00 -0.00000000000E+00 -0.16737048685E+04  0.16737048685E+04  0.00000000000E+00 0.  1.
         21    1    1    2  503  502 -0.92224045929E+02  0.52687469254E+02  0.17667723255E+03  0.20614579444E+03  0.00000000000E+00 0.  1.
         21    1    1    2  504  501  0.62788849321E+02 -0.30906985390E+02  0.32300653481E+02  0.77077970654E+02  0.00000000000E+00 0.  1.
         21    1    1    2  505  503 -0.46863716889E+02 -0.90247695769E+02 -0.63863763918E+03  0.64668298936E+03  0.00000000000E+00 0.  1.
          2    1    1    2  501    0  0.76298913497E+02  0.68467211905E+02 -0.99127822633E+03  0.99656500305E+03  0.00000000000E+00 0.  1.
<scales pt_clust_3="38.93680" pt_clust_4="69.98344" pt_clust_5="14000.00000" pt_clust_6="100.60636"></scales>
<clustering>
<clus scale="   69.983">  1  4  2 -1</clus>
<clus scale="   38.937">  1  3  2 -1</clus>
<clus scale="  100.606">  2  6  1 -1</clus>
<clus scale="   69.983">  1  3  2 -1</clus>
</clustering>
</event>
<event>
 6    0  0.1361744E+002  0.1958047E+03  0.7546771E-02  0.1153328E+00
          2   -1    0    0  504    0 -0.00000000000E+00  0.00000000000E+00  0.21631822992E+03  0.21631822992E+03  0.00000000000E+00 0.  1.
         21   -1    0    0  505  502  0.00000000000E+00 -0.00000000000E+00 -0.90080197989E+03  0.90080197989E+03  0.00000000000E+00 0. -1.
         21    1    1    2  503  501 -0.64864059483E+02 -0.25002377212E+02 -0.37112820420E+03  0.37758258571E+03  0.00000000000E+00 0. -1.
         21    1    1    2  504  502  0.54672112788E+02  0.40062252101E+02  0.11945969697E+01  0.67789756026E+02  0.00000000000E+00 0.  1.
         21    1    1    2  505  503 -0.11668400128E+03  0.47426953538E+02 -0.45518975112E+03  0.47229459197E+03  0.00000000000E+00 0. -1.
          2    1    1    2  501    0  0.12687594797E+03 -0.62486828428E+02  0.14063960838E+03  0.19945327610E+03  0.00000000000E+00 0.  1.
<scales pt_clust_3="57.67624" pt_clust_4="67.77923" pt_clust_5="57.67624" pt_clust_6="179.75589"></scales>
<clustering>
<clus scale="   57.676">  3  5 -1 -1</clus>
<clus scale="   67.779">  1  4  2 -1</clus>
<clus scale="  179.756">  1  6  2 -1</clus>
<clus scale="  195.805">  2  3  1 -1</clus>
</clustering>
</event>
<event>
 6    0  0.1361744E+002  0.1515744E+03  0.7546771E-02  0.1198552E+00
         21   -1    0    0  503  502  0.00000000000E+00  0.00000000000E+00  0.36161778971E+04  0.36161778971E+04  0.00000000000E+00 0.  1.
         -2   -1    0    0    0  501 -0.00000000000E+00 -0.00000000000E+00 -0.93202163877E+02  0.93202163877E+02  0.00000000000E+00 0. -1.
         21    1    1    2  503  501  0.12420878102E+03  0.81693641496E+01  0.14367284102E+03  0.19009588381E+03  0.00000000000E+00 0.  1.
         21    1    1    2  504  502 -0.79538874765E+02 -0.42268228806E+02  0.23157594189E+04  0.23175104578E+04  0.00000000000E+00 0.  1.
         21    1    1    2  505  504 -0.37923248037E+02 -0.49098721663E+02  0.11062665560E+04  0.11080047609E+04  0.00000000000E+00 0.  1.
         -2    1    1    2    0  505 -0.67466582213E+01  0.83197586320E+02 -0.42723082753E+02  0.93768958438E+02  0.00000000000E+00 0. -1.
<scales pt_clust_3="145.69597" pt_clust_4="34.69301" pt_clust_5="34.69301" pt_clust_6="83.47069"></scales>
<clustering>
<clus scale="   34.693">  4  5 -1 -1</clus>
<clus scale="   83.471">  2  6  1 -1</clus>
<clus scale="  145.696">  2  3  1 -1</clus>
<clus scale="  151.574">  1  3  2 -1</clus>
</clustering>
</event>
<event>
 6    0  0.1361744E+002  0.6885897E+02  0.7546771E-02  0.1364017E+00
          1   -1    0    0  505    0 -0.00000000000E+00  0.00000000000E+00  0.12624531978E+04  0.12624531978E+04  0.00000000000E+00 0.  1.
         21   -1    0    0  504  502  0.00000000000E+00 -0.00000000000E+00 -0.35729934860E+03  0.35729934860E+03  0.00000000000E+00 0. -1.
         21    1    1    2  503  502 -0.21238035111E+02  0.82008738430E+02 -0.24439996999E+03  0.25866548406E+03  0.00000000000E+00 0. -1.
         21    1    1    2  504  501 -0.10733359981E+02 -0.48768187906E+02 -0.95336759676E+02  0.10762266914E+03  0.00000000000E+00 0. -1.
         21    1    1    2  505  503 -0.50783672491E+02 -0.17725358796E+02  0.29614441482E+03  0.30098950839E+03  0.00000000000E+00 0. -1.
          1    1    1    2  501    0  0.82755067582E+02 -0.15515191728E+02  0.94874616405E+03  0.95247488481E+03  0.00000000000E+00 0.  1.
<scales pt_clust_3="46.59006" pt_clust_4="49.93537" pt_clust_5="68.85897" pt_clust_6="14000.00000"></scales>
<clustering>
<clus scale="   49.935">  2  4  1 -1</clus>
<clus scale="   46.590">  2  3  1 -1</clus>
<clus scale="   68.859">  2  5  1 -1</clus>
<clus scale="   49.935">  2  3  1 -1</clus>
</clustering>
</event>
<event>
 6    0  0.1361744E+002  0.1768079E+03  0.7546771E-02  0.1170929E+00
         21   -1    0    0  505  502  0.00000000000E+00  0.00000000000E+00  0.33973510171E+02  0.33973510171E+02  0.00000000000E+00 0. -1.
          2   -1    0    0  504    0 -0.00000000000E+00 -0.00000000000E+00 -0.19852474297E+04  0.19852474297E+04  0.00000000000E+00 0. -1.
         21    1    1    2  503  502 -0.94110976112E+02 -0.54162175091E+02 -0.28033180951E+03  0.30062657976E+03  0.00000000000E+00 0. -1.
         21    1    1    2  504  503 -0.68688762500E+02 -0.11304771136E+03 -0.48747714945E+03  0.50510583284E+03  0.00000000000E+00 0. -1.
         21    1    1    2  505  501  0.10678973014E+03  0.36696618657E+02 -0.34302067295E+03  0.36112860639E+03  0.00000000000E+00 0.  1.
          2    1    1    2  501    0  0.56010008474E+02  0.13051326779E+03 -0.84044428760E+03  0.85235992085E+03  0.00000000000E+00 0. -1.
<scales pt_clust_3="65.40417" pt_clust_4="65.40417" pt_clust_5="112.91895" pt_clust_6="161.39958"></scales>
<clustering>
<clus scale="   65.404">  3  4 -1 -1</clus>
<clus scale="  112.919">  1  5  2 -1</clus>
<clus scale="  161.400">  2  6  1 -1</clus>
<clus scale="  112.919">  1  3  2 -1</clus>
</clustering>
</event>
<event>
 6    0  0.1361744E+002  0.1117256E+03  0.7546771E-02  0.1257407E+00
          2   -1    0    0  504    0 -0.00000000000E+00  0.00000000000E+00  0.17418748707E+04  0.17418748707E+04  0.00000000000E+00 0.  1.
         21   -1    0    0  503  502  0.00000000000E+00 -0.00000000000E+00 -0.55347421895E+03  0.55347421895E+03  0.00000000000E+00 0.  1.
         21    1    1    2  503  505 -0.17459805070E+02  0.53340550536E+02 -0.36432151949E+03  0.36861935474E+03  0.00000000000E+00 0.  1.
         21    1    1    2  504  502  0.34785397598E+02  0.36983887570E+02  0.66411722643E+03  0.66605519461E+03  0.00000000000E+00 0. -1.
         21    1    1    2  505  501 -0.79411875681E+02  0.45658179574E+01 -0.17437644081E+03  0.19166177450E+03  0.00000000000E+00 0.  1.
          2    1    1    2  501    0  0.62086283152E+02 -0.94890256063E+02  0.10629813856E+04  0.10690127658E+04  0.00000000000E+00 0.  1.
<scales pt_clust_3="56.17401" pt_clust_4="50.77235" pt_clust_5="14000.00000" pt_clust_6="111.72562"></scales>
<clustering>
<clus scale="   50.772">  1  4  2 -1</clus>
<clus scale="   56.174">  2  3  1 -1</clus>
<clus scale="  111.726">  1  6  2 -1</clus>
<clus scale="   56.174">  2  3  1 -1</clus>
</clustering>
</event>
<event>
 6    0  0.1361744E+002  0.1004938E+03  0.7546771E-02  0.1279261E+00
          2   -1    0    0  503    0 -0.00000000000E+00  0.00000000000E+00  0.27102829897E+04  0.27102829897E+04  0.00000000000E+00 0.  1.
         21   -1    0    0  504  502  0.00000000000E+00 -0.00000000000E+00 -0.20068580265E+02  0.20068580265E+02  0.00000000000E+00 0.  1.
         21    1    1    2  503  505  0.10107627961E+03  0.72902934596E+02  0.47374327247E+03  0.48986114398E+03  0.00000000000E+00 0.  1.
         21    1    1    2  504  501 -0.33035126349E+02 -0.75756690482E+02  0.57033582019E+03  0.57629275852E+03  0.00000000000E+00 0.  1.
         21    1    1    2  505  502  0.17961188897E+02  0.46206970455E+02  0.73739186457E+02  0.88854690617E+02  0.00000000000E+00 0.  1.
          2    1    1    2  501    0 -0.86002342161E+02 -0.43353214569E+02  0.15723961304E+04  0.15753429769E+04  0.00000000000E+00 0.  1.
<scales pt_clust_3="100.49377" pt_clust_4="70.85508" pt_clust_5="49.57508" pt_clust_6="14000.00000"></scales>
<clustering>
<clus scale="   49.575">  2  5  1 -1</clus>
<clus scale="   70.855">  2  4  1 -1</clus>
<clus scale="  100.494">  2  3  1 -1</clus>
<clus scale="   49.575">  2  3  1 -1</clus>
</clustering>
</event>
<event>
 6    0  0.1361744E+002  0.9697046E+02  0.7546771E-02  0.1286799E+00
         21   -1    0    0  504  502  0.00000000000E+00  0.00000000000E+00  0.81986322909E+03  0.81986322909E+03  0.00000000000E+00 0.  1.
          2   -1    0    0  505    0 -0.00000000000E+00 -0.00000000000E+00 -0.10862662332E+04  0.10862662332E+04  0.00000000000E+00 0. -1.
         21    1    1    2  503  502  0.50884952418E+02  0.21177898462E+02  0.57694800636E+03  0.57957465766E+03  0.00000000000E+00 0.  1.
         21    1    1    2  504  501  0.30836708538E+02 -0.76717503442E+02  0.21698890607E+03  0.23220823260E+03  0.00000000000E+00 0.  1.
         21    1    1    2  505  503 -0.12248478091E+02 -0.42295179878E+02 -0.22232577597E+02  0.49327426073E+02  0.00000000000E+00 0. -1.
          2    1    1    2  501    0 -0.69473182864E+02  0.97834784857E+02 -0.10381073390E+04  0.10450191460E+04  0.00000000000E+00 0. -1.
<scales pt_clust_3="55.08164" pt_clust_4="14000.00000" pt_clust_5="44.03303" pt_clust_6="96.97046"></scales>
<clustering>
<clus scale="   44.033">  2  5  1 -1</clus>
<clus scale="   55.082">  1  3  2 -1</clus>
<clus scale="   96.970">  2  6  1 -1</clus>
<clus scale="   55.082">  1  3  2 -1</clus>
</clustering>
</event>
<event>
 6    0  0.1361744E+002  0.1093792E+03  0.7546771E-02  0.1261724E+00
          2   -1    0    0  505    0 -0.00000000000E+00  0.00000000000E+00  0.10571231245E+04  0.10571231245E+04  0.00000000000E+00 0. -1.
         21   -1    0    0  503  502  0.00000000000E+00 -0.00000000000E+00 -0.35616898756E+03  0.35616898756E+03  0.00000000000E+00 0. -1.
         21    1    1    2  503  501 -0.57182338423E+01 -0.47660581790E+02  0.15202425019E+02  0.50352189439E+02  0.00000000000E+00 0.  1.
         21    1    1    2  504  502 -0.10325283149E+03  0.68260479614E+02 -0.32098084329E+03  0.34401939196E+03  0.00000000000E+00 0. -1.
         21    1    1    2  505  504  0.24944289571E+02 -0.44140272574E+02  0.16339519384E+03  0.17108059684E+03  0.00000000000E+00 0.  1.
          2    1    1    2  501    0  0.84026775757E+02  0.23540374751E+02  0.84333736134E+03  0.84783993378E+03  0.00000000000E+00 0. -1.
<scales pt_clust_3="48.00239" pt_clust_4="109.37925" pt_clust_5="51.14090" pt_clust_6="14000.00000"></scales>
<clustering>
<clus scale="   48.002">  2  3  1 -1</clus>
<clus scale="   51.141">  1  5  2 -1</clus>
<clus scale="  109.379">  2  4  1 -1</clus>
<clus scale="   48.002">  2  3  1 -1</clus>
</clustering>
</event>
<event>
 6    0  0.1361744E+002  0.2317588E+03  0.7546771E-02  0.1125408E+00
          1   -1    0    0  503    0 -0.00000000000E+00  0.00000000000E+00  0.51464785131E+03  0.51464785131E+03  0.00000000000E+00 0. -1.
         21   -1    0    0  504  502  0.00000000000E+00 -0.00000000000E+00 -0.13053575276E+04  0.13053575276E+04  0.00000000000E+00 0. -1.
         21    1    1    2  503  502 -0.11192915173E+02 -0.18787402193E+03 -0.83436255973E+03  0.85532614279E+03  0.00000000000E+00 0. -1.
         21    1    1    2  504  505 -0.34782235394E+02 -0.25398984633E+02 -0.43253861669E+03  0.43467754399E+03  0.00000000000E+00 0. -1.
         21    1    1    2  505  501  0.67022865861E+02  0.12472134995E+03  0.28305708066E+03  0.31649453486E+03  0.00000000000E+00 0.  1.
          1    1    1    2  501    0 -0.21047715294E+02  0.88551656616E+02  0.19313441949E+03  0.21350715725E+03  0.00000000000E+00 0. -1.
<scales pt_clust_3="217.18145" pt_clust_4="43.06869" pt_clust_5="64.96303" pt_clust_6="64.96303"></scales>
<clustering>
<clus scale="   43.069">  2  4  1 -1</clus>
<clus scale="   64.963">  5  6 -1 -1</clus>
<clus scale="  217.181">  2  3  1 -1</clus>
<clus scale="   43.069">  2  3  1 -1</clus>
</clustering>
</event>
<event>
 6    0  0.1361744E+002  0.1100208E+03  0.7546771E-02  0.1260531E+00
         21   -1    0    0  505  502  0.00000000000E+00  0.00000000000E+00  0.20259274165E+03  0.20259274165E+03  0.00000000000E+00 0. -1.
          2   -1    0    0  504    0 -0.00000000000E+00 -0.00000000000E+00 -0.42706511516E+03  0.42706511516E+03  0.00000000000E+00 0.  1.
         21    1    1    2  503  501  0.11522039897E+03  0.99997183166E+01  0.57167847720E+02  0.12901123020E+03  0.00000000000E+00 0. -1.
         21    1    1    2  504  502 -0.80263898038E+02 -0.12202903803E+01 -0.50758997863E+02  0.94975040410E+02  0.00000000000E+00 0. -1.
         21    1    1    2  505  503  0.33991229449E+02  0.17499904517E-02  0.80102084819E+02  0.87015789802E+02  0.00000000000E+00 0. -1.
          2    1    1    2  501    0 -0.68947730379E+02 -0.87811779268E+01 -0.31098330818E+03  0.31865579640E+03  0.00000000000E+00 0.  1.
<scales pt_clust_3="14000.00000" pt_clust_4="110.02075" pt_clust_5="33.99123" pt_clust_6="68.41810"></scales>
<clustering>
<clus scale="   33.991">  1  5  2 -1</clus>
<clus scale="   68.418">  2  6  1 -1</clus>
<clus scale="  110.021">  2  4  1 -1</clus>
<clus scale="   33.991">  1  3  2 -1</clus>
</clustering>
</event>
<event>
 6    0  0.1361744E+002  0.7982298E+02  0.7546771E-02  0.1329555E+00
         21   -1    0    0  505  502  0.00000000000E+00  0.00000000000E+00  0.30502176024E+03  0.30502176024E+03  0.00000000000E+00 0.  1.
          2   -1    0    0  504    0 -0.00000000000E+00 -0.00000000000E+00 -0.87540334978E+03  0.87540334978E+03  0.00000000000E+00 0. -1.
         21    1    1    2  503  502 -0.43984599853E+02 -0.71555054777E+02  0.22228403232E+03  0.23762357188E+03  0.00000000000E+00 0.  1.
         21    1    1    2  504  503 -0.32374356417E+01  0.10500800143E+03 -0.64185930040E+03  0.65040027895E+03  0.00000000000E+00 0. -1.
         21    1    1    2  505  501  0.80033183173E+02  0.21045369149E+00  0.44461850559E+02  0.91554414720E+02  0.00000000000E+00 0. -1.
          2    1    1    2  501    0 -0.32811147678E+02 -0.33663400346E+02 -0.19526817202E+03  0.20084684448E+03  0.00000000000E+00 0. -1.
<scales pt_clust_3="79.82298" pt_clust_4="14000.00000" pt_clust_5="78.89842" pt_clust_6="47.00847"></scales>
<clustering>
<clus scale="   47.008">  2  6  1 -1</clus>
<clus scale="   78.898">  1  5  2 -1</clus>
<clus scale="   79.823">  1  3  2 -1</clus>
<clus scale="   78.898">  1  3  2 -1</clus>
</clustering>
</event>
<event>
 6    0  0.1361744E+002  0.2703889E+03  0.7546771E-02  0.1101057E+00
         -1   -1    0    0    0  501 -0.00000000000E+00  0.00000000000E+00  0.18318890425E+04  0.18318890425E+04  0.00000000000E+00 0.  1.
         21   -1    0    0  504  502  0.00000000000E+00 -0.00000000000E+00 -0.27414433909E+03  0.27414433909E+03  0.00000000000E+00 0.  1.
         21    1    1    2  503  502  0.11214311282E+03  0.10955833220E+03 -0.12433583327E+03  0.20009624020E+03  0.00000000000E+00 0.  1.
         21    1    1    2  504  501 -0.28964116874E+01 -0.12059056144E+03  0.36670163987E+03  0.38603181914E+03  0.00000000000E+00 0. -1.
         21    1    1    2  505  503  0.48099405584E+02  0.10632272624E+03 -0.60732040021E+02  0.13155400267E+03  0.00000000000E+00 0.  1.
         -1    1    1    2    0  505 -0.15734610671E+03 -0.95290497004E+02  0.13761109368E+04  0.13883513196E+04  0.00000000000E+00 0.  1.
<scales pt_clust_3="50.74487" pt_clust_4="120.62534" pt_clust_5="50.74487" pt_clust_6="263.91419"></scales>
<clustering>
<clus scale="   50.745">  3  5 -1 -1</clus>
<clus scale="  120.625">  1  4  2 -1</clus>
<clus scale="  263.914">  1  6  2 -1</clus>
<clus scale="  270.389">  2  3  1 -1</clus>
</clustering>
</event>
<event>
 6    0  0.1361744E+002  0.8414354E+02  0.7546771E-02  0.1317688E+00
          2   -1    0    0  504    0 -0.00000000000E+00  0.00000000000E+00  0.24687653168E+03  0.24687653168E+03  0.00000000000E+00 0.  1.
         21   -1    0    0  503  502  0.00000000000E+00 -0.00000000000E+00 -0.75703762679E+03  0.75703762679E+03  0.00000000000E+00 0.  1.
         21    1    1    2  503  505 -0.36999838524E+02  0.86277958582E+01 -0.59962732188E+03  0.60082971969E+03  0.00000000000E+00 0.  1.
         21    1    1    2  504  502 -0.97287285632E+02  0.17978042301E+02  0.74226273833E+02  0.12368332821E+03  0.00000000000E+00 0.  1.
         21    1    1    2  505  501  0.66257002895E+02  0.13845263465E+02 -0.11122984789E+03  0.13020660818E+03  0.00000000000E+00 0.  1.
          2    1    1    2  501    0  0.68030121261E+02 -0.40451101624E+02  0.12646980083E+03  0.14919450239E+03  0.00000000000E+00 0.  1.
<scales pt_clust_3="37.99246" pt_clust_4="84.14354" pt_clust_5="42.97124" pt_clust_6="14000.00000"></scales>
<clustering>
<clus scale="   37.992">  2  3  1 -1</clus>
<clus scale="   42.971">  2  5  1 -1</clus>
<clus scale="   84.144">  2  4  1 -1</clus>
<clus scale="   37.992">  2  3  1 -1</clus>
</clustering>
</event>
<event>
 6    0  0.1361744E+002  0.1677910E+03  0.7546771E-02  0.1180171E+00
         21   -1    0    0  504  502  0.00000000000E+00  0.00000000000E+00  0.70377028848E+02  0.70377028848E+02  0.00000000000E+00 0. -1.
          2   -1    0    0  503    0 -0.00000000000E+00 -0.00000000000E+00 -0.31286233256E+04  0.31286233256E+04  0.00000000000E+00 0. -1.
         21    1    1    2  503  502 -0.38076148962E+02 -0.37946357546E+02 -0.20257689220E+03  0.20958796822E+03  0.00000000000E+00 0.  1.
         21    1    1    2  504  505 -0.32860717490E+02  0.28625339700E+02  0.11586487288E+01  0.43595633884E+02  0.00000000000E+00 0. -1.
         21    1    1    2  505  501  0.67216174351E+01  0.16544708415E+03 -0.12173114815E+03  0.20551493917E+03  0.00000000000E+00 0. -1.
          2    1    1    2  501    0  0.64215249017E+02 -0.15612606630E+03 -0.27350969052E+04  0.27403018132E+04  0.00000000000E+00 0. -1.
<scales pt_clust_3="54.07353" pt_clust_4="43.58023" pt_clust_5="167.79102" pt_clust_6="14000.00000"></scales>
<clustering>
<clus scale="   43.580">  1  4  2 -1</clus>
<clus scale="   54.074">  1  3  2 -1</clus>
<clus scale="  167.791">  1  5  2 -1</clus>
<clus scale="   43.580">  1  3  2 -1</clus>
</clustering>
</event>
<event>
 6    0  0.1361744E+002  0.1928510E+03  0.7546771E-02  0.1155915E+00
         21   -1    0    0  501  502  0.00000000000E+00  0.00000000000E+00  0.12504027719E+04  0.12504027719E+04  0.00000000000E+00 0.  1.
          3   -1    0    0  503    0 -0.00000000000E+00 -0.00000000000E+00 -0.57755416247E+03  0.57755416247E+03  0.00000000000E+00 0.  1.
         21    1    1    2  503  505 -0.15890374385E+02 -0.92057419281E+02  0.70725280546E+02  0.11717140330E+03  0.00000000000E+00 0.  1.
         21    1    1    2  504  502 -0.61825027553E+02 -0.50625934709E+02  0.11190406187E+04  0.11218900239E+04  0.00000000000E+00 0.  1.
         21    1    1    2  505  504  0.12520225611E+02 -0.38845054364E+02 -0.41165497990E+01  0.41019998539E+02  0.00000000000E+00 0.  1.
          3    1    1    2  501    0  0.65195176327E+02  0.18152840835E+03 -0.51280074002E+03  0.54787550869E+03  0.00000000000E+00 0.  1.
<scales pt_clust_3="38.77241" pt_clust_4="79.90819" pt_clust_5="38.77241" pt_clust_6="183.71320"></scales>
<clustering>
<clus scale="   38.772">  3  5 -1 -1</clus>
<clus scale="   79.908">  1  4  2 -1</clus>
<clus scale="  183.713">  2  6  1 -1</clus>
<clus scale="   79.908">  1  3  2 -1</clus>
</clustering>
</event>
<event>
 6    0  0.1361744E+002  0.9637669E+02  0.7546771E-02  0.1288105E+00
         21   -1    0    0  501  502  0.00000000000E+00  0.00000000000E+00  0.69346450490E+03  0.69346450490E+03  0.00000000000E+00 0. -1.
          2   -1    0    0  503    0 -0.00000000000E+00 -0.00000000000E+00 -0.26879933537E+04  0.26879933537E+04  0.00000000000E+00 0.  1.
         21    1    1    2  503  505  0.90403171221E+01  0.52671628466E+02 -0.12175284905E+03  0.13296534899E+03  0.00000000000E+00 0. -1.
         21    1    1    2  504  502  0.19543219016E+02 -0.33366952916E+02  0.39642209682E+03  0.39830361510E+03  0.00000000000E+00 0. -1.
         21    1    1    2  505  504 -0.10845808515E+03 -0.38172708467E+01  0.27968768189E+03  0.30000487862E+03  0.00000000000E+00 0. -1.
          2    1    1    2  501    0  0.79874549017E+02 -0.15487404704E+02 -0.25488857785E+04  0.25501840159E+04  0.00000000000E+00 0.  1.
<scales pt_clust_3="52.88386" pt_clust_4="38.66899" pt_clust_5="96.37669" pt_clust_6="14000.00000"></scales>
<clustering>
<clus scale="   38.669">  1  4  2 -1</clus>
<clus scale="   52.884">  2  3  1 -1</clus>
<clus scale="   96.377">  1  5  2 -1</clus>
<clus scale="   38.669">  1  3  2 -1</clus>
</clustering>
</event>
<event>
 6    0  0.1361744E+002  0.8708827E+02  0.7546771E-02  0.1310060E+00
         21   -1    0    0  504  502  0.00000000000E+00  0.00000000000E+00  0.56868747098E+03  0.56868747098E+03  0.00000000000E+00 0. -1.
          2   -1    0    0  505    0 -0.00000000000E+00 -0.00000000000E+00 -0.23019107980E+04  0.23019107980E+04  0.00000000000E+00 0. -1.
         21    1    1    2  503  501 -0.75208701848E+02 -0.94432733561E+02  0.19736482936E+03  0.23135852236E+03  0.00000000000E+00 0. -1.
         21    1    1    2  504  503 -0.85053445405E+01  0.72702575713E+02  0.34723618761E+03  0.35486754626E+03  0.00000000000E+00 0. -1.
         21    1    1    2  505  502 -0.42446897080E+02 -0.69672536058E+01 -0.50080533140E+03  0.50264924316E+03  0.00000000000E+00 0. -1.
          2    1    1    2  501    0  0.12616094347E+03  0.28697411454E+02 -0.17770190126E+04  0.17817229572E+04  0.00000000000E+00 0. -1.
<scales pt_clust_3="14000.00000" pt_clust_4="73.19424" pt_clust_5="43.01490" pt_clust_6="87.08827"></scales>
<clustering>
<clus scale="   43.015">  2  5  1 -1</clus>
<clus scale="   73.194">  1  4  2 -1</clus>
<clus scale="   87.088">  2  6  1 -1</clus>
<clus scale="   73.194">  1  3  2 -1</clus>
</clustering>
</event>
<event>
 6    0  0.1361744E+002  0.1018351E+03  0.7546771E-02  0.1276484E+00
         -1   -1    0    0    0  501 -0.00000000000E+00  0.00000000000E+00  0.29488484819E+03  0.29488484819E+03  0.00000000000E+00 0.  1.
         21   -1    0    0  504  502  0.00000000000E+00 -0.00000000000E+00 -0.16594620287E+03  0.16594620287E+03  0.00000000000E+00 0. -1.
         21    1    1    2  503  505 -0.58928555522E+02 -0.10047421095E+03 -0.97393045380E+02  0.15183229897E+03  0.00000000000E+00 0. -1.
         21    1    1    2  504  501 -0.25675903134E+02  0.34161780103E+02  0.48289076639E+02  0.64483440853E+02  0.00000000000E+00 0. -1.
         21    1    1    2  505  502 -0.15429794783E+02  0.32127506867E+02 -0.20375345241E+01  0.35698834875E+02  0.00000000000E+00 0. -1.
         -1    1    1    2    0  503  0.10003425344E+03  0.34184923980E+02  0.18008014858E+03  0.20881647636E+03  0.00000000000E+00 0.  1.
<scales pt_clust_3="14000.00000" pt_clust_4="44.66091" pt_clust_5="35.64064" pt_clust_6="101.83513"></scales>
<clustering>
<clus scale="   35.641">  2  5  1 -1</clus>
<clus scale="   44.661">  1  4  2 -1</clus>
<clus scale="  101.835">  1  6  2 -1</clus>
<clus scale="   35.641">  2  3  1 -1</clus>
</clustering>
</event>
<event>
 6    0  0.1361744E+002  0.7298355E+03  0.7546771E-02  0.9667527E-01
          2   -1    0    0  502    0 -0.00000000000E+00  0.00000000000E+00  0.36893212540E+03  0.36893212540E+03  0.00000000000E+00 0. -1.
         21   -1    0    0  504  502  0.00000000000E+00 -0.00000000000E+00 -0.18195218883E+04  0.18195218883E+04  0.00000000000E+00 0. -1.
         21    1    1    2  503  501  0.60442423614E+01  0.48727157838E+02 -0.25557883897E+02  0.55354080301E+02  0.00000000000E+00 0. -1.
         21    1    1    2  504  505 -0.30695815895E+03 -0.40453765432E+03 -0.10062644117E+04  0.11271388962E+04  0.00000000000E+00 0. -1.
         21    1    1    2  505  503 -0.15448991341E+03 -0.13609465568E+03 -0.23179462767E+03  0.31002844719E+03  0.00000000000E+00 0.  1.
          2    1    1    2  501    0  0.45540383000E+03  0.49190515217E+03 -0.18697283969E+03  0.69593259005E+03  0.00000000000E+00 0. -1.
<scales pt_clust_3="32.07382" pt_clust_4="105.48005" pt_clust_5="105.48005" pt_clust_6="720.59861"></scales>
<clustering>
<clus scale="   32.074">  3  6 -1 -1</clus>
<clus scale="  105.480">  4  5 -1 -1</clus>
<clus scale="  720.599">  1  3  2 -1</clus>
<clus scale="  729.835">  2  3  1 -1</clus>
</clustering>
</event>
<event>
 6    0  0.1589671E+002  0.2391842E+03  0.7546771E-02  0.1120337E+00
          1   -1    0    0  503    0 -0.00000000000E+00  0.00000000000E+00  0.45798461295E+03  0.45798461295E+03  0.00000000000E+00 0. -1.
         21   -1    0    0  504  502  0.00000000000E+00 -0.00000000000E+00 -0.86193372533E+03  0.86193372533E+03  0.00000000000E+00 0. -1.
         21    1    1    2  503  502 -0.18204694998E+02  0.34173352753E+02 -0.57025957250E+00  0.38724077191E+02  0.00000000000E+00 0.  1.
         21    1    1    2  504  505 -0.12148134861E+02 -0.28757220193E+02 -0.34901294797E+03  0.35040632521E+03  0.00000000000E+00 0. -1.
         21    1    1    2  505  501  0.16092556325E+03 -0.16374429906E+03 -0.43867174807E+03  0.49511830398E+03  0.00000000000E+00 0. -1.
          1    1    1    2  501    0 -0.13057273339E+03  0.15832816650E+03  0.38430584324E+03  0.43566963190E+03  0.00000000000E+00 0. -1.
<scales pt_clust_3="37.97683" pt_clust_4="31.21786" pt_clust_5="239.18418" pt_clust_6="14000.00000"></scales>
<clustering>
<clus scale="   31.218">  2  4  1 -1</clus>
<clus scale="   37.977">  1  3  2 -1</clus>
<clus scale="  239.184">  2  5  1 -1</clus>
<clus scale="   31.218">  2  3  1 -1</clus>
</clustering>
</event>
<event>
 6    0  0.1361744E+002  0.1324478E+03  0.7546771E-02  0.1223868E+00
         21   -1    0    0  501  502  0.00000000000E+00  0.00000000000E+00  0.29955981920E+03  0.29955981920E+03  0.00000000000E+00 0.  1.
          2   -1    0    0  505    0 -0.00000000000E+00 -0.00000000000E+00 -0.17985742796E+03  0.17985742796E+03  0.00000000000E+00 0.  1.
         21    1    1    2  503  504  0.65902461239E+02 -0.47574338285E+02  0.11446082818E+03  0.14038423433E+03  0.00000000000E+00 0.  1.
         21    1    1    2  504  502  0.46625748389E+02 -0.10238512384E+02  0.13765302121E+03  0.14569537328E+03  0.00000000000E+00 0.  1.
         21    1    1    2  505  503 -0.33699939844E+02 -0.63224545311E+01 -0.13328401528E+02  0.36787303028E+02  0.00000000000E+00 0.  1.
          2    1    1    2  501    0 -0.78828269784E+02  0.64135305201E+02 -0.11908305662E+03  0.15655033652E+03  0.00000000000E+00 0.  1.
<scales pt_clust_3="36.68307" pt_clust_4="36.68307" pt_clust_5="34.28789" pt_clust_6="123.56052"></scales>
<clustering>
<clus scale="   34.288">  2  5  1 -1</clus>
<clus scale="   36.683">  3  4 -1 -1</clus>
<clus scale="  123.561">  2  6  1 -1</clus>
<clus scale="  132.448">  1  3  2 -1</clus>
</clustering>
</event>
<event>
 6    0  0.1361744E+002  0.1197770E+03  0.7546771E-02  0.1243465E+00
         -3   -1    0    0    0  501 -0.00000000000E+00  0.00000000000E+00  0.15029308474E+03  0.15029308474E+03  0.00000000000E+00 0. -1.
         21   -1    0    0  505  502  0.00000000000E+00 -0.00000000000E+00 -0.28906287794E+03  0.28906287794E+03  0.00000000000E+00 0. -1.
         21    1    1    2  503  504 -0.99495799161E+02 -0.30129154646E+02 -0.11638306502E+03  0.15605190750E+03  0.00000000000E+00 0. -1.
         21    1    1    2  504  502 -0.28700973689E+02 -0.50755314294E+02 -0.51838243971E+02  0.78019557534E+02  0.00000000000E+00 0. -1.
         21    1    1    2  505  501  0.28749821759E+02  0.73818911586E+02 -0.34958693089E+02  0.86590381576E+02  0.00000000000E+00 0.  1.
         -3    1    1    2    0  503  0.99446951091E+02  0.70655573545E+01  0.64410208876E+02  0.11869411607E+03  0.00000000000E+00 0. -1.
<scales pt_clust_3="44.39746" pt_clust_4="44.39746" pt_clust_5="79.21985" pt_clust_6="104.07788"></scales>
<clustering>
<clus scale="   44.397">  3  4 -1 -1</clus>
<clus scale="   79.220">  2  5  1 -1</clus>
<clus scale="  104.078">  1  6  2 -1</clus>
<clus scale="   79.220">  2  3  1 -1</clus>
</clustering>
</event>
<event>
 6    0  0.1361744E+002  0.1329274E+03  0.7546771E-02  0.1223176E+00
          2   -1    0    0  504    0 -0.00000000000E+00  0.00000000000E+00  0.20017637612E+04  0.20017637612E+04  0.00000000000E+00 0.  1.
         21   -1    0    0  503  502  0.00000000000E+00 -0.00000000000E+00 -0.13006360607E+03  0.13006360607E+03  0.00000000000E+00 0.  1.
         21    1    1    2  503  501  0.43965157172E+02 -0.16944463916E+02  0.72827106462E+02  0.86740056134E+02  0.00000000000E+00 0. -1.
         21    1    1    2  504  505 -0.20271085060E+03 -0.66160912892E+02  0.46892651411E+02  0.21832974168E+03  0.00000000000E+00 0.  1.
         21    1    1    2  505  502  0.36919994929E+02  0.35830221721E+02 -0.16058625191E+02  0.53895920598E+02  0.00000000000E+00 0.  1.
          2    1    1    2  501    0  0.12182569850E+03  0.47275155088E+02  0.17680390224E+04  0.17728616488E+04  0.00000000000E+00 0.  1.
<scales pt_clust_3="47.11741" pt_clust_4="132.92737" pt_clust_5="58.33932" pt_clust_6="14000.00000"></scales>
<clustering>
<clus scale="   47.117">  2  3  1 -1</clus>
<clus scale="   58.339">  2  5  1 -1</clus>
<clus scale="  132.927">  2  4  1 -1</clus>
<clus scale="   47.117">  2  3  1 -1</clus>
</clustering>
</event>
<event>
 6    0  0.1361744E+002  0.1232491E+03  0.7546771E-02  0.1237831E+00
         -3   -1    0    0    0  501 -0.00000000000E+00  0.00000000000E+00  0.76704677803E+03  0.76704677803E+03  0.00000000000E+00 0. -1.
         21   -1    0    0  504  502  0.00000000000E+00 -0.00000000000E+00 -0.60187858539E+02  0.60187858539E+02  0.00000000000E+00 0.  1.
         21    1    1    2  503  505  0.12856319266E+02 -0.41657295141E+02  0.10364441885E+02  0.44811124055E+02  0.00000000000E+00 0.  1.
         21    1    1    2  504  501  0.30563483761E+02  0.48241887300E+01  0.55477419398E+02  0.63522778588E+02  0.00000000000E+00 0.  1.
         21    1    1    2  505  502 -0.34991305790E+02 -0.72598488444E+02  0.13325114079E+02  0.81685314901E+02  0.00000000000E+00 0.  1.
         -3    1    1    2    0  503 -0.84284972366E+01  0.10943159485E+03  0.62769194413E+03  0.63721541902E+03  0.00000000000E+00 0. -1.
<scales pt_clust_3="32.32750" pt_clust_4="30.94187" pt_clust_5="32.32750" pt_clust_6="115.30190"></scales>
<clustering>
<clus scale="   30.942">  1  4  2 -1</clus>
<clus scale="   32.327">  3  5 -1 -1</clus>
<clus scale="  115.302">  1  6  2 -1</clus>
<clus scale="  123.249">  2  3  1 -1</clus>
</clustering>
</event>
<event>
 6    0  0.1361744E+002  0.1526541E+03  0.7546771E-02  0.1197249E+00
         21   -1    0    0  505  502  0.00000000000E+00  0.00000000000E+00  0.59537823542E+03  0.59537823542E+03  0.00000000000E+00 0. -1.
          2   -1    0    0  503    0 -0.00000000000E+00 -0.00000000000E+00 -0.35086484178E+03  0.35086484178E+03  0.00000000000E+00 0.  1.
         21    1    1    2  503  502  0.72847315088E+02 -0.87469436377E+01  0.46981747200E+03  0.47551203700E+03  0.00000000000E+00 0. -1.
         21    1    1    2  504  501 -0.37093919929E+02 -0.52860228440E+02 -0.75759366250E+02  0.99547195948E+02  0.00000000000E+00 0. -1.
         21    1    1    2  505  504  0.33605293090E+02  0.11406974208E+03  0.67939894890E+02  0.13695638393E+03  0.00000000000E+00 0. -1.
          2    1    1    2  501    0 -0.69358688249E+02 -0.52462570001E+02 -0.21748460700E+03  0.23422746032E+03  0.00000000000E+00 0.  1.
<scales pt_clust_3="73.37057" pt_clust_4="47.10728" pt_clust_5="142.53012" pt_clust_6="47.10728"></scales>
<clustering>
<clus scale="   47.107">  4  6 -1 -1</clus>
<clus scale="   73.371">  1  3  2 -1</clus>
<clus scale="  142.530">  1  5  2 -1</clus>
<clus scale="   73.371">  1  3  2 -1</clus>
</clustering>
</event>
<event>
 6    0  0.1361744E+002  0.6744184E+02  0.7546771E-02  0.1369015E+00
         21   -1    0    0  505  502  0.00000000000E+00  0.00000000000E+00  0.13164903528E+04  0.13164903528E+04  0.00000000000E+00 0.  1.
          3   -1    0    0  504    0 -0.00000000000E+00 -0.00000000000E+00 -0.38999160552E+03  0.38999160552E+03  0.00000000000E+00 0. -1.
         21    1    1    2  503  502 -0.62158820818E+02 -0.55814133950E+02  0.12195709578E+04  0.12224288354E+04  0.00000000000E+00 0.  1.
         21    1    1    2  504  503 -0.11172618283E+02 -0.43341760271E+02 -0.11667255033E+02  0.46254301667E+02  0.00000000000E+00 0.  1.
         21    1    1    2  505  501 -0.93942580021E+00  0.33621363167E+02  0.67333559113E+02  0.75266770655E+02  0.00000000000E+00 0.  1.
          3    1    1    2  501    0  0.74270864901E+02  0.65534531054E+02 -0.34873851460E+03  0.36253205058E+03  0.00000000000E+00 0. -1.
<scales pt_clust_3="14000.00000" pt_clust_4="44.30992" pt_clust_5="33.63449" pt_clust_6="67.44184"></scales>
<clustering>
<clus scale="   33.634">  1  5  2 -1</clus>
<clus scale="   44.310">  2  4  1 -1</clus>
<clus scale="   67.442">  2  6  1 -1</clus>
<clus scale="   33.634">  1  3  2 -1</clus>
</clustering>
</event>
<event>
 6    0  0.1361744E+002  0.1132016E+03  0.7546771E-02  0.1254753E+00
          1   -1    0    0  505    0 -0.00000000000E+00  0.00000000000E+00  0.20017082388E+04  0.20017082388E+04  0.00000000000E+00 0.  1.
         21   -1    0    0  504  502  0.00000000000E+00 -0.00000000000E+00 -0.93649128321E+03  0.93649128321E+03  0.00000000000E+00 0.  1.
         21    1    1    2  503  502  0.59457997241E+02 -0.11951889751E+02 -0.40404346214E+02  0.72873948002E+02  0.00000000000E+00 0. -1.
         21    1    1    2  504  501  0.52248786331E+02  0.33152744741E+02 -0.87509648033E+03  0.87728153408E+03  0.00000000000E+00 0.  1.
         21    1    1    2  505  503 -0.10030075469E+03  0.31262517902E+02  0.16141474494E+04  0.16175628504E+04  0.00000000000E+00 0.  1.
          1    1    1    2  501    0 -0.11406028880E+02 -0.52463372892E+02  0.36657033270E+03  0.37048118954E+03  0.00000000000E+00 0.  1.
<scales pt_clust_3="60.64132" pt_clust_4="14000.00000" pt_clust_5="113.20161" pt_clust_6="53.68895"></scales>
<clustering>
<clus scale="   53.689">  1  6  2 -1</clus>
<clus scale="   60.641">  2  3  1 -1</clus>
<clus scale="  113.202">  1  5  2 -1</clus>
<clus scale="   60.641">  2  3  1 -1</clus>
</clustering>
</event>
<event>
 6    0  0.1361744E+002  0.1513971E+03  0.7546771E-02  0.1198767E+00
          1   -1    0    0  505    0 -0.00000000000E+00  0.00000000000E+00  0.10268329875E+04  0.10268329875E+04  0.00000000000E+00 0. -1.
         21   -1    0    0  504  502  0.00000000000E+00 -0.00000000000E+00 -0.13775733144E+04  0.13775733144E+04  0.00000000000E+00 0.  1.
         21    1    1    2  503  502  0.65315004028E+02 -0.79971720819E+02 -0.14232512606E+03  0.17583505734E+03  0.00000000000E+00 0.  1.
         21    1    1    2  504  501  0.74147651106E+02  0.10960879752E+02 -0.12032806836E+04  0.12056128809E+04  0.00000000000E+00 0.  1.
         21    1    1    2  505  503  0.35980691311E+02  0.42060245990E+02  0.15626021034E+03  0.16577372462E+03  0.00000000000E+00 0. -1.
          1    1    1    2  501    0 -0.17544334645E+03  0.26950595077E+02  0.83860527241E+03  0.85718463898E+03  0.00000000000E+00 0. -1.
<scales pt_clust_3="14000.00000" pt_clust_4="75.00966" pt_clust_5="55.35047" pt_clust_6="151.39713"></scales>
<clustering>
<clus scale="   55.350">  1  5  2 -1</clus>
<clus scale="   75.010">  2  4  1 -1</clus>
<clus scale="  151.397">  1  6  2 -1</clus>
<clus scale="   75.010">  2  3  1 -1</clus>
</clustering>
</event>
<event>
 6    0  0.1361744E+002  0.1651833E+03  0.7546771E-02  0.1182966E+00
         21   -1    0    0  505  502  0.00000000000E+00  0.00000000000E+00  0.11129286339E+04  0.11129286339E+04  0.00000000000E+00 0. -1.
          4   -1    0    0  504    0 -0.00000000000E+00 -0.00000000000E+00 -0.16985540700E+03  0.16985540700E+03  0.00000000000E+00 0. -1.
         21    1    1    2  503  501  0.11248391746E+01  0.59911215461E+02  0.65767712255E+02  0.88971967363E+02  0.00000000000E+00 0. -1.
         21    1    1    2  504  502 -0.19012132303E+03  0.37116921201E+02  0.90499459262E+03  0.92549392001E+03  0.00000000000E+00 0. -1.
         21    1    1    2  505  503  0.39394916134E+02 -0.29998509436E+02  0.63662049317E+02  0.80651884719E+02  0.00000000000E+00 0.  1.
          4    1    1    2  501    0  0.14960156772E+03 -0.67029627226E+02 -0.91351127288E+02  0.18766626881E+03  0.00000000000E+00 0. -1.
<scales pt_clust_3="57.82341" pt_clust_4="165.18326" pt_clust_5="49.51636" pt_clust_6="14000.00000"></scales>
<clustering>
<clus scale="   49.516">  1  5  2 -1</clus>
<clus scale="   57.823">  1  3  2 -1</clus>
<clus scale="  165.183">  1  4  2 -1</clus>
<clus scale="   49.516">  1  3  2 -1</clus>
</clustering>
</event>
<event>
 6    0  0.1361744E+002  0.1342531E+03  0.7546771E-02  0.1221278E+00
          1   -1    0    0  503    0 -0.00000000000E+00  0.00000000000E+00  0.17616176131E+04  0.17616176131E+04  0.00000000000E+00 0.  1.
         21   -1    0    0  501  502  0.00000000000E+00 -0.00000000000E+00 -0.23948356090E+02  0.23948356090E+02  0.00000000000E+00 0.  1.
         21    1    1    2  503  504 -0.20357210758E+02  0.70891688176E+02  0.52828956029E+03  0.53341344845E+03  0.00000000000E+00 0.  1.
         21    1    1    2  504  505  0.76482725063E+02 -0.17558893965E+02  0.12294862444E+03  0.14585707471E+03  0.00000000000E+00 0.  1.
         21    1    1    2  505  502  0.24724841040E+02 -0.61550390879E+02  0.12564859676E+03  0.14208215317E+03  0.00000000000E+00 0.  1.
          1    1    1    2  501    0 -0.80850355346E+02  0.82175966678E+01  0.96078247548E+03  0.96421329281E+03  0.00000000000E+00 0.  1.
<scales pt_clust_3="73.75668" pt_clust_4="62.40452" pt_clust_5="62.40452" pt_clust_6="115.83060"></scales>
<clustering>
<clus scale="   62.405">  4  5 -1 -1</clus>
<clus scale="   73.757">  1  3  2 -1</clus>
<clus scale="  115.831">  1  6  2 -1</clus>
<clus scale="  134.253">  2  3  1 -1</clus>
</clustering>
</event>
<event>
 6    0  0.1361744E+002  0.1579107E+03  0.7546771E-02  0.1191076E+00
         21   -1    0    0  505  502  0.00000000000E+00  0.00000000000E+00  0.82268941980E+03  0.82268941980E+03  0.00000000000E+00 0.  1.
          1   -1    0    0  503    0 -0.00000000000E+00 -0.00000000000E+00 -0.99640202783E+03  0.99640202783E+03  0.00000000000E+00 0. -1.
         21    1    1    2  503  502  0.47832379406E+01  0.32320997706E+02 -0.57324628586E+02  0.65982113489E+02  0.00000000000E+00 0. -1.
         21    1    1    2  504  501  0.92403868820E+01 -0.16887833842E+03  0.18502487720E+03  0.25067804674E+03  0.00000000000E+00 0.  1.
         21    1    1    2  505  504  0.30984961374E+02  0.15260804849E+03  0.58976304454E+03  0.60997519048E+03  0.00000000000E+00 0.  1.
          1    1    1    2  501    0 -0.45008586197E+02 -0.16050707780E+02 -0.89117590119E+03  0.89245609691E+03  0.00000000000E+00 0. -1.
<scales pt_clust_3="32.67302" pt_clust_4="157.91068" pt_clust_5="14000.00000" pt_clust_6="43.06299"></scales>
<clustering>
<clus scale="   32.673">  2  3  1 -1</clus>
<clus scale="   43.063">  2  6  1 -1</clus>
<clus scale="  157.911">  2  4  1 -1</clus>
<clus scale="  157.911">  1  3  2 -1</clus>
</clustering>
</event>
<event>
 6    0  0.1560002E+002  0.1376109E+03  0.7546771E-02  0.1216580E+00
         21   -1    0    0  503  502  0.00000000000E+00  0.00000000000E+00  0.15463102300E+03  0.15463102300E+03  0.00000000000E+00 0.  1.
         -1   -1    0    0    0  501 -0.00000000000E+00 -0.00000000000E+00 -0.10799527523E+04  0.10799527523E+04  0.00000000000E+00 0. -1.
         21    1    1    2  503  504 -0.10238454020E+03 -0.39458165485E+02  0.11369322202E+03  0.15800534684E+03  0.00000000000E+00 0.  1.
         21    1    1    2  504  501  0.50710834319E+02 -0.12116180011E+02 -0.10103099232E+03  0.11369103722E+03  0.00000000000E+00 0.  1.
         21    1    1    2  505  502 -0.30989274708E+02 -0.10425505799E+02 -0.18403169153E+02  0.37519367705E+02  0.00000000000E+00 0. -1.
         -1    1    1    2    0  505  0.82662980588E+02  0.61999851296E+02 -0.91958078984E+03  0.92536802352E+03  0.00000000000E+00 0. -1.
<scales pt_clust_3="137.61087" pt_clust_4="50.93437" pt_clust_5="32.69597" pt_clust_6="14000.00000"></scales>
<clustering>
<clus scale="   32.696">  1  5  2 -1</clus>
<clus scale="   50.934">  2  4  1 -1</clus>
<clus scale="  137.611">  1  3  2 -1</clus>
<clus scale="   32.696">  1  3  2 -1</clus>
</clustering>
</event>
<event>
 6    0  0.1361744E+002  0.6459074E+02  0.7546771E-02  0.1379518E+00
         21   -1    0    0  505  502  0.00000000000E+00  0.00000000000E+00  0.23192151802E+03  0.23192151802E+03  0.00000000000E+00 0. -1.
          1   -1    0    0  503    0 -0.00000000000E+00 -0.00000000000E+00 -0.58328817668E+03  0.58328817668E+03  0.00000000000E+00 0. -1.
         21    1    1    2  503  504  0.79294773033E+02  0.51890901926E+02 -0.35806017416E+03  0.37038819508E+03  0.00000000000E+00 0.  1.
         21    1    1    2  504  502  0.13842251521E+02 -0.45995282520E+02  0.29090299493E+02  0.56155315562E+02  0.00000000000E+00 0. -1.
         21    1    1    2  505  501 -0.76228371855E+02  0.37428572508E+02  0.17037367797E+03  0.19036505157E+03  0.00000000000E+00 0. -1.
          1    1    1    2  501    0 -0.16908652698E+02 -0.43324191913E+02 -0.19277046196E+03  0.19830113248E+03  0.00000000000E+00 0. -1.
<scales pt_clust_3="64.59074" pt_clust_4="49.32101" pt_clust_5="14000.00000" pt_clust_6="46.50686"></scales>
<clustering>
<clus scale="   46.507">  2  6  1 -1</clus>
<clus scale="   49.321">  1  4  2 -1</clus>
<clus scale="   64.591">  2  3  1 -1</clus>
<clus scale="   49.321">  1  3  2 -1</clus>
</clustering>
</event>
<event>
 6    0  0.1361744E+002  0.8833526E+02  0.7546771E-02  0.1306934E+00
         21   -1    0    0  503  502  0.00000000000E+00  0.00000000000E+00  0.72382127400E+02  0.72382127400E+02  0.00000000000E+00 0. -1.
          2   -1    0    0  505    0 -0.00000000000E+00 -0.00000000000E+00 -0.22039978481E+04  0.22039978481E+04  0.00000000000E+00 0. -1.
         21    1    1    2  503  501 -0.22927231741E+02  0.31444628385E+02 -0.70035075701E+02  0.80120749111E+02  0.00000000000E+00 0. -1.
         21    1    1    2  504  502 -0.92930619865E+02 -0.21490901247E+02  0.60510271334E+01  0.95574964684E+02  0.00000000000E+00 0. -1.
         21    1    1    2  505  504  0.70225594476E+02  0.22603914572E+02 -0.68203165868E+02  0.10047010952E+03  0.00000000000E+00 0. -1.
          2    1    1    2  501    0  0.45632257130E+02 -0.32557641710E+02 -0.19994285062E+04  0.20002141522E+04  0.00000000000E+00 0. -1.
<scales pt_clust_3="38.91558" pt_clust_4="88.33526" pt_clust_5="14000.00000" pt_clust_6="55.84088"></scales>
<clustering>
<clus scale="   38.916">  1  3  2 -1</clus>
<clus scale="   55.841">  2  6  1 -1</clus>
<clus scale="   88.335">  1  4  2 -1</clus>
<clus scale="   38.916">  1  3  2 -1</clus>
</clustering>
</event>
<event>
 6    0  0.1361744E+002  0.1870296E+03  0.7546771E-02  0.1161168E+00
         -3   -1    0    0    0  501 -0.00000000000E+00  0.00000000000E+00  0.10647736591E+03  0.10647736591E+03  0.00000000000E+00 0.  1.
         21   -1    0    0  501  502  0.00000000000E+00 -0.00000000000E+00 -0.21244681422E+04  0.21244681422E+04  0.00000000000E+00 0.  1.
         21    1    1    2  503  504  0.27206327648E+02 -0.13663827621E+03 -0.12689297459E+04  0.12765550919E+04  0.00000000000E+00 0.  1.
         21    1    1    2  504  502  0.92980653378E+01 -0.36939583126E+02 -0.76767304170E+03  0.76861751592E+03  0.00000000000E+00 0.  1.
         21    1    1    2  505  503 -0.30434098973E+02  0.83993669814E+02 -0.13627511149E+02  0.90370791793E+02  0.00000000000E+00 0.  1.
         -3    1    1    2    0  505 -0.60702940132E+01  0.89584189523E+02  0.32239522472E+02  0.95402108421E+02  0.00000000000E+00 0.  1.
<scales pt_clust_3="31.01494" pt_clust_4="31.01494" pt_clust_5="51.86236" pt_clust_6="184.83821"></scales>
<clustering>
<clus scale="   31.015">  3  4 -1 -1</clus>
<clus scale="   51.862">  5  6 -1 -1</clus>
<clus scale="  184.838">  1  5  2 -1</clus>
<clus scale="  187.030">  2  3  1 -1</clus>
</clustering>
</event>
<event>
 6    0  0.1361744E+002  0.1350292E+03  0.7546771E-02  0.1220179E+00
         21   -1    0    0  501  502  0.00000000000E+00  0.00000000000E+00  0.11371689362E+03  0.11371689362E+03  0.00000000000E+00 0.  1.
          2   -1    0    0  505    0 -0.00000000000E+00 -0.00000000000E+00 -0.94948321136E+03  0.94948321136E+03  0.00000000000E+00 0.  1.
         21    1    1    2  503  504 -0.17619821555E+02 -0.47577798991E+02 -0.19251316871E+03  0.19908647668E+03  0.00000000000E+00 0.  1.
         21    1    1    2  504  502 -0.12147993163E+03  0.55774469900E+02  0.51323228690E+02  0.14318602965E+03  0.00000000000E+00 0.  1.
         21    1    1    2  505  503 -0.12028476422E+02  0.30533660130E+02 -0.72423022810E+02  0.79511526705E+02  0.00000000000E+00 0.  1.
          2    1    1    2  501    0  0.15112822961E+03 -0.38730331040E+02 -0.62215335491E+03  0.64141607195E+03  0.00000000000E+00 0.  1.
<scales pt_clust_3="45.51890" pt_clust_4="14000.00000" pt_clust_5="32.81751" pt_clust_6="135.02918"></scales>
<clustering>
<clus scale="   32.818">  2  5  1 -1</clus>
<clus scale="   45.519">  2  3  1 -1</clus>
<clus scale="  135.029">  2  6  1 -1</clus>
<clus scale="  135.029">  1  3  2 -1</clus>
</clustering>
</event>
<event>
 6    0  0.1361744E+002  0.1351377E+03  0.7546771E-02  0.1220025E+00
         21   -1    0    0  504  502  0.00000000000E+00  0.00000000000E+00  0.22607519100E+03  0.22607519100E+03  0.00000000000E+00 0. -1.
          1   -1    0    0  503    0 -0.00000000000E+00 -0.00000000000E+00 -0.78548668342E+02  0.78548668342E+02  0.00000000000E+00 0. -1.
         21    1    1    2  503  505 -0.62081069442E+02 -0.31763183373E+02  0.39687329465E+02  0.80237417214E+02  0.00000000000E+00 0. -1.
         21    1    1    2  504  501  0.66013653661E+02  0.25944182531E+02  0.50248853918E+02  0.86924394717E+02  0.00000000000E+00 0. -1.
         21    1    1    2  505  502 -0.60868525567E+02  0.21089907191E+02  0.19608000054E+02  0.67336730365E+02  0.00000000000E+00 0. -1.
          1    1    1    2  501    0  0.56935941349E+02 -0.15270906349E+02  0.37982339218E+02  0.70125317043E+02  0.00000000000E+00 0. -1.
<scales pt_clust_3="52.92023" pt_clust_4="37.02373" pt_clust_5="52.92023" pt_clust_6="129.92255"></scales>
<clustering>
<clus scale="   37.024">  4  6 -1 -1</clus>
<clus scale="   52.920">  3  5 -1 -1</clus>
<clus scale="  129.923">  1  4  2 -1</clus>
<clus scale="  129.923">  1  3  2 -1</clus>
</clustering>
</event>
<event>
 6    0  0.1361744E+002  0.6963814E+02  0.7546771E-02  0.1361328E+00
          2   -1    0    0  503    0 -0.00000000000E+00  0.00000000000E+00  0.33604434051E+04  0.33604434051E+04  0.00000000000E+00 0.  1.
         21   -1    0    0  505  502  0.00000000000E+00 -0.00000000000E+00 -0.67007486170E+01  0.67007486170E+01  0.00000000000E+00 0. -1.
         21    1    1    2  503  504 -0.34851762224E+02 -0.51693722955E+02  0.86584026796E+03  0.86808194080E+03  0.00000000000E+00 0. -1.
         21    1    1    2  504  502 -0.47301357134E+02  0.86109258040E+02  0.60023217652E+03  0.60821944102E+03  0.00000000000E+00 0. -1.
         21    1    1    2  505  501  0.43038618160E+02 -0.35174212460E+01  0.39741144234E+03  0.39975060901E+03  0.00000000000E+00 0. -1.
          2    1    1    2  501    0  0.39114501199E+02 -0.30898113839E+02  0.14902587697E+04  0.14910921629E+04  0.00000000000E+00 0.  1.
<scales pt_clust_3="69.63814" pt_clust_4="14000.00000" pt_clust_5="43.18211" pt_clust_6="52.58558"></scales>
<clustering>
<clus scale="   43.182">  2  5  1 -1</clus>
<clus scale="   52.586">  1  6  2 -1</clus>
<clus scale="   69.638">  1  3  2 -1</clus>
<clus scale="   43.182">  2  3  1 -1</clus>
</clustering>
</event>
<event>
 6    0  0.1361744E+002  0.1193949E+03  0.7546771E-02  0.1244099E+00
         21   -1    0    0  505  502  0.00000000000E+00  0.00000000000E+00  0.31838113430E+03  0.31838113430E+03  0.00000000000E+00 0.  1.
          3   -1    0    0  503    0 -0.00000000000E+00 -0.00000000000E+00 -0.81250966678E+03  0.81250966678E+03  0.00000000000E+00 0.  1.
         21    1    1    2  503  502 -0.25186126116E+02 -0.29917431309E+02 -0.32802251255E+02  0.51042936164E+02  0.00000000000E+00 0. -1.
         21    1    1    2  504  501  0.47626218568E+02 -0.17533324246E+02  0.18644852639E+03  0.19323231394E+03  0.00000000000E+00 0.  1.
         21    1    1    2  505  504  0.44630240112E+02 -0.42840380843E+02  0.10695116264E+03  0.12355447282E+03  0.00000000000E+00 0.  1.
          3    1    1    2  501    0 -0.67070332564E+02  0.90291136398E+02 -0.75472597026E+03  0.76306107816E+03  0.00000000000E+00 0.  1.
<scales pt_clust_3="39.10746" pt_clust_4="41.61321" pt_clust_5="41.61321" pt_clust_6="110.18570"></scales>
<clustering>
<clus scale="   39.107">  2  3  1 -1</clus>
<clus scale="   41.613">  4  5 -1 -1</clus>
<clus scale="  110.186">  2  6  1 -1</clus>
<clus scale="  119.395">  1  3  2 -1</clus>
</clustering>
</event>
<event>
 6    0  0.1361744E+002  0.1039004E+03  0.7546771E-02  0.1272301E+00
         -1   -1    0    0    0  501 -0.00000000000E+00  0.00000000000E+00  0.83562249188E+02  0.83562249188E+02  0.00000000000E+00 0. -1.
         21   -1    0    0  504  502  0.00000000000E+00 -0.00000000000E+00 -0.47278621331E+03  0.47278621331E+03  0.00000000000E+00 0.  1.
         21    1    1    2  503  501 -0.35375063237E+02  0.71748996268E+01 -0.39006713133E+01  0.36305502619E+02  0.00000000000E+00 0.  1.
         21    1    1    2  504  503  0.35786148187E+02  0.12520357534E+02 -0.85209154450E+02  0.93263110375E+02  0.00000000000E+00 0. -1.
         21    1    1    2  505  502  0.32363557312E+02 -0.99250729225E+02 -0.32158014852E+03  0.33810042741E+03  0.00000000000E+00 0.  1.
         -1    1    1    2    0  505 -0.32774642262E+02  0.79555472065E+02  0.21466010159E+02  0.88679422095E+02  0.00000000000E+00 0. -1.
<scales pt_clust_3="36.09535" pt_clust_4="36.07550" pt_clust_5="103.90040" pt_clust_6="14000.00000"></scales>
<clustering>
<clus scale="   36.095">  1  3  2 -1</clus>
<clus scale="   36.076">  2  4  1 -1</clus>
<clus scale="  103.900">  2  5  1 -1</clus>
<clus scale="   36.076">  2  3  1 -1</clus>
</clustering>
</event>
<event>
 6    0  0.1882774E+002  0.1259431E+03  0.7546771E-02  0.1233603E+00
         21   -1    0    0  505  502  0.00000000000E+00  0.00000000000E+00  0.12722495664E+04  0.12722495664E+04  0.00000000000E+00 0.  1.
         -4   -1    0    0    0  501 -0.00000000000E+00 -0.00000000000E+00 -0.40342170708E+03  0.40342170708E+03  0.00000000000E+00 0. -1.
         21    1    1    2  503  502  0.54492980779E+02  0.59606581691E+02  0.11523783938E+04  0.11552049135E+04  0.00000000000E+00 0.  1.
         21    1    1    2  504  503 -0.29657378379E+02  0.77681970117E+02  0.85312561939E+02  0.11913136362E+03  0.00000000000E+00 0.  1.
         21    1    1    2  505  501 -0.35222153833E+01 -0.34652914334E+02 -0.27917569147E+02  0.44638785155E+02  0.00000000000E+00 0. -1.
         -4    1    1    2    0  504 -0.21313387017E+02 -0.10263563747E+03 -0.34094552728E+03  0.35669621125E+03  0.00000000000E+00 0. -1.
<scales pt_clust_3="80.65400" pt_clust_4="125.94311" pt_clust_5="34.83146" pt_clust_6="14000.00000"></scales>
<clustering>
<clus scale="   34.831">  2  5  1 -1</clus>
<clus scale="   80.654">  1  3  2 -1</clus>
<clus scale="  125.943">  1  4  2 -1</clus>
<clus scale="   80.654">  1  3  2 -1</clus>
</clustering>
</event>
<event>
 6    0  0.1361744E+002  0.1441639E+03  0.7546771E-02  0.1207833E+00
          2   -1    0    0  503    0 -0.00000000000E+00  0.00000000000E+00  0.26067049444E+04  0.26067049444E+04  0.00000000000E+00 0. -1.
         21   -1    0    0  501  502  0.00000000000E+00 -0.00000000000E+00 -0.68671477338E+02  0.68671477338E+02  0.00000000000E+00 0. -1.
         21    1    1    2  503  504  0.12873144421E+03 -0.54725759380E+02  0.24893593632E+04  0.24932863319E+04  0.00000000000E+00 0. -1.
         21    1    1    2  504  505 -0.57393233507E+02  0.34765637432E+02 -0.15853609727E+01  0.67120385635E+02  0.00000000000E+00 0. -1.
         21    1    1    2  505  502 -0.53290737433E+02 -0.53059453792E+01 -0.26528529081E+01  0.53619897250E+02  0.00000000000E+00 0. -1.
          2    1    1    2  501    0 -0.18047473267E+02  0.25266067327E+02  0.52912317728E+02  0.61349806983E+02  0.00000000000E+00 0. -1.
<scales pt_clust_3="139.07477" pt_clust_4="32.75009" pt_clust_5="32.75009" pt_clust_6="31.04973"></scales>
<clustering>
<clus scale="   31.050">  2  6  1 -1</clus>
<clus scale="   32.750">  4  5 -1 -1</clus>
<clus scale="  139.075">  1  3  2 -1</clus>
<clus scale="   31.050">  2  3  1 -1</clus>
</clustering>
</event>
<event>
 6    0  0.1361744E+002  0.1333356E+03  0.7546771E-02  0.1222589E+00
         21   -1    0    0  501  502  0.00000000000E+00  0.00000000000E+00  0.21917435978E+03  0.21917435978E+03  0.00000000000E+00 0. -1.
          2   -1    0    0  504    0 -0.00000000000E+00 -0.00000000000E+00 -0.62506448294E+03  0.62506448294E+03  0.00000000000E+00 0.  1.
         21    1    1    2  503  505  0.26852738063E+02  0.33929983319E+02  0.57570191865E+02  0.72018333089E+02  0.00000000000E+00 0. -1.
         21    1    1    2  504  503 -0.24651304415E+02 -0.36220124409E+02 -0.10481365887E+03  0.11360232087E+03  0.00000000000E+00 0.  1.
         21    1    1    2  505  502 -0.76511621161E+01  0.91236781756E+02  0.13161222472E+03  0.16032613113E+03  0.00000000000E+00 0. -1.
          2    1    1    2  501    0  0.54497284680E+01 -0.88946640666E+02 -0.49025888087E+03  0.49829205763E+03  0.00000000000E+00 0.  1.
<scales pt_clust_3="31.93958" pt_clust_4="43.81306" pt_clust_5="31.93958" pt_clust_6="124.97939"></scales>
<clustering>
<clus scale="   31.940">  3  5 -1 -1</clus>
<clus scale="   43.813">  2  4  1 -1</clus>
<clus scale="  124.979">  2  6  1 -1</clus>
<clus scale="  133.336">  1  3  2 -1</clus>
</clustering>
</event>
<event>
 6    0  0.1361744E+002  0.1081952E+03  0.7546771E-02  0.1263949E+00
         21   -1    0    0  503  502  0.00000000000E+00  0.00000000000E+00  0.68543584537E+02  0.68543584537E+02  0.00000000000E+00 0.  1.
          2   -1    0    0  504    0 -0.00000000000E+00 -0.00000000000E+00 -0.55977152225E+03  0.55977152225E+03  0.00000000000E+00 0. -1.
         21    1    1    2  503  501  0.16227543217E+01  0.99654510681E+02 -0.32374707768E+02  0.10479397184E+03  0.00000000000E+00 0.  1.
         21    1    1    2  504  505  0.14766613932E+02 -0.59468960745E+02 -0.12766281221E+03  0.14160651045E+03  0.00000000000E+00 0.  1.
         21    1    1    2  505  502  0.68766797258E+02  0.23098049884E+02 -0.73650037079E+02  0.10337659443E+03  0.00000000000E+00 0.  1.
          2    1    1    2  501    0 -0.85156165512E+02 -0.63283599820E+02 -0.25754038065E+03  0.27853803008E+03  0.00000000000E+00 0. -1.
<scales pt_clust_3="14000.00000" pt_clust_4="61.27487" pt_clust_5="72.63611" pt_clust_6="108.19524"></scales>
<clustering>
<clus scale="   61.275">  2  4  1 -1</clus>
<clus scale="   72.636">  1  5  2 -1</clus>
<clus scale="  108.195">  2  6  1 -1</clus>
<clus scale="   72.636">  1  3  2 -1</clus>
</clustering>
</event>
<event>
 6    0  0.1361744E+002  0.8733365E+02  0.7546771E-02  0.1309440E+00
         -4   -1    0    0    0  501 -0.00000000000E+00  0.00000000000E+00  0.87647994311E+03  0.87647994311E+03  0.00000000000E+00 0.  1.
         21   -1    0    0  505  502  0.00000000000E+00 -0.00000000000E+00 -0.21707122874E+03  0.21707122874E+03  0.00000000000E+00 0.  1.
         21    1    1    2  503  502 -0.88042336640E+02 -0.31907052744E+01 -0.19043371530E+03  0.20982524530E+03  0.00000000000E+00 0.  1.
         21    1    1    2  504  501 -0.24272232909E+02  0.28198765785E+02  0.33021747532E+02  0.49746833993E+02  0.00000000000E+00 0. -1.
         21    1    1    2  505  504  0.47849537935E+02  0.39474710759E+02  0.51398536716E+03  0.51771496861E+03  0.00000000000E+00 0.  1.
         -4    1    1    2    0  503  0.64465031614E+02 -0.64482771270E+02  0.30283531498E+03  0.31626412394E+03  0.00000000000E+00 0.  1.
<scales pt_clust_3="87.33365" pt_clust_4="37.20634" pt_clust_5="65.69932" pt_clust_6="14000.00000"></scales>
<clustering>
<clus scale="   37.206">  1  4  2 -1</clus>
<clus scale="   65.699">  1  5  2 -1</clus>
<clus scale="   87.334">  2  3  1 -1</clus>
<clus scale="   87.334">  2  3  1 -1</clus>
</clustering>
</event>
<event>
 6    0  0.1361744E+002  0.1706230E+03  0.7546771E-02  0.1177200E+00
          2   -1    0    0  504    0 -0.00000000000E+00  0.00000000000E+00  0.13857274693E+04  0.13857274693E+04  0.00000000000E+00 0. -1.
         21   -1    0    0  505  502  0.00000000000E+00 -0.00000000000E+00 -0.82468954681E+02  0.82468954681E+02  0.00000000000E+00 0.  1.
         21    1    1    2  503  501  0.12469667605E+02  0.88308817425E+02  0.59146479875E+03  0.59815094082E+03  0.00000000000E+00 0. -1.
         21    1    1    2  504  502 -0.11528261648E+03 -0.33264008302E+02  0.86200212758E+02  0.14773981383E+03  0.00000000000E+00 0.  1.
         21    1    1    2  505  503  0.27679513652E+02 -0.11315475387E+03  0.31510489867E+02  0.12067752389E+03  0.00000000000E+00 0.  1.
          2    1    1    2  501    0  0.75133435219E+02  0.58109944751E+02  0.59408301330E+03  0.60162814550E+03  0.00000000000E+00 0. -1.
<scales pt_clust_3="67.36781" pt_clust_4="155.81632" pt_clust_5="116.49100" pt_clust_6="67.36781"></scales>
<clustering>
<clus scale="   67.368">  3  6 -1 -1</clus>
<clus scale="  116.491">  2  5  1 -1</clus>
<clus scale="  155.816">  2  4  1 -1</clus>
<clus scale="  116.491">  2  3  1 -1</clus>
</clustering>
</event>
<event>
 6    0  0.1361744E+002  0.7610607E+02  0.7546771E-02  0.1340480E+00
          2   -1    0    0  503    0 -0.00000000000E+00  0.00000000000E+00  0.19729207188E+04  0.19729207188E+04  0.00000000000E+00 0.  1.
         21   -1    0    0  504  502  0.00000000000E+00 -0.00000000000E+00 -0.59397497276E+02  0.59397497276E+02  0.00000000000E+00 0. -1.
         21    1    1    2  503  505 -0.11377288422E+02 -0.48023572850E+02  0.85742233034E+03  0.85884152136E+03  0.00000000000E+00 0. -1.
         21    1    1    2  504  501  0.22840121738E+01 -0.48811670465E+02  0.28999445116E+02  0.56822211346E+02  0.00000000000E+00 0.  1.
         21    1    1    2  505  502  0.53325938319E+02 -0.42969125075E+01 -0.24807010012E+02  0.58970390031E+02  0.00000000000E+00 0. -1.
          2    1    1    2  501    0 -0.44232662071E+02  0.10113215582E+03  0.10519084561E+04  0.10576840933E+04  0.00000000000E+00 0.  1.
<scales pt_clust_3="50.08607" pt_clust_4="48.86508" pt_clust_5="14000.00000" pt_clust_6="76.10607"></scales>
<clustering>
<clus scale="   48.865">  2  4  1 -1</clus>
<clus scale="   50.086">  1  3  2 -1</clus>
<clus scale="   76.106">  1  6  2 -1</clus>
<clus scale="   48.865">  2  3  1 -1</clus>
</clustering>
</event>
<event>
 6    0  0.1361744E+002  0.7235474E+02  0.7546771E-02  0.1352264E+00
         21   -1    0    0  504  502  0.00000000000E+00  0.00000000000E+00  0.11233079247E+04  0.11233079247E+04  0.00000000000E+00 0.  1.
          2   -1    0    0  503    0 -0.00000000000E+00 -0.00000000000E+00 -0.34309667272E+03  0.34309667272E+03  0.00000000000E+00 0. -1.
         21    1    1    2  503  505  0.27807430298E+02  0.31291360006E+02  0.10621356551E+02  0.43188141958E+02  0.00000000000E+00 0.  1.
         21    1    1    2  504  501  0.11625236547E+02  0.61924163434E+02  0.12268750131E+03  0.13792016212E+03  0.00000000000E+00 0.  1.
         21    1    1    2  505  502 -0.81887188670E+02 -0.41876211871E+02  0.96040230619E+03  0.96479620569E+03  0.00000000000E+00 0.  1.
          2    1    1    2  501    0  0.42454521824E+02 -0.51339311569E+02 -0.31349991205E+03  0.32050008766E+03  0.00000000000E+00 0. -1.
<scales pt_clust_3="41.86171" pt_clust_4="63.84420" pt_clust_5="72.35474" pt_clust_6="14000.00000"></scales>
<clustering>
<clus scale="   41.862">  2  3  1 -1</clus>
<clus scale="   63.844">  1  4  2 -1</clus>
<clus scale="   72.355">  1  5  2 -1</clus>
<clus scale="   63.844">  1  3  2 -1</clus>
</clustering>
</event>
<event>
 6    0  0.1361744E+002  0.1650752E+03  0.7546771E-02  0.1183083E+00
         21   -1    0    0  505  502  0.00000000000E+00  0.00000000000E+00  0.75310012745E+03  0.75310012745E+03  0.00000000000E+00 0. -1.
          2   -1    0    0  502    0 -0.00000000000E+00 -0.00000000000E+00 -0.30074631204E+03  0.30074631204E+03  0.00000000000E+00 0. -1.
         21    1    1    2  503  501 -0.99115527532E+01  0.42632009215E+02 -0.31850683912E+02  0.54131258560E+02  0.00000000000E+00 0. -1.
         21    1    1    2  504  503  0.17396121292E+01 -0.51706324569E+02  0.14467521438E+03  0.15364728408E+03  0.00000000000E+00 0. -1.
         21    1    1    2  505  504  0.39363069458E+02 -0.96671124322E+02  0.57588269726E+03  0.58526544279E+03  0.00000000000E+00 0. -1.
          2    1    1    2  501    0 -0.31191128834E+02  0.10574543968E+03 -0.23635341231E+03  0.26080245406E+03  0.00000000000E+00 0. -1.
<scales pt_clust_3="37.51222" pt_clust_4="39.09112" pt_clust_5="163.67136" pt_clust_6="37.51222"></scales>
<clustering>
<clus scale="   37.512">  3  6 -1 -1</clus>
<clus scale="   39.091">  4  5 -1 -1</clus>
<clus scale="  163.671">  1  4  2 -1</clus>
<clus scale="  163.671">  1  3  2 -1</clus>
</clustering>
</event>
<event>
 6    0  0.1361744E+002  0.8303275E+02  0.7546771E-02  0.1320659E+00
         21   -1    0    0  504  502  0.00000000000E+00  0.00000000000E+00  0.31110666798E+02  0.31110666798E+02  0.00000000000E+00 0.  1.
          2   -1    0    0  505    0 -0.00000000000E+00 -0.00000000000E+00 -0.87900608465E+03  0.87900608465E+03  0.00000000000E+00 0.  1.
         21    1    1    2  503  502 -0.20810090740E+02  0.99153983313E+02 -0.38163947510E+03  0.39485853320E+03  0.00000000000E+00 0.  1.
         21    1    1    2  504  501  0.32738290095E+01 -0.78975436892E+02 -0.72623293640E+02  0.10734048802E+03  0.00000000000E+00 0.  1.
         21    1    1    2  505  503  0.37345213476E+02  0.32892643732E+02 -0.20562170169E+03  0.21155820757E+03  0.00000000000E+00 0.  1.
          2    1    1    2  501    0 -0.19808951746E+02 -0.53071190153E+02 -0.18801094742E+03  0.19635952267E+03  0.00000000000E+00 0.  1.
<scales pt_clust_3="83.03275" pt_clust_4="14000.00000" pt_clust_5="49.76536" pt_clust_6="44.58134"></scales>
<clustering>
<clus scale="   49.765">  2  5  1 -1</clus>
<clus scale="   44.581">  2  6  1 -1</clus>
<clus scale="   83.033">  2  3  1 -1</clus>
<clus scale="   83.033">  1  3  2 -1</clus>
</clustering>
</event>
<event>
 6    0  0.1361744E+002  0.1157011E+03  0.7546771E-02  0.1250362E+00
          1   -1    0    0  505    0 -0.00000000000E+00  0.00000000000E+00  0.27606211721E+04  0.27606211721E+04  0.00000000000E+00 0. -1.
         21   -1    0    0  503  502  0.00000000000E+00 -0.00000000000E+00 -0.24939856147E+02  0.24939856147E+02  0.00000000000E+00 0. -1.
         21    1    1    2  503  501 -0.67585397624E+02  0.38637031486E+02  0.11475895377E+03  0.13867308190E+03  0.00000000000E+00 0.  1.
         21    1    1    2  504  502  0.90815168016E+02  0.58328494716E+00  0.28992013305E+03  0.30381148515E+03  0.00000000000E+00 0. -1.
         21    1    1    2  505  504  0.10105745961E+03  0.14556126522E+02  0.98085394224E+03  0.98615361226E+03  0.00000000000E+00 0. -1.
          1    1    1    2  501    0 -0.12428723000E+03 -0.53776442955E+02  0.13501482869E+04  0.13569228489E+04  0.00000000000E+00 0. -1.
<scales pt_clust_3="77.84990" pt_clust_4="58.64447" pt_clust_5="14000.00000" pt_clust_6="115.70109"></scales>
<clustering>
<clus scale="   77.850">  2  3  1 -1</clus>
<clus scale="   58.644">  2  4  1 -1</clus>
<clus scale="  115.701">  2  6  1 -1</clus>
<clus scale="   77.850">  2  3  1 -1</clus>
</clustering>
</event>
<event>
 6    0  0.1361744E+002  0.1344189E+03  0.7546771E-02  0.1221042E+00
          1   -1    0    0  503    0 -0.00000000000E+00  0.00000000000E+00  0.32692072048E+03  0.32692072048E+03  0.00000000000E+00 0.  1.
         21   -1    0    0  501  502  0.00000000000E+00 -0.00000000000E+00 -0.69328506291E+03  0.69328506291E+03  0.00000000000E+00 0.  1.
         21    1    1    2  503  504  0.51413434387E+02 -0.89329560976E+01  0.49190486833E+02  0.71713617500E+02  0.00000000000E+00 0.  1.
         21    1    1    2  504  505 -0.80483037423E+02 -0.24049235259E+02 -0.33348953602E+03  0.34390573660E+03  0.00000000000E+00 0.  1.
         21    1    1    2  505  502 -0.43583668351E+02  0.15621040375E+02 -0.33636816351E+03  0.33953953300E+03  0.00000000000E+00 0.  1.
          1    1    1    2  501    0  0.72653271387E+02  0.17361150981E+02  0.25430287027E+03  0.26504689629E+03  0.00000000000E+00 0.  1.
<scales pt_clust_3="52.18370" pt_clust_4="40.14882" pt_clust_5="40.14882" pt_clust_6="123.06069"></scales>
<clustering>
<clus scale="   40.149">  4  5 -1 -1</clus>
<clus scale="   52.184">  1  3  2 -1</clus>
<clus scale="  123.061">  1  6  2 -1</clus>
<clus scale="  134.419">  2  3  1 -1</clus>
</clustering>
</event>
<event>
 6    0  0.1361744E+002  0.1197031E+03  0.7546771E-02  0.1243588E+00
          1   -1    0    0  504    0 -0.00000000000E+00  0.00000000000E+00  0.22528700732E+03  0.22528700732E+03  0.00000000000E+00 0.  1.
         21   -1    0    0  505  502  0.00000000000E+00 -0.00000000000E+00 -0.15903504902E+03  0.15903504902E+03  0.00000000000E+00 0. -1.
         21    1    1    2  503  502  0.81339186002E+02  0.75168596080E+02 -0.90407027770E+02  0.14296786942E+03  0.00000000000E+00 0. -1.
         21    1    1    2  504  503  0.13558612634E+02  0.28986206726E+02  0.67430778928E+01  0.32703291216E+02  0.00000000000E+00 0. -1.
         21    1    1    2  505  501 -0.42459702199E+02 -0.58254416430E+02  0.53894909666E+02  0.90005914429E+02  0.00000000000E+00 0. -1.
          1    1    1    2  501    0 -0.52438096438E+02 -0.45900386376E+02  0.96020998509E+02  0.11864498128E+03  0.00000000000E+00 0.  1.
<scales pt_clust_3="114.55226" pt_clust_4="32.00056" pt_clust_5="32.89115" pt_clust_6="32.89115"></scales>
<clustering>
<clus scale="   32.001">  1  4  2 -1</clus>
<clus scale="   32.891">  5  6 -1 -1</clus>
<clus scale="  114.552">  2  3  1 -1</clus>
<clus scale="  114.552">  2  3  1 -1</clus>
</clustering>
</event>
<event>
 6    0  0.1361744E+002  0.1299371E+03  0.7546771E-02  0.1227549E+00
         21   -1    0    0  505  502  0.00000000000E+00  0.00000000000E+00  0.77346668783E+03  0.77346668783E+03  0.00000000000E+00 0.  1.
          1   -1    0    0  502    0 -0.00000000000E+00 -0.00000000000E+00 -0.44042617098E+03  0.44042617098E+03  0.00000000000E+00 0. -1.
         21    1    1    2  503  504 -0.12062610361E+01 -0.55763648836E+02  0.38080361132E+03  0.38486676915E+03  0.00000000000E+00 0.  1.
         21    1    1    2  504  501 -0.18836943997E+02 -0.71467385544E+02  0.45178302783E+02  0.86622726221E+02  0.00000000000E+00 0.  1.
         21    1    1    2  505  503  0.31397212253E+02 -0.13040420123E+02  0.31192669225E+03  0.31377396137E+03  0.00000000000E+00 0. -1.
          1    1    1    2  501    0 -0.11354007221E+02  0.14027145450E+03 -0.40486808950E+03  0.42862940208E+03  0.00000000000E+00 0. -1.
<scales pt_clust_3="71.10061" pt_clust_4="14000.00000" pt_clust_5="33.99761" pt_clust_6="129.93706"></scales>
<clustering>
<clus scale="   33.998">  1  5  2 -1</clus>
<clus scale="   71.101">  1  3  2 -1</clus>
<clus scale="  129.937">  2  6  1 -1</clus>
<clus scale="   33.998">  1  3  2 -1</clus>
</clustering>
</event>
<event>
 6    0  0.1361744E+002  0.2290910E+03  0.7546771E-02  0.1127281E+00
         21   -1    0    0  505  502  0.00000000000E+00  0.00000000000E+00  0.53516297481E+03  0.53516297481E+03  0.00000000000E+00 0.  1.
          2   -1    0    0  504    0 -0.00000000000E+00 -0.00000000000E+00 -0.41026503048E+03  0.41026503048E+03  0.00000000000E+00 0.  1.
         21    1    1    2  503  502  0.30364941008E+02 -0.12875745705E+03  0.24275593726E+03  0.27646149364E+03  0.00000000000E+00 0.  1.
         21    1    1    2  504  503 -0.34157675430E+02 -0.21535050482E+03  0.65834858840E+02  0.22776482467E+03  0.00000000000E+00 0.  1.
         21    1    1    2  505  501 -0.94848939323E+02  0.12888146868E+03 -0.42603235956E+02  0.16559525951E+03  0.00000000000E+00 0.  1.
          2    1    1    2  501    0  0.98641673745E+02  0.21522649319E+03 -0.14108961581E+03  0.27560642747E+03  0.00000000000E+00 0.  1.
<scales pt_clust_3="132.28950" pt_clust_4="229.09104" pt_clust_5="133.36430" pt_clust_6="14000.00000"></scales>
<clustering>
<clus scale="  132.290">  1  3  2 -1</clus>
<clus scale="  133.364">  1  5  2 -1</clus>
<clus scale="  229.091">  1  4  2 -1</clus>
<clus scale="  132.290">  1  3  2 -1</clus>
</clustering>
</event>
<event>
 6    0  0.1361744E+002  0.9038888E+02  0.7546771E-02  0.1301913E+00
         -1   -1    0    0    0  501 -0.00000000000E+00  0.00000000000E+00  0.75964740437E+02  0.75964740437E+02  0.00000000000E+00 0. -1.
         21   -1    0    0  505  502  0.00000000000E+00 -0.00000000000E+00 -0.63152897936E+03  0.63152897936E+03  0.00000000000E+00 0. -1.
         21    1    1    2  503  502  0.26571731128E+02  0.51914538961E+02 -0.11199077914E+03  0.12626603210E+03  0.00000000000E+00 0.  1.
         21    1    1    2  504  501 -0.21305800656E+02  0.24747325390E+02 -0.19964820417E+02  0.38274812995E+02  0.00000000000E+00 0. -1.
         21    1    1    2  505  504 -0.98713506703E+02 -0.92151505774E+02 -0.42732736706E+03  0.44815726599E+03  0.00000000000E+00 0. -1.
         -1    1    1    2    0  503  0.93447576231E+02  0.15489641422E+02  0.37187276917E+01  0.94795608709E+02  0.00000000000E+00 0. -1.
<scales pt_clust_3="59.72348" pt_clust_4="32.65528" pt_clust_5="14000.00000" pt_clust_6="90.38888"></scales>
<clustering>
<clus scale="   32.655">  1  4  2 -1</clus>
<clus scale="   59.723">  2  3  1 -1</clus>
<clus scale="   90.389">  1  6  2 -1</clus>
<clus scale="   59.723">  2  3  1 -1</clus>
</clustering>
</event>
<event>
 6    0  0.1361744E+002  0.1806337E+03  0.7546771E-02  0.1167191E+00
         21   -1    0    0  501  502  0.00000000000E+00  0.00000000000E+00  0.50495973204E+02  0.50495973204E+02  0.00000000000E+00 0.  1.
          2   -1    0    0  503    0 -0.00000000000E+00 -0.00000000000E+00 -0.27181119776E+04  0.27181119776E+04  0.00000000000E+00 0. -1.
         21    1    1    2  503  505 -0.32709426582E+02 -0.15307477094E+02 -0.29127683197E+03  0.29350710091E+03  0.00000000000E+00 0.  1.
         21    1    1    2  504  502  0.23966699828E+02 -0.64759857643E+02 -0.48986296958E+02  0.84663446376E+02  0.00000000000E+00 0.  1.
         21    1    1    2  505  504 -0.57687684917E+02 -0.93801281550E+02 -0.81784943483E+02  0.13716897022E+03  0.00000000000E+00 0.  1.
          2    1    1    2  501    0  0.66430411670E+02  0.17386861629E+03 -0.22455679320E+04  0.22532684333E+04  0.00000000000E+00 0. -1.
<scales pt_clust_3="36.11406" pt_clust_4="60.12944" pt_clust_5="60.12944" pt_clust_6="163.70332"></scales>
<clustering>
<clus scale="   36.114">  2  3  1 -1</clus>
<clus scale="   60.129">  4  5 -1 -1</clus>
<clus scale="  163.703">  2  6  1 -1</clus>
<clus scale="  180.634">  1  3  2 -1</clus>
</clustering>
</event>
<event>
 6    0  0.1361744E+002  0.5409385E+02  0.7546771E-02  0.1424433E+00
          1   -1    0    0  503    0 -0.00000000000E+00  0.00000000000E+00  0.18268758993E+04  0.18268758993E+04  0.00000000000E+00 0.  1.
         21   -1    0    0  501  502  0.00000000000E+00 -0.00000000000E+00 -0.20212184354E+03  0.20212184354E+03  0.00000000000E+00 0. -1.
         21    1    1    2  503  505  0.42025361684E+02 -0.40578489146E+02  0.73515155987E+03  0.73746902361E+03  0.00000000000E+00 0.  1.
         21    1    1    2  504  502 -0.39763920732E+02 -0.33142447810E+02 -0.13054292871E+03  0.14043164699E+03  0.00000000000E+00 0. -1.
         21    1    1    2  505  504  0.42466436070E+02  0.86815676105E+02 -0.29011099229E+02  0.10090591503E+03  0.00000000000E+00 0. -1.
          1    1    1    2  501    0 -0.44727877021E+02 -0.13094739149E+02  0.10491565238E+04  0.10501911572E+04  0.00000000000E+00 0.  1.
<scales pt_clust_3="54.09385" pt_clust_4="52.03682" pt_clust_5="14000.00000" pt_clust_6="46.60531"></scales>
<clustering>
<clus scale="   46.605">  1  6  2 -1</clus>
<clus scale="   52.037">  2  4  1 -1</clus>
<clus scale="   54.094">  1  3  2 -1</clus>
<clus scale="   52.037">  2  3  1 -1</clus>
</clustering>
</event>
<event>
 6    0  0.1361744E+002  0.1154778E+03  0.7546771E-02  0.1250749E+00
          1   -1    0    0  505    0 -0.00000000000E+00  0.00000000000E+00  0.11069269795E+04  0.11069269795E+04  0.00000000000E+00 0.  1.
         21   -1    0    0  504  502  0.00000000000E+00 -0.00000000000E+00 -0.13991239421E+03  0.13991239421E+03  0.00000000000E+00 0.  1.
         21    1    1    2  503  502 -0.72244893113E+02  0.10652386025E+03 -0.32507804588E+02  0.13275320991E+03  0.00000000000E+00 0.  1.
         21    1    1    2  504  501 -0.26325843945E+02 -0.11801088084E+03  0.14294411810E+02  0.12175363758E+03  0.00000000000E+00 0.  1.
         21    1    1    2  505  503  0.30076389832E+02 -0.20107730197E+02  0.18136285050E+03  0.18493618786E+03  0.00000000000E+00 0. -1.
          1    1    1    2  501    0  0.68494347226E+02  0.31594750789E+02  0.80386512759E+03  0.80739633838E+03  0.00000000000E+00 0.  1.
<scales pt_clust_3="115.47783" pt_clust_4="14000.00000" pt_clust_5="36.17886" pt_clust_6="95.76171"></scales>
<clustering>
<clus scale="   36.179">  1  5  2 -1</clus>
<clus scale="   95.762">  1  6  2 -1</clus>
<clus scale="  115.478">  2  3  1 -1</clus>
<clus scale="  115.478">  2  3  1 -1</clus>
</clustering>
</event>
<event>
 6    0  0.1361744E+002  0.2322167E+03  0.7546771E-02  0.1125089E+00
         -2   -1    0    0    0  501 -0.00000000000E+00  0.00000000000E+00  0.44499755396E+03  0.44499755396E+03  0.00000000000E+00 0. -1.
         21   -1    0    0  503  502  0.00000000000E+00 -0.00000000000E+00 -0.18222765161E+03  0.18222765161E+03  0.00000000000E+00 0. -1.
         21    1    1    2  503  501  0.15535580491E+03 -0.13784476591E+03 -0.11353801046E+02  0.20800364037E+03  0.00000000000E+00 0. -1.
         21    1    1    2  504  502  0.30131542847E+02  0.76466603023E+01 -0.23152100478E+02  0.38760818421E+02  0.00000000000E+00 0. -1.
         21    1    1    2  505  504 -0.34266470481E+02  0.62599447655E+02  0.79190425268E+02  0.10660208863E+03  0.00000000000E+00 0. -1.
         -2    1    1    2    0  505 -0.15122087728E+03  0.67598657954E+02  0.21808537861E+03  0.27385865815E+03  0.00000000000E+00 0. -1.
<scales pt_clust_3="221.14294" pt_clust_4="31.08667" pt_clust_5="46.93074" pt_clust_6="46.93074"></scales>
<clustering>
<clus scale="   31.087">  2  4  1 -1</clus>
<clus scale="   46.931">  5  6 -1 -1</clus>
<clus scale="  221.143">  2  3  1 -1</clus>
<clus scale="   31.087">  2  3  1 -1</clus>
</clustering>
</event>
<event>
 6    0  0.1361744E+002  0.1163214E+03  0.7546771E-02  0.1249292E+00
          2   -1    0    0  503    0 -0.00000000000E+00  0.00000000000E+00  0.48756655906E+02  0.48756655906E+02  0.00000000000E+00 0.  1.
         21   -1    0    0  505  502  0.00000000000E+00 -0.00000000000E+00 -0.14333787146E+04  0.14333787146E+04  0.00000000000E+00 0.  1.
         21    1    1    2  503  504 -0.12766975169E+02 -0.33517839803E+02 -0.49574359626E+01  0.36207974417E+02  0.00000000000E+00 0.  1.
         21    1    1    2  504  502  0.12834890437E+02 -0.37398732227E+02 -0.14269855622E+03  0.14807524280E+03  0.00000000000E+00 0. -1.
         21    1    1    2  505  501  0.48435108353E+02 -0.63865303504E+02 -0.10888671424E+04  0.10918133497E+04  0.00000000000E+00 0.  1.
          2    1    1    2  501    0 -0.48503023622E+02  0.13478187553E+03 -0.14809892412E+03  0.20603880362E+03  0.00000000000E+00 0.  1.
<scales pt_clust_3="35.86699" pt_clust_4="41.81751" pt_clust_5="116.32139" pt_clust_6="14000.00000"></scales>
<clustering>
<clus scale="   35.867">  1  3  2 -1</clus>
<clus scale="   41.818">  2  4  1 -1</clus>
<clus scale="  116.321">  2  5  1 -1</clus>
<clus scale="   41.818">  2  3  1 -1</clus>
</clustering>
</event>
<event>
 6    0  0.1361744E+002  0.1901449E+03  0.7546771E-02  0.1158331E+00
         -3   -1    0    0    0  501 -0.00000000000E+00  0.00000000000E+00  0.84144589311E+03  0.84144589311E+03  0.00000000000E+00 0. -1.
         21   -1    0    0  504  502  0.00000000000E+00 -0.00000000000E+00 -0.95446820628E+03  0.95446820628E+03  0.00000000000E+00 0.  1.
         21    1    1    2  503  501  0.77445772277E+02  0.16442141170E+01  0.54825000335E+02  0.94901695166E+02  0.00000000000E+00 0.  1.
         21    1    1    2  504  503 -0.64561335160E+02 -0.20294919013E+02 -0.16005963135E+03  0.17377898412E+03  0.00000000000E+00 0.  1.
         21    1    1    2  505  502 -0.97167897546E+02  0.12596429839E+03 -0.75300476559E+03  0.76962639104E+03  0.00000000000E+00 0.  1.
         -3    1    1    2    0  505  0.84283460429E+02 -0.10731359349E+03  0.74521708343E+03  0.75760702907E+03  0.00000000000E+00 0. -1.
<scales pt_clust_3="75.81147" pt_clust_4="67.67606" pt_clust_5="14000.00000" pt_clust_6="190.14487"></scales>
<clustering>
<clus scale="   67.676">  2  4  1 -1</clus>
<clus scale="   75.811">  1  3  2 -1</clus>
<clus scale="  190.145">  1  6  2 -1</clus>
<clus scale="   67.676">  2  3  1 -1</clus>
</clustering>
</event>
<event>
 6    0  0.1361744E+002  0.1060083E+03  0.7546771E-02  0.1268146E+00
         21   -1    0    0  503  502  0.00000000000E+00  0.00000000000E+00  0.35076478134E+03  0.35076478134E+03  0.00000000000E+00 0. -1.
          4   -1    0    0  505    0 -0.00000000000E+00 -0.00000000000E+00 -0.33194464573E+03  0.33194464573E+03  0.00000000000E+00 0. -1.
         21    1    1    2  503  504  0.16489746499E+03 -0.93851973180E+02  0.11632791693E+03  0.22255684912E+03  0.00000000000E+00 0. -1.
         21    1    1    2  504  501 -0.42410547871E+02  0.51364378116E+02 -0.75858143859E+02  0.10095252300E+03  0.00000000000E+00 0.  1.
         21    1    1    2  505  502 -0.88898823404E+02  0.94433815338E+01  0.15360261871E+03  0.17772434479E+03  0.00000000000E+00 0. -1.
          4    1    1    2  501    0 -0.33588093720E+02  0.33044213530E+02 -0.17525225617E+03  0.18147571016E+03  0.00000000000E+00 0. -1.
<scales pt_clust_3="106.00834" pt_clust_4="14000.00000" pt_clust_5="92.32475" pt_clust_6="47.11773"></scales>
<clustering>
<clus scale="   47.118">  2  6  1 -1</clus>
<clus scale="   92.325">  1  5  2 -1</clus>
<clus scale="  106.008">  1  3  2 -1</clus>
<clus scale="   92.325">  1  3  2 -1</clus>
</clustering>
</event>
<event>
 6    0  0.1361744E+002  0.2933826E+03  0.7546771E-02  0.1088596E+00
         21   -1    0    0  504  502  0.00000000000E+00  0.00000000000E+00  0.13349003409E+03  0.13349003409E+03  0.00000000000E+00 0. -1.
         -1   -1    0    0    0  501 -0.00000000000E+00 -0.00000000000E+00 -0.15671527814E+04  0.15671527814E+04  0.00000000000E+00 0. -1.
         21    1    1    2  503  505  0.90822922238E+02 -0.19932919144E+03 -0.62358415754E+02  0.22774876899E+03  0.00000000000E+00 0. -1.
         21    1    1    2  504  503 -0.13299233965E+02 -0.70581783768E+02 -0.13283118555E+02  0.73041762455E+02  0.00000000000E+00 0. -1.
         21    1    1    2  505  501 -0.21671717406E+02 -0.25314878676E+02 -0.74195151141E+02  0.81335274455E+02  0.00000000000E+00 0. -1.
         -1    1    1    2    0  502 -0.55851970867E+02  0.29522585388E+03 -0.12838260619E+04  0.13185170096E+04  0.00000000000E+00 0. -1.
<scales pt_clust_3="44.06843" pt_clust_4="44.06843" pt_clust_5="33.32426" pt_clust_6="283.16408"></scales>
<clustering>
<clus scale="   33.324">  2  5  1 -1</clus>
<clus scale="   44.068">  3  4 -1 -1</clus>
<clus scale="  283.164">  2  6  1 -1</clus>
<clus scale="  293.383">  1  3  2 -1</clus>
</clustering>
</event>
<event>
 6    0  0.1361744E+002  0.9186328E+02  0.7546771E-02  0.1298401E+00
          1   -1    0    0  505    0 -0.00000000000E+00  0.00000000000E+00  0.24621318269E+03  0.24621318269E+03  0.00000000000E+00 0.  1.
         21   -1    0    0  504  502  0.00000000000E+00 -0.00000000000E+00 -0.44363456660E+03  0.44363456660E+03  0.00000000000E+00 0.  1.
         21    1    1    2  503  502  0.30311886672E+02 -0.61403375935E+02 -0.14211711309E+03  0.15775442587E+03  0.00000000000E+00 0.  1.
         21    1    1    2  504  501 -0.42501274933E+02 -0.35655125606E+02 -0.25599983954E+03  0.26194190997E+03  0.00000000000E+00 0.  1.
         21    1    1    2  505  503 -0.29057691856E+02 -0.10619245829E+02 -0.77904711893E+01  0.31903123348E+02  0.00000000000E+00 0.  1.
          1    1    1    2  501    0  0.41247080118E+02  0.10767774737E+03  0.20848603991E+03  0.23824829010E+03  0.00000000000E+00 0.  1.
<scales pt_clust_3="14000.00000" pt_clust_4="55.84576" pt_clust_5="30.93732" pt_clust_6="91.86328"></scales>
<clustering>
<clus scale="   30.937">  1  5  2 -1</clus>
<clus scale="   55.846">  2  4  1 -1</clus>
<clus scale="   91.863">  1  6  2 -1</clus>
<clus scale="   55.846">  2  3  1 -1</clus>
</clustering>
</event>
<event>
 6    0  0.1361744E+002  0.7515782E+02  0.7546771E-02  0.1343383E+00
          1   -1    0    0  503    0 -0.00000000000E+00  0.00000000000E+00  0.10455233479E+04  0.10455233479E+04  0.00000000000E+00 0. -1.
         21   -1    0    0  504  502  0.00000000000E+00 -0.00000000000E+00 -0.42002020626E+03  0.42002020626E+03  0.00000000000E+00 0. -1.
         21    1    1    2  503  505  0.41593790878E+02 -0.39821454732E+01  0.33121358818E+03  0.33383879630E+03  0.00000000000E+00 0. -1.
         21    1    1    2  504  501  0.13479036395E+02 -0.88644388451E+02 -0.15737718176E+03  0.18112727394E+03  0.00000000000E+00 0. -1.
         21    1    1    2  505  502 -0.58605970750E+02  0.47645380796E+02 -0.24298946511E+03  0.25445750583E+03  0.00000000000E+00 0. -1.
          1    1    1    2  501    0  0.35331434777E+01  0.44981153128E+02  0.69465620035E+03  0.69611997811E+03  0.00000000000E+00 0. -1.
<scales pt_clust_3="41.78398" pt_clust_4="14000.00000" pt_clust_5="75.15782" pt_clust_6="60.28080"></scales>
<clustering>
<clus scale="   41.784">  1  3  2 -1</clus>
<clus scale="   60.281">  1  6  2 -1</clus>
<clus scale="   75.158">  2  5  1 -1</clus>
<clus scale="   75.158">  2  3  1 -1</clus>
</clustering>
</event>
<event>
 6    0  0.1361744E+002  0.1019396E+03  0.7546771E-02  0.1276269E+00
         21   -1    0    0  505  502  0.00000000000E+00  0.00000000000E+00  0.30159743549E+03  0.30159743549E+03  0.00000000000E+00 0.  1.
         -4   -1    0    0    0  501 -0.00000000000E+00 -0.00000000000E+00 -0.22263420095E+03  0.22263420095E+03  0.00000000000E+00 0. -1.
         21    1    1    2  503  502  0.40550607378E+01  0.54476824753E+02  0.16294107282E+02  0.57005840796E+02  0.00000000000E+00 0.  1.
         21    1    1    2  504  501  0.33482475161E+02 -0.71953874333E+02  0.54328861083E+02  0.96177239101E+02  0.00000000000E+00 0.  1.
         21    1    1    2  505  504  0.39976436685E+02 -0.57671531679E+02  0.16585347661E+03  0.18008746975E+03  0.00000000000E+00 0.  1.
         -4    1    1    2    0  503 -0.77513972583E+02  0.75148581259E+02 -0.15751321043E+03  0.19096108680E+03  0.00000000000E+00 0. -1.
<scales pt_clust_3="54.62754" pt_clust_4="14000.00000" pt_clust_5="48.01542" pt_clust_6="101.93959"></scales>
<clustering>
<clus scale="   54.628">  1  3  2 -1</clus>
<clus scale="   48.015">  1  5  2 -1</clus>
<clus scale="  101.940">  2  6  1 -1</clus>
<clus scale="   54.628">  1  3  2 -1</clus>
</clustering>
</event>
<event>
 6    0  0.1361744E+002  0.1623569E+03  0.7546771E-02  0.1186061E+00
         21   -1    0    0  503  502  0.00000000000E+00  0.00000000000E+00  0.17007729250E+03  0.17007729250E+03  0.00000000000E+00 0.  1.
         -3   -1    0    0    0  501 -0.00000000000E+00 -0.00000000000E+00 -0.77255523735E+03  0.77255523735E+03  0.00000000000E+00 0.  1.
         21    1    1    2  503  501  0.24149160291E+02 -0.19206998271E+02 -0.13078157532E+03  0.13437228571E+03  0.00000000000E+00 0.  1.
         21    1    1    2  504  502 -0.76687051401E+02 -0.49288633729E+02  0.65129964718E+02  0.11203653677E+03  0.00000000000E+00 0.  1.
         21    1    1    2  505  504 -0.37818831877E+02 -0.60616878393E+02  0.50908190849E+02  0.87728637777E+02  0.00000000000E+00 0.  1.
         -3    1    1    2    0  505  0.90356722987E+02  0.12911251039E+03 -0.58773452510E+03  0.60849506960E+03  0.00000000000E+00 0.  1.
<scales pt_clust_3="30.85597" pt_clust_4="31.39052" pt_clust_5="31.39052" pt_clust_6="158.45913"></scales>
<clustering>
<clus scale="   30.856">  2  3  1 -1</clus>
<clus scale="   31.391">  4  5 -1 -1</clus>
<clus scale="  158.459">  2  6  1 -1</clus>
<clus scale="  162.357">  1  3  2 -1</clus>
</clustering>
</event>
<event>
 6    0  0.1361744E+002  0.1143288E+03  0.7546771E-02  0.1252757E+00
         21   -1    0    0  505  502  0.00000000000E+00  0.00000000000E+00  0.92638174899E+02  0.92638174899E+02  0.00000000000E+00 0.  1.
          1   -1    0    0  504    0 -0.00000000000E+00 -0.00000000000E+00 -0.11729565448E+04  0.11729565448E+04  0.00000000000E+00 0. -1.
         21    1    1    2  503  501 -0.43225053566E+02  0.57867739327E+02 -0.97402689827E+02  0.12126155407E+03  0.00000000000E+00 0. -1.
         21    1    1    2  504  502  0.51933601555E+01  0.52827172769E+02  0.19677145770E+02  0.56611582191E+02  0.00000000000E+00 0.  1.
         21    1    1    2  505  503 -0.30331304296E+02 -0.20210652838E+01  0.32613734450E+02  0.44583947783E+02  0.00000000000E+00 0.  1.
          1    1    1    2  501    0  0.68362997706E+02 -0.10867384681E+03 -0.10352065603E+04  0.10431376356E+04  0.00000000000E+00 0. -1.
<scales pt_clust_3="114.32880" pt_clust_4="53.89796" pt_clust_5="30.39856" pt_clust_6="14000.00000"></scales>
<clustering>
<clus scale="   30.399">  1  5  2 -1</clus>
<clus scale="   53.898">  1  4  2 -1</clus>
<clus scale="  114.329">  1  3  2 -1</clus>
<clus scale="   30.399">  1  3  2 -1</clus>
</clustering>
</event>
<event>
 6    0  0.1361744E+002  0.1219533E+03  0.7546771E-02  0.1239909E+00
         21   -1    0    0  501  502  0.00000000000E+00  0.00000000000E+00  0.70899252081E+02  0.70899252081E+02  0.00000000000E+00 0.  1.
          2   -1    0    0  503    0 -0.00000000000E+00 -0.00000000000E+00 -0.61376748200E+03  0.61376748200E+03  0.00000000000E+00 0.  1.
         21    1    1    2  503  504 -0.42276614667E+02 -0.11242093236E+02 -0.70811129198E+02  0.83234084523E+02  0.00000000000E+00 0.  1.
         21    1    1    2  504  505  0.69413432585E+01  0.50944716979E+02  0.19888831592E+02  0.55128142145E+02  0.00000000000E+00 0.  1.
         21    1    1    2  505  502  0.14277004218E+02  0.62250921869E+02 -0.26144577421E+02  0.69011224098E+02  0.00000000000E+00 0.  1.
          2    1    1    2  501    0  0.21058267190E+02 -0.10195354561E+03 -0.46580135489E+03  0.47729328331E+03  0.00000000000E+00 0.  1.
<scales pt_clust_3="43.74582" pt_clust_4="41.19466" pt_clust_5="41.19466" pt_clust_6="112.98067"></scales>
<clustering>
<clus scale="   41.195">  4  5 -1 -1</clus>
<clus scale="   43.746">  2  3  1 -1</clus>
<clus scale="  112.981">  2  6  1 -1</clus>
<clus scale="  121.953">  1  3  2 -1</clus>
</clustering>
</event>
<event>
 6    0  0.1361744E+002  0.4659558E+03  0.7546771E-02  0.1023068E+00
         21   -1    0    0  501  502  0.00000000000E+00  0.00000000000E+00  0.71960546080E+03  0.71960546080E+03  0.00000000000E+00 0. -1.
          2   -1    0    0  504    0 -0.00000000000E+00 -0.00000000000E+00 -0.86910382290E+03  0.86910382290E+03  0.00000000000E+00 0. -1.
         21    1    1    2  503  505  0.30793678726E+03  0.24301275191E+03  0.39395927907E+03  0.55595339382E+03  0.00000000000E+00 0. -1.
         21    1    1    2  504  503  0.27956578047E+02 -0.49382506688E+02 -0.29929946200E+03  0.30463153182E+03  0.00000000000E+00 0. -1.
         21    1    1    2  505  502  0.59863651623E+02  0.31902552597E+02  0.12472730952E+03  0.14198003870E+03  0.00000000000E+00 0. -1.
          2    1    1    2  501    0 -0.39575701693E+03 -0.22553279782E+03 -0.36888548869E+03  0.58614431935E+03  0.00000000000E+00 0. -1.
<scales pt_clust_3="35.33356" pt_clust_4="56.74683" pt_clust_5="35.33356" pt_clust_6="458.14305"></scales>
<clustering>
<clus scale="   35.334">  3  5 -1 -1</clus>
<clus scale="   56.747">  2  4  1 -1</clus>
<clus scale="  458.143">  2  6  1 -1</clus>
<clus scale="  465.956">  1  3  2 -1</clus>
</clustering>
</event>
<event>
 6    0  0.1361744E+002  0.9149088E+02  0.7546771E-02  0.1299281E+00
         21   -1    0    0  505  502  0.00000000000E+00  0.00000000000E+00  0.45240029525E+03  0.45240029525E+03  0.00000000000E+00 0. -1.
         -3   -1    0    0    0  501 -0.00000000000E+00 -0.00000000000E+00 -0.20140937945E+03  0.20140937945E+03  0.00000000000E+00 0. -1.
         21    1    1    2  503  504  0.80145128582E+02 -0.40509186931E+02  0.95790597689E+02  0.13130146407E+03  0.00000000000E+00 0.  1.
         21    1    1    2  504  501 -0.10043138194E+02 -0.30478032074E+02  0.71577604548E+01  0.32878695208E+02  0.00000000000E+00 0. -1.
         21    1    1    2  505  503 -0.65638091422E+02 -0.55036174353E+02  0.28845435798E+03  0.30090406473E+03  0.00000000000E+00 0. -1.
         -3    1    1    2    0  502 -0.44638989659E+01  0.12602339336E+03 -0.14041180032E+03  0.18872545069E+03  0.00000000000E+00 0. -1.
<scales pt_clust_3="91.49088" pt_clust_4="32.09011" pt_clust_5="86.56065" pt_clust_6="14000.00000"></scales>
<clustering>
<clus scale="   32.090">  2  4  1 -1</clus>
<clus scale="   86.561">  1  5  2 -1</clus>
<clus scale="   91.491">  1  3  2 -1</clus>
<clus scale="   86.561">  1  3  2 -1</clus>
</clustering>
</event>
<event>
 6    0  0.1361744E+002  0.1728692E+03  0.7546771E-02  0.1174888E+00
         21   -1    0    0  505  502  0.00000000000E+00  0.00000000000E+00  0.28754052672E+03  0.28754052672E+03  0.00000000000E+00 0.  1.
          1   -1    0    0  504    0 -0.00000000000E+00 -0.00000000000E+00 -0.10264696775E+04  0.10264696775E+04  0.00000000000E+00 0.  1.
         21    1    1    2  503  502  0.47419442506E+02 -0.64449718185E+01  0.12215957646E+03  0.13119871688E+03  0.00000000000E+00 0.  1.
         21    1    1    2  504  503  0.11217078459E+03  0.21189732310E+02  0.11933956232E+03  0.16514605901E+03  0.00000000000E+00 0.  1.
         21    1    1    2  505  501 -0.18807305661E+03  0.31282401665E+02 -0.51605076506E+03  0.55014403150E+03  0.00000000000E+00 0.  1.
          1    1    1    2  501    0  0.28482829518E+02 -0.46027162156E+02 -0.46437752451E+03  0.46752139684E+03  0.00000000000E+00 0.  1.
<scales pt_clust_3="39.97532" pt_clust_4="39.97532" pt_clust_5="161.46774" pt_clust_6="54.12736"></scales>
<clustering>
<clus scale="   39.975">  3  4 -1 -1</clus>
<clus scale="   54.127">  2  6  1 -1</clus>
<clus scale="  161.468">  2  5  1 -1</clus>
<clus scale="  172.869">  1  3  2 -1</clus>
</clustering>
</event>
<event>
 6    0  0.1361744E+002  0.1083430E+03  0.7546771E-02  0.1263670E+00
         21   -1    0    0  505  502  0.00000000000E+00  0.00000000000E+00  0.11723595140E+03  0.11723595140E+03  0.00000000000E+00 0. -1.
          2   -1    0    0  504    0 -0.00000000000E+00 -0.00000000000E+00 -0.13150243265E+04  0.13150243265E+04  0.00000000000E+00 0. -1.
         21    1    1    2  503  502 -0.38984758425E+02  0.38382121280E+02  0.16557650568E+02  0.57159027421E+02  0.00000000000E+00 0. -1.
         21    1    1    2  504  503 -0.12355797466E+02  0.44236411355E+02  0.59647573221E+02  0.75281862436E+02  0.00000000000E+00 0. -1.
         21    1    1    2  505  501  0.97067082252E+02 -0.52665946701E+02 -0.23787529831E+03  0.26226013412E+03  0.00000000000E+00 0. -1.
          2    1    1    2  501    0 -0.45726526362E+02 -0.29952585934E+02 -0.10361183006E+04  0.10375592539E+04  0.00000000000E+00 0. -1.
<scales pt_clust_3="43.67099" pt_clust_4="43.67099" pt_clust_5="97.29607" pt_clust_6="54.66327"></scales>
<clustering>
<clus scale="   43.671">  3  4 -1 -1</clus>
<clus scale="   54.663">  2  6  1 -1</clus>
<clus scale="   97.296">  2  5  1 -1</clus>
<clus scale="  108.343">  1  3  2 -1</clus>
</clustering>
</event>
<event>
 6    0  0.1361744E+002  0.2338297E+03  0.7546771E-02  0.1123973E+00
          2   -1    0    0  503    0 -0.00000000000E+00  0.00000000000E+00  0.15388135102E+04  0.15388135102E+04  0.00000000000E+00 0.  1.
         21   -1    0    0  501  502  0.00000000000E+00 -0.00000000000E+00 -0.44711360039E+03  0.44711360039E+03  0.00000000000E+00 0. -1.
         21    1    1    2  503  505 -0.21859918338E+02  0.23122234854E+02  0.10104182939E+03  0.10593368237E+03  0.00000000000E+00 0.  1.
         21    1    1    2  504  502  0.12827463746E+03 -0.45798486686E+02 -0.23852924403E+03  0.27467814666E+03  0.00000000000E+00 0. -1.
         21    1    1    2  505  504  0.98162295958E+02 -0.13258839954E+01 -0.16716081159E+03  0.19385647074E+03  0.00000000000E+00 0. -1.
          2    1    1    2  501    0 -0.20457701509E+03  0.24002135828E+02  0.13963481361E+04  0.14114588109E+04  0.00000000000E+00 0.  1.
<scales pt_clust_3="31.81971" pt_clust_4="32.29048" pt_clust_5="32.29048" pt_clust_6="230.71723"></scales>
<clustering>
<clus scale="   31.820">  1  3  2 -1</clus>
<clus scale="   32.290">  4  5 -1 -1</clus>
<clus scale="  230.717">  1  6  2 -1</clus>
<clus scale="  233.830">  2  3  1 -1</clus>
</clustering>
</event>
<event>
 6    0  0.1361744E+002  0.1557445E+03  0.7546771E-02  0.1193587E+00
         -3   -1    0    0    0  501 -0.00000000000E+00  0.00000000000E+00  0.23025515875E+03  0.23025515875E+03  0.00000000000E+00 0.  1.
         21   -1    0    0  503  502  0.00000000000E+00 -0.00000000000E+00 -0.44910915966E+03  0.44910915966E+03  0.00000000000E+00 0. -1.
         21    1    1    2  503  504  0.25291430332E+02 -0.41555192960E+02  0.60744109595E+01  0.49024371273E+02  0.00000000000E+00 0. -1.
         21    1    1    2  504  501  0.37402685498E+02 -0.45990949544E+01  0.16370738362E+02  0.41086660017E+02  0.00000000000E+00 0. -1.
         21    1    1    2  505  502 -0.89565255000E+02  0.13575826659E+03 -0.38491042055E+03  0.41786154848E+03  0.00000000000E+00 0. -1.
         -3    1    1    2    0  505  0.26871139170E+02 -0.89603978674E+02  0.14361127031E+03  0.17139173864E+03  0.00000000000E+00 0.  1.
<scales pt_clust_3="87.27092" pt_clust_4="34.71215" pt_clust_5="155.74445" pt_clust_6="14000.00000"></scales>
<clustering>
<clus scale="   34.712">  3  4 -1 -1</clus>
<clus scale="   87.271">  1  3  2 -1</clus>
<clus scale="  155.744">  2  5  1 -1</clus>
<clus scale="  155.744">  2  3  1 -1</clus>
</clustering>
</event>
<event>
 6    0  0.1361744E+002  0.1132109E+03  0.7546771E-02  0.1254737E+00
          1   -1    0    0  505    0 -0.00000000000E+00  0.00000000000E+00  0.14837007487E+04  0.14837007487E+04  0.00000000000E+00 0. -1.
         21   -1    0    0  503  502  0.00000000000E+00 -0.00000000000E+00 -0.84626368373E+03  0.84626368373E+03  0.00000000000E+00 0.  1.
         21    1    1    2  503  504 -0.36409783014E+02 -0.46336787632E+02 -0.29811290830E+03  0.30388168139E+03  0.00000000000E+00 0.  1.
         21    1    1    2  504  501 -0.72748248306E+02  0.79110300746E+02 -0.52961739852E+03  0.54041219095E+03  0.00000000000E+00 0. -1.
         21    1    1    2  505  502  0.44884260245E+02 -0.22388296730E+02  0.56709451218E+02  0.75708615795E+02  0.00000000000E+00 0. -1.
          1    1    1    2  501    0  0.64273771075E+02 -0.10385216384E+02  0.14084579205E+04  0.14099619443E+04  0.00000000000E+00 0. -1.
<scales pt_clust_3="58.90969" pt_clust_4="113.21091" pt_clust_5="50.15808" pt_clust_6="14000.00000"></scales>
<clustering>
<clus scale="   50.158">  1  5  2 -1</clus>
<clus scale="   58.910">  2  3  1 -1</clus>
<clus scale="  113.211">  2  4  1 -1</clus>
<clus scale="   58.910">  2  3  1 -1</clus>
</clustering>
</event>
<event>
 6    0  0.1361744E+002  0.1236714E+03  0.7546771E-02  0.1237160E+00
          3   -1    0    0  505    0 -0.00000000000E+00  0.00000000000E+00  0.54733120536E+03  0.54733120536E+03  0.00000000000E+00 0.  1.
         21   -1    0    0  503  502  0.00000000000E+00 -0.00000000000E+00 -0.18709024350E+03  0.18709024350E+03  0.00000000000E+00 0.  1.
         21    1    1    2  503  504 -0.22542907169E+02  0.11277507601E+03 -0.14140255863E+03  0.18226651919E+03  0.00000000000E+00 0.  1.
         21    1    1    2  504  501 -0.15648730090E+02 -0.59787298625E+02  0.16123034060E+03  0.17266912451E+03  0.00000000000E+00 0.  1.
         21    1    1    2  505  502  0.49369200088E+02 -0.19086029731E+01  0.17572306658E+02  0.52438026698E+02  0.00000000000E+00 0. -1.
          3    1    1    2  501    0 -0.11177562830E+02 -0.51079174414E+02  0.32284087323E+03  0.32704777846E+03  0.00000000000E+00 0.  1.
<scales pt_clust_3="113.63799" pt_clust_4="44.88310" pt_clust_5="49.40608" pt_clust_6="44.88310"></scales>
<clustering>
<clus scale="   44.883">  4  6 -1 -1</clus>
<clus scale="   49.406">  2  5  1 -1</clus>
<clus scale="  113.638">  2  3  1 -1</clus>
<clus scale="   49.406">  2  3  1 -1</clus>
</clustering>
</event>
<event>
 6    0  0.1361744E+002  0.1671588E+03  0.7546771E-02  0.1180844E+00
          1   -1    0    0  502    0 -0.00000000000E+00  0.00000000000E+00  0.29816933464E+04  0.29816933464E+04  0.00000000000E+00 0. -1.
         21   -1    0    0  503  502  0.00000000000E+00 -0.00000000000E+00 -0.25436502289E+02  0.25436502289E+02  0.00000000000E+00 0. -1.
         21    1    1    2  503  505 -0.35183104257E+02  0.62043100915E+02  0.83470438661E+02  0.10979303861E+03  0.00000000000E+00 0. -1.
         21    1    1    2  504  501  0.22785098686E+02 -0.37384120716E+02  0.39055769831E+03  0.39300387900E+03  0.00000000000E+00 0. -1.
         21    1    1    2  505  504 -0.72559809237E+02  0.48967321013E+02  0.18831696201E+03  0.20766801059E+03  0.00000000000E+00 0. -1.
          1    1    1    2  501    0  0.84957814809E+02 -0.73626301213E+02  0.22939117451E+04  0.22966649205E+04  0.00000000000E+00 0. -1.
<scales pt_clust_3="49.28617" pt_clust_4="39.51834" pt_clust_5="164.05221" pt_clust_6="39.51834"></scales>
<clustering>
<clus scale="   39.518">  4  6 -1 -1</clus>
<clus scale="   49.286">  3  5 -1 -1</clus>
<clus scale="  164.052">  2  3  1 -1</clus>
<clus scale="  164.052">  2  3  1 -1</clus>
</clustering>
</event>
<event>
 6    0  0.1361744E+002  0.2997879E+03  0.7546771E-02  0.1085347E+00
          2   -1    0    0  505    0 -0.00000000000E+00  0.00000000000E+00  0.31961020377E+03  0.31961020377E+03  0.00000000000E+00 0.  1.
         21   -1    0    0  501  502  0.00000000000E+00 -0.00000000000E+00 -0.57286854513E+03  0.57286854513E+03  0.00000000000E+00 0.  1.
         21    1    1    2  503  502 -0.41443591879E+02  0.58643755495E+02 -0.22755934766E+02  0.75329236910E+02  0.00000000000E+00 0.  1.
         21    1    1    2  504  503  0.16089951372E+03  0.23147720277E+03 -0.31319308279E+03  0.42137899334E+03  0.00000000000E+00 0.  1.
         21    1    1    2  505  504  0.65814087453E+02 -0.48200877592E+02  0.27582220799E+02  0.86113864228E+02  0.00000000000E+00 0. -1.
          2    1    1    2  501    0 -0.18527000930E+03 -0.24192008067E+03  0.55108455394E+02  0.30965665443E+03  0.00000000000E+00 0.  1.
<scales pt_clust_3="71.80990" pt_clust_4="299.78785" pt_clust_5="77.78361" pt_clust_6="14000.00000"></scales>
<clustering>
<clus scale="   71.810">  2  3  1 -1</clus>
<clus scale="   77.784">  1  5  2 -1</clus>
<clus scale="  299.788">  2  4  1 -1</clus>
<clus scale="   71.810">  2  3  1 -1</clus>
</clustering>
</event>
<event>
 6    0  0.1361744E+002  0.2544295E+03  0.7546771E-02  0.1110537E+00
          2   -1    0    0  503    0 -0.00000000000E+00  0.00000000000E+00  0.25701713822E+04  0.25701713822E+04  0.00000000000E+00 0. -1.
         21   -1    0    0  504  502  0.00000000000E+00 -0.00000000000E+00 -0.39411127469E+02  0.39411127469E+02  0.00000000000E+00 0. -1.
         21    1    1    2  503  505 -0.33925608563E+02  0.44535627146E+02  0.28560505765E+03  0.29104057786E+03  0.00000000000E+00 0.  1.
         21    1    1    2  504  501 -0.96762676468E+02 -0.37763673539E+02  0.56562110770E+03  0.57507942763E+03  0.00000000000E+00 0. -1.
         21    1    1    2  505  502  0.20699473017E+03  0.11791108449E+03  0.48849242952E+03  0.54348385060E+03  0.00000000000E+00 0. -1.
          2    1    1    2  501    0 -0.76306445141E+02 -0.12468303809E+03  0.11910416599E+04  0.11999786536E+04  0.00000000000E+00 0. -1.
<scales pt_clust_3="55.98544" pt_clust_4="82.28706" pt_clust_5="236.87357" pt_clust_6="82.28706"></scales>
<clustering>
<clus scale="   55.985">  1  3  2 -1</clus>
<clus scale="   82.287">  4  6 -1 -1</clus>
<clus scale="  236.874">  2  5  1 -1</clus>
<clus scale="  236.874">  2  3  1 -1</clus>
</clustering>
</event>
<event>
 6    0  0.1361744E+002  0.1946963E+03  0.7546771E-02  0.1154292E+00
         21   -1    0    0  501  502  0.00000000000E+00  0.00000000000E+00  0.31244635671E+03  0.31244635671E+03  0.00000000000E+00 0.  1.
          2   -1    0    0  503    0 -0.00000000000E+00 -0.00000000000E+00 -0.75485203368E+03  0.75485203368E+03  0.00000000000E+00 0. -1.
         21    1    1    2  503  504 -0.38866132375E+02  0.10011813975E+03 -0.16265817626E+03  0.19491511090E+03  0.00000000000E+00 0. -1.
         21    1    1    2  504  505 -0.31473479828E+02  0.36986507533E+02  0.99157172922E+02  0.11041162354E+03  0.00000000000E+00 0.  1.
         21    1    1    2  505  502 -0.11576977830E+03  0.67709931404E+02  0.12739328951E+03  0.18497655687E+03  0.00000000000E+00 0.  1.
          2    1    1    2  501    0  0.18610939050E+03 -0.20481457868E+03 -0.50629796314E+03  0.57699509907E+03  0.00000000000E+00 0. -1.
<scales pt_clust_3="107.39748" pt_clust_4="34.50092" pt_clust_5="34.50092" pt_clust_6="186.06319"></scales>
<clustering>
<clus scale="   34.501">  4  5 -1 -1</clus>
<clus scale="  107.397">  2  3  1 -1</clus>
<clus scale="  186.063">  2  6  1 -1</clus>
<clus scale="  194.696">  1  3  2 -1</clus>
</clustering>
</event>
<event>
 6    0  0.1361744E+002  0.1283572E+03  0.7546771E-02  0.1229914E+00
          2   -1    0    0  503    0 -0.00000000000E+00  0.00000000000E+00  0.30829212381E+04  0.30829212381E+04  0.00000000000E+00 0. -1.
         21   -1    0    0  505  502  0.00000000000E+00 -0.00000000000E+00 -0.69557427750E+02  0.69557427750E+02  0.00000000000E+00 0.  1.
         21    1    1    2  503  504  0.16754484223E+03 -0.50616795724E+01  0.76779787338E+02  0.18436927754E+03  0.00000000000E+00 0.  1.
         21    1    1    2  504  502 -0.89422135215E+02 -0.84106683197E+02  0.25056075996E+03  0.27901782534E+03  0.00000000000E+00 0. -1.
         21    1    1    2  505  501 -0.46539658308E+02  0.60048360820E+02  0.11724740810E+04  0.11749328560E+04  0.00000000000E+00 0. -1.
          2    1    1    2  501    0 -0.31583048706E+02  0.29120001950E+02  0.15135491820E+04  0.15141587070E+04  0.00000000000E+00 0. -1.
<scales pt_clust_3="118.47890" pt_clust_4="122.76096" pt_clust_5="37.13163" pt_clust_6="37.13163"></scales>
<clustering>
<clus scale="   37.132">  5  6 -1 -1</clus>
<clus scale="  122.761">  2  4  1 -1</clus>
<clus scale="  118.479">  2  3  1 -1</clus>
<clus scale="  122.761">  2  3  1 -1</clus>
</clustering>
</event>
<event>
 6    0  0.1361744E+002  0.1347435E+03  0.7546771E-02  0.1220582E+00
         21   -1    0    0  505  502  0.00000000000E+00  0.00000000000E+00  0.69067048833E+03  0.69067048833E+03  0.00000000000E+00 0. -1.
          1   -1    0    0  504    0 -0.00000000000E+00 -0.00000000000E+00 -0.78113261669E+03  0.78113261669E+03  0.00000000000E+00 0. -1.
         21    1    1    2  503  502  0.39303691443E+02  0.21891817838E+02  0.40523520284E+02  0.60549050740E+02  0.00000000000E+00 0. -1.
         21    1    1    2  504  503 -0.61343334443E+02 -0.16467016382E+02 -0.19019718745E+03  0.20052216192E+03  0.00000000000E+00 0.  1.
         21    1    1    2  505  501  0.51245791035E+02  0.80813458432E+02  0.62772335498E+03  0.63497524090E+03  0.00000000000E+00 0. -1.
          1    1    1    2  501    0 -0.29206148035E+02 -0.86238259888E+02 -0.56851181619E+03  0.57575665146E+03  0.00000000000E+00 0. -1.
<scales pt_clust_3="44.98924" pt_clust_4="63.16325" pt_clust_5="134.74345" pt_clust_6="14000.00000"></scales>
<clustering>
<clus scale="   44.989">  1  3  2 -1</clus>
<clus scale="   63.163">  2  4  1 -1</clus>
<clus scale="  134.743">  1  5  2 -1</clus>
<clus scale="   44.989">  1  3  2 -1</clus>
</clustering>
</event>
<event>
 6    0  0.1361744E+002  0.6719216E+02  0.7546771E-02  0.1369910E+00
         21   -1    0    0  504  502  0.00000000000E+00  0.00000000000E+00  0.44987531063E+02  0.44987531063E+02  0.00000000000E+00 0.  1.
          2   -1    0    0  505    0 -0.00000000000E+00 -0.00000000000E+00 -0.60789442996E+03  0.60789442996E+03  0.00000000000E+00 0. -1.
         21    1    1    2  503  502  0.25619904917E+02  0.67255042454E+02 -0.27638951413E+02  0.77094305229E+02  0.00000000000E+00 0.  1.
         21    1    1    2  504  501  0.23716665044E+02 -0.22971040895E+02 -0.28595177091E+02  0.43678748533E+02  0.00000000000E+00 0. -1.
         21    1    1    2  505  503 -0.94974304949E+02 -0.21759021810E+01 -0.23596310672E+03  0.25436871050E+03  0.00000000000E+00 0. -1.
          2    1    1    2  501    0  0.45637734988E+02 -0.42108099379E+02 -0.27070966368E+03  0.27774019676E+03  0.00000000000E+00 0. -1.
<scales pt_clust_3="67.19216" pt_clust_4="33.01740" pt_clust_5="14000.00000" pt_clust_6="65.19454"></scales>
<clustering>
<clus scale="   33.017">  1  4  2 -1</clus>
<clus scale="   65.195">  2  6  1 -1</clus>
<clus scale="   67.192">  1  3  2 -1</clus>
<clus scale="   33.017">  1  3  2 -1</clus>
</clustering>
</event>
<event>
 6    0  0.1361744E+002  0.7683530E+02  0.7546771E-02  0.1338280E+00
          2   -1    0    0  505    0 -0.00000000000E+00  0.00000000000E+00  0.54874985852E+03  0.54874985852E+03  0.00000000000E+00 0.  1.
         21   -1    0    0  504  502  0.00000000000E+00 -0.00000000000E+00 -0.78955026259E+03  0.78955026259E+03  0.00000000000E+00 0. -1.
         21    1    1    2  503  502 -0.84749689053E+02 -0.47706076291E+02 -0.62465556586E+03  0.63218110971E+03  0.00000000000E+00 0. -1.
         21    1    1    2  504  501  0.42264591442E+02 -0.16325227868E+02 -0.15082028255E+03  0.15747878074E+03  0.00000000000E+00 0. -1.
         21    1    1    2  505  503 -0.22803199777E+02  0.25796422621E+02  0.71875683801E+02  0.79696645237E+02  0.00000000000E+00 0.  1.
          2    1    1    2  501    0  0.65288297389E+02  0.38234881538E+02  0.46279976054E+03  0.46894358542E+03  0.00000000000E+00 0.  1.
<scales pt_clust_3="76.83530" pt_clust_4="45.09291" pt_clust_5="34.43024" pt_clust_6="14000.00000"></scales>
<clustering>
<clus scale="   34.430">  1  5  2 -1</clus>
<clus scale="   45.093">  2  4  1 -1</clus>
<clus scale="   76.835">  2  3  1 -1</clus>
<clus scale="   45.093">  2  3  1 -1</clus>
</clustering>
</event>
<event>
 6    0  0.1361744E+002  0.2175693E+03  0.7546771E-02  0.1135708E+00
         21   -1    0    0  503  502  0.00000000000E+00  0.00000000000E+00  0.10743429769E+04  0.10743429769E+04  0.00000000000E+00 0.  1.
          1   -1    0    0  505    0 -0.00000000000E+00 -0.00000000000E+00 -0.21728337660E+03  0.21728337660E+03  0.00000000000E+00 0.  1.
         21    1    1    2  503  504 -0.65004459638E+02  0.52181054051E+02  0.42031678121E+03  0.42850278732E+03  0.00000000000E+00 0.  1.
         21    1    1    2  504  501 -0.12736730722E+03  0.54481488066E+02  0.53620917527E+03  0.55381489970E+03  0.00000000000E+00 0.  1.
         21    1    1    2  505  502  0.83447731886E+02 -0.13633038142E+03 -0.11279445623E+03  0.19563252851E+03  0.00000000000E+00 0.  1.
          1    1    1    2  501    0  0.10892403497E+03  0.29667839307E+02  0.13328100004E+02  0.11367613792E+03  0.00000000000E+00 0.  1.
<scales pt_clust_3="31.24425" pt_clust_4="31.24425" pt_clust_5="213.80846" pt_clust_6="112.89210"></scales>
<clustering>
<clus scale="   31.244">  3  4 -1 -1</clus>
<clus scale="  112.892">  2  6  1 -1</clus>
<clus scale="  213.808">  2  5  1 -1</clus>
<clus scale="  217.569">  1  3  2 -1</clus>
</clustering>
</event>
<event>
 6    0  0.1361744E+002  0.1229098E+03  0.7546771E-02  0.1238372E+00
         21   -1    0    0  503  502  0.00000000000E+00  0.00000000000E+00  0.35442889607E+03  0.35442889607E+03  0.00000000000E+00 0.  1.
          2   -1    0    0  504    0 -0.00000000000E+00 -0.00000000000E+00 -0.93445706381E+03  0.93445706381E+03  0.00000000000E+00 0.  1.
         21    1    1    2  503  501  0.39166496695E+02  0.54395000449E+02  0.28908107592E+03  0.29675022998E+03  0.00000000000E+00 0.  1.
         21    1    1    2  504  505 -0.59878016207E+02  0.28505762594E+02 -0.15314564487E+03  0.16688781821E+03  0.00000000000E+00 0. -1.
         21    1    1    2  505  502  0.47766257663E+01  0.62985021110E+02  0.26441738435E+02  0.68476963786E+02  0.00000000000E+00 0.  1.
          2    1    1    2  501    0  0.15934893745E+02 -0.14588578415E+03 -0.74240533723E+03  0.75677094791E+03  0.00000000000E+00 0.  1.
<scales pt_clust_3="14000.00000" pt_clust_4="66.83956" pt_clust_5="63.16589" pt_clust_6="122.90984"></scales>
<clustering>
<clus scale="   63.166">  1  5  2 -1</clus>
<clus scale="   66.840">  2  4  1 -1</clus>
<clus scale="  122.910">  2  6  1 -1</clus>
<clus scale="   63.166">  1  3  2 -1</clus>
</clustering>
</event>
<event>
 6    0  0.1361744E+002  0.1042141E+03  0.7546771E-02  0.1271676E+00
          2   -1    0    0  504    0 -0.00000000000E+00  0.00000000000E+00  0.17516607297E+04  0.17516607297E+04  0.00000000000E+00 0.  1.
         21   -1    0    0  503  502  0.00000000000E+00 -0.00000000000E+00 -0.51147783357E+02  0.51147783357E+02  0.00000000000E+00 0. -1.
         21    1    1    2  503  505 -0.89751153471E+02  0.62138589570E+02  0.58480245786E+02  0.12384027217E+03  0.00000000000E+00 0. -1.
         21    1    1    2  504  502  0.98062683405E+00 -0.12704950237E+03  0.38012314600E+03  0.40079439093E+03  0.00000000000E+00 0.  1.
         21    1    1    2  505  501  0.30299073798E+02  0.98514612815E+02  0.38126605157E+03  0.39495185136E+03  0.00000000000E+00 0.  1.
          2    1    1    2  501    0  0.58471452838E+02 -0.33603700018E+02  0.88064350299E+03  0.88322199860E+03  0.00000000000E+00 0.  1.
<scales pt_clust_3="104.21412" pt_clust_4="14000.00000" pt_clust_5="100.77431" pt_clust_6="67.43975"></scales>
<clustering>
<clus scale="   67.440">  1  6  2 -1</clus>
<clus scale="  100.774">  1  5  2 -1</clus>
<clus scale="  104.214">  2  3  1 -1</clus>
<clus scale="  104.214">  2  3  1 -1</clus>
</clustering>
</event>
<event>
 6    0  0.1361744E+002  0.8933740E+02  0.7546771E-02  0.1304464E+00
         21   -1    0    0  504  502  0.00000000000E+00  0.00000000000E+00  0.44335008913E+03  0.44335008913E+03  0.00000000000E+00 0.  1.
          2   -1    0    0  503    0 -0.00000000000E+00 -0.00000000000E+00 -0.55099983688E+03  0.55099983688E+03  0.00000000000E+00 0.  1.
         21    1    1    2  503  505  0.28788287211E+02  0.19125515697E+02 -0.22707892887E+03  0.22969412437E+03  0.00000000000E+00 0.  1.
         21    1    1    2  504  501 -0.28529344067E+02  0.10954320106E+03  0.37795544000E+03  0.39454271125E+03  0.00000000000E+00 0.  1.
         21    1    1    2  505  502 -0.17097459525E+02 -0.33360598522E+02  0.40872278205E+02  0.55459857389E+02  0.00000000000E+00 0.  1.
          2    1    1    2  501    0  0.16838516381E+02 -0.95308118238E+02 -0.29939853708E+03  0.31465323301E+03  0.00000000000E+00 0.  1.
<scales pt_clust_3="34.56227" pt_clust_4="89.33740" pt_clust_5="36.80702" pt_clust_6="14000.00000"></scales>
<clustering>
<clus scale="   34.562">  2  3  1 -1</clus>
<clus scale="   36.807">  1  5  2 -1</clus>
<clus scale="   89.337">  1  4  2 -1</clus>
<clus scale="   36.807">  1  3  2 -1</clus>
</clustering>
</event>
<event>
 6    0  0.1361744E+002  0.2620591E+03  0.7546771E-02  0.1105912E+00
          2   -1    0    0  502    0 -0.00000000000E+00  0.00000000000E+00  0.29164881367E+04  0.29164881367E+04  0.00000000000E+00 0.  1.
         21   -1    0    0  505  502  0.00000000000E+00 -0.00000000000E+00 -0.40455237833E+02  0.40455237833E+02  0.00000000000E+00 0.  1.
         21    1    1    2  503  504 -0.20261773896E+03 -0.81494862739E+02  0.86587551843E+03  0.89299259471E+03  0.00000000000E+00 0.  1.
         21    1    1    2  504  501  0.13412876709E+03  0.43367298847E+02  0.97057272850E+03  0.98075617259E+03  0.00000000000E+00 0.  1.
         21    1    1    2  505  503 -0.87629897942E+02  0.33222676230E+02  0.12978313604E+03  0.16008250257E+03  0.00000000000E+00 0.  1.
          2    1    1    2  501    0  0.15611886982E+03  0.49048876624E+01  0.90980151587E+03  0.92311210463E+03  0.00000000000E+00 0.  1.
<scales pt_clust_3="257.56896" pt_clust_4="45.88805" pt_clust_5="93.71630" pt_clust_6="45.88805"></scales>
<clustering>
<clus scale="   45.888">  4  6 -1 -1</clus>
<clus scale="   93.716">  2  5  1 -1</clus>
<clus scale="  257.569">  2  3  1 -1</clus>
<clus scale="   93.716">  2  3  1 -1</clus>
</clustering>
</event>
<event>
 6    0  0.1361744E+002  0.1298330E+03  0.7546771E-02  0.1227704E+00
          2   -1    0    0  503    0 -0.00000000000E+00  0.00000000000E+00  0.14729063448E+04  0.14729063448E+04  0.00000000000E+00 0. -1.
         21   -1    0    0  505  502  0.00000000000E+00 -0.00000000000E+00 -0.61862078786E+02  0.61862078786E+02  0.00000000000E+00 0.  1.
         21    1    1    2  503  504 -0.22970166366E+02 -0.30750938455E+02  0.11067524758E+03  0.11714204705E+03  0.00000000000E+00 0.  1.
         21    1    1    2  504  502  0.32519390816E+02  0.81379177101E+01  0.55935815393E+02  0.65211593505E+02  0.00000000000E+00 0. -1.
         21    1    1    2  505  501  0.85913525778E+02  0.59412708635E+02  0.67723294395E+00  0.10445794610E+03  0.00000000000E+00 0.  1.
          2    1    1    2  501    0 -0.95462750228E+02 -0.36799687891E+02  0.12437559701E+04  0.12479568370E+04  0.00000000000E+00 0. -1.
<scales pt_clust_3="36.93429" pt_clust_4="33.52218" pt_clust_5="129.83295" pt_clust_6="14000.00000"></scales>
<clustering>
<clus scale="   33.522">  2  4  1 -1</clus>
<clus scale="   36.934">  1  3  2 -1</clus>
<clus scale="  129.833">  2  5  1 -1</clus>
<clus scale="   33.522">  2  3  1 -1</clus>
</clustering>
</event>
<event>
 6    0  0.1361744E+002  0.9656969E+02  0.7546771E-02  0.1287679E+00
         21   -1    0    0  504  502  0.00000000000E+00  0.00000000000E+00  0.11296415584E+02  0.11296415584E+02  0.00000000000E+00 0.  1.
         -2   -1    0    0    0  501 -0.00000000000E+00 -0.00000000000E+00 -0.27037124453E+04  0.27037124453E+04  0.00000000000E+00 0.  1.
         21    1    1    2  503  502  0.10775387921E+03 -0.91817015297E+02 -0.92563038988E+03  0.93639355052E+03  0.00000000000E+00 0.  1.
         21    1    1    2  504  505 -0.77316998491E+02 -0.31101193160E+00 -0.40376182025E+03  0.41109806917E+03  0.00000000000E+00 0.  1.
         21    1    1    2  505  501  0.14899052565E+02  0.33368331709E+02 -0.44205253826E+03  0.44356045125E+03  0.00000000000E+00 0.  1.
         -2    1    1    2    0  503 -0.45335933279E+02  0.58759695520E+02 -0.92097128128E+03  0.92395678990E+03  0.00000000000E+00 0.  1.
<scales pt_clust_3="14000.00000" pt_clust_4="74.84961" pt_clust_5="36.54350" pt_clust_6="96.56969"></scales>
<clustering>
<clus scale="   36.543">  2  5  1 -1</clus>
<clus scale="   74.850">  1  4  2 -1</clus>
<clus scale="   96.570">  2  6  1 -1</clus>
<clus scale="   74.850">  1  3  2 -1</clus>
</clustering>
</event>
<event>
 6    0  0.1361744E+002  0.2667155E+03  0.7546771E-02  0.1103174E+00
          2   -1    0    0  504    0 -0.00000000000E+00  0.00000000000E+00  0.68212517701E+03  0.68212517701E+03  0.00000000000E+00 0.  1.
         21   -1    0    0  505  502  0.00000000000E+00 -0.00000000000E+00 -0.18930178149E+03  0.18930178149E+03  0.00000000000E+00 0.  1.
         21    1    1    2  503  502  0.45652333298E+02  0.90863536876E+02 -0.30888024608E+02  0.10627505791E+03  0.00000000000E+00 0.  1.
         21    1    1    2  504  503  0.21581189137E+03 -0.11751153977E+03  0.11426448716E+03  0.27099835325E+03  0.00000000000E+00 0.  1.
         21    1    1    2  505  501 -0.10421496914E+03  0.16693621025E+02  0.24313663485E+03  0.26505633360E+03  0.00000000000E+00 0.  1.
          2    1    1    2  501    0 -0.15724925553E+03  0.99543818709E+01  0.16631029812E+03  0.22909721374E+03  0.00000000000E+00 0.  1.
<scales pt_clust_3="101.68735" pt_clust_4="252.32892" pt_clust_5="70.72428" pt_clust_6="70.72428"></scales>
<clustering>
<clus scale="   70.724">  5  6 -1 -1</clus>
<clus scale="  101.687">  2  3  1 -1</clus>
<clus scale="  252.329">  2  4  1 -1</clus>
<clus scale="  101.687">  2  3  1 -1</clus>
</clustering>
</event>
<event>
 6    0  0.1361744E+002  0.8402836E+02  0.7546771E-02  0.1317993E+00
          1   -1    0    0  503    0 -0.00000000000E+00  0.00000000000E+00  0.12187824827E+04  0.12187824827E+04  0.00000000000E+00 0.  1.
         21   -1    0    0  505  502  0.00000000000E+00 -0.00000000000E+00 -0.26037167039E+03  0.26037167039E+03  0.00000000000E+00 0.  1.
         21    1    1    2  503  504  0.92151300567E+02  0.40348119141E+02  0.33703915385E+02  0.10609329303E+03  0.00000000000E+00 0.  1.
         21    1    1    2  504  502 -0.59900767049E+02 -0.57092298730E+02 -0.20733173590E+03  0.22323548369E+03  0.00000000000E+00 0.  1.
         21    1    1    2  505  501 -0.28829805359E+02  0.68922623614E+02  0.16220579101E+03  0.17858388606E+03  0.00000000000E+00 0.  1.
          1    1    1    2  501    0 -0.34207281599E+01 -0.52178444025E+02  0.96983284187E+03  0.97124149035E+03  0.00000000000E+00 0.  1.
<scales pt_clust_3="84.02836" pt_clust_4="14000.00000" pt_clust_5="45.47703" pt_clust_6="52.29045"></scales>
<clustering>
<clus scale="   52.290">  1  6  2 -1</clus>
<clus scale="   45.477">  1  5  2 -1</clus>
<clus scale="   84.028">  1  3  2 -1</clus>
<clus scale="   84.028">  2  3  1 -1</clus>
</clustering>
</event>
<event>
 6    0  0.1361744E+002  0.1490607E+03  0.7546771E-02  0.1201632E+00
         21   -1    0    0  501  502  0.00000000000E+00  0.00000000000E+00  0.25202524278E+03  0.25202524278E+03  0.00000000000E+00 0. -1.
          4   -1    0    0  503    0 -0.00000000000E+00 -0.00000000000E+00 -0.21921927214E+03  0.21921927214E+03  0.00000000000E+00 0.  1.
         21    1    1    2  503  505  0.64420417822E+02  0.48828311507E+01 -0.69598480656E+01  0.64979010130E+02  0.00000000000E+00 0. -1.
         21    1    1    2  504  502 -0.10289752654E+03  0.67600078238E+02  0.86470055492E+02  0.15044846973E+03  0.00000000000E+00 0. -1.
         21    1    1    2  505  504  0.12920835022E+03 -0.53311219044E+02  0.20529611486E+02  0.14127402023E+03  0.00000000000E+00 0. -1.
          4    1    1    2  501    0 -0.90731241504E+02 -0.19171690345E+02 -0.67233848267E+02  0.11454301484E+03  0.00000000000E+00 0.  1.
<scales pt_clust_3="34.12037" pt_clust_4="140.35781" pt_clust_5="34.12037" pt_clust_6="92.73463"></scales>
<clustering>
<clus scale="   34.120">  3  5 -1 -1</clus>
<clus scale="   92.735">  2  6  1 -1</clus>
<clus scale="  140.358">  1  4  2 -1</clus>
<clus scale="  140.358">  1  3  2 -1</clus>
</clustering>
</event>
<event>
 6    0  0.1361744E+002  0.1441981E+03  0.7546771E-02  0.1207789E+00
         21   -1    0    0  503  502  0.00000000000E+00  0.00000000000E+00  0.38983987605E+03  0.38983987605E+03  0.00000000000E+00 0.  1.
         -1   -1    0    0    0  501 -0.00000000000E+00 -0.00000000000E+00 -0.54694286735E+02  0.54694286735E+02  0.00000000000E+00 0.  1.
         21    1    1    2  503  504  0.92033044872E+02  0.15859422314E+02  0.64139439412E+02  0.11329373466E+03  0.00000000000E+00 0.  1.
         21    1    1    2  504  501  0.39428570381E+02 -0.20730712057E+02  0.46331929175E+02  0.64273028914E+02  0.00000000000E+00 0.  1.
         21    1    1    2  505  502 -0.20742390284E+02  0.23744736305E+02  0.57286416322E+02  0.65389546198E+02  0.00000000000E+00 0.  1.
         -1    1    1    2    0  505 -0.11071922497E+03 -0.18873446562E+02  0.16738780440E+03  0.20157785301E+03  0.00000000000E+00 0.  1.
<scales pt_clust_3="139.01810" pt_clust_4="31.04190" pt_clust_5="31.28745" pt_clust_6="31.28745"></scales>
<clustering>
<clus scale="   31.042">  3  4 -1 -1</clus>
<clus scale="   31.287">  5  6 -1 -1</clus>
<clus scale="  139.018">  2  3  1 -1</clus>
<clus scale="  144.198">  1  3  2 -1</clus>
</clustering>
</event>
<event>
 6    0  0.1361744E+002  0.2013995E+03  0.7546771E-02  0.1148564E+00
         21   -1    0    0  505  502  0.00000000000E+00  0.00000000000E+00  0.65008189649E+03  0.65008189649E+03  0.00000000000E+00 0.  1.
         -1   -1    0    0    0  501 -0.00000000000E+00 -0.00000000000E+00 -0.11042061240E+03  0.11042061240E+03  0.00000000000E+00 0.  1.
         21    1    1    2  503  504 -0.24088318244E+02  0.38732774093E+02  0.17933746487E+03  0.18504702421E+03  0.00000000000E+00 0.  1.
         21    1    1    2  504  502 -0.12777926929E+03  0.11748387973E+03  0.24936724476E+03  0.30383223400E+03  0.00000000000E+00 0.  1.
         21    1    1    2  505  501  0.26052617926E+02 -0.89728364441E+02  0.38438348254E+01  0.93513065142E+02  0.00000000000E+00 0.  1.
         -1    1    1    2    0  503  0.12581496961E+03 -0.66488289379E+02  0.10711273964E+03  0.17811018555E+03  0.00000000000E+00 0.  1.
<scales pt_clust_3="45.12112" pt_clust_4="45.12112" pt_clust_5="93.43403" pt_clust_6="181.14627"></scales>
<clustering>
<clus scale="   45.121">  3  4 -1 -1</clus>
<clus scale="   93.434">  2  5  1 -1</clus>
<clus scale="  181.146">  2  6  1 -1</clus>
<clus scale="  201.400">  1  3  2 -1</clus>
</clustering>
</event>
<event>
 6    0  0.1361744E+002  0.1846102E+03  0.7546771E-02  0.1163414E+00
          2   -1    0    0  503    0 -0.00000000000E+00  0.00000000000E+00  0.33832239013E+04  0.33832239013E+04  0.00000000000E+00 0. -1.
         21   -1    0    0  504  502  0.00000000000E+00 -0.00000000000E+00 -0.51291682313E+02  0.51291682313E+02  0.00000000000E+00 0. -1.
         21    1    1    2  503  502  0.18211829682E+03  0.86634896236E+02  0.18836538201E+03  0.27596049794E+03  0.00000000000E+00 0. -1.
         21    1    1    2  504  505 -0.31477829302E+02 -0.10242731079E+01  0.46972295006E+02  0.56553508919E+02  0.00000000000E+00 0.  1.
         21    1    1    2  505  501 -0.97074396652E+02 -0.76481042068E+02  0.17792073088E+04  0.17834941648E+04  0.00000000000E+00 0.  1.
          2    1    1    2  501    0 -0.53566070862E+02 -0.91295810600E+01  0.13173872332E+04  0.13185074119E+04  0.00000000000E+00 0. -1.
<scales pt_clust_3="174.89039" pt_clust_4="31.49449" pt_clust_5="39.14727" pt_clust_6="39.14727"></scales>
<clustering>
<clus scale="   31.494">  2  4  1 -1</clus>
<clus scale="   39.147">  5  6 -1 -1</clus>
<clus scale="  174.890">  2  3  1 -1</clus>
<clus scale="   31.494">  2  3  1 -1</clus>
</clustering>
</event>
<event>
 6    0  0.1361744E+002  0.2475065E+03  0.7546771E-02  0.1114891E+00
         21   -1    0    0  501  502  0.00000000000E+00  0.00000000000E+00  0.76454145144E+02  0.76454145144E+02  0.00000000000E+00 0.  1.
          2   -1    0    0  505    0 -0.00000000000E+00 -0.00000000000E+00 -0.11266645042E+04  0.11266645042E+04  0.00000000000E+00 0.  1.
         21    1    1    2  503  504 -0.12792040272E+03  0.85335919349E+02 -0.20617026406E+03  0.25720036226E+03  0.00000000000E+00 0.  1.
         21    1    1    2  504  502 -0.30255394850E+02  0.10954865040E+03 -0.12777081960E+03  0.17100198263E+03  0.00000000000E+00 0.  1.
         21    1    1    2  505  503  0.23877968505E+02 -0.37557998755E+02 -0.36164182566E+03  0.36437010129E+03  0.00000000000E+00 0.  1.
          2    1    1    2  501    0  0.13429782906E+03 -0.15732657099E+03 -0.35462744979E+03  0.41054620322E+03  0.00000000000E+00 0.  1.
<scales pt_clust_3="81.12578" pt_clust_4="81.12578" pt_clust_5="44.50574" pt_clust_6="228.95072"></scales>
<clustering>
<clus scale="   44.506">  2  5  1 -1</clus>
<clus scale="   81.126">  3  4 -1 -1</clus>
<clus scale="  228.951">  2  6  1 -1</clus>
<clus scale="  247.506">  1  3  2 -1</clus>
</clustering>
</event>
<event>
 6    0  0.1361744E+002  0.1053464E+03  0.7546771E-02  0.1269439E+00
          2   -1    0    0  503    0 -0.00000000000E+00  0.00000000000E+00  0.10956347098E+04  0.10956347098E+04  0.00000000000E+00 0. -1.
         21   -1    0    0  504  502  0.00000000000E+00 -0.00000000000E+00 -0.36230482541E+02  0.36230482541E+02  0.00000000000E+00 0. -1.
         21    1    1    2  503  505 -0.11143046382E+02 -0.43709377794E+02  0.24051672843E+03  0.24470997905E+03  0.00000000000E+00 0. -1.
         21    1    1    2  504  501 -0.80403031019E+02 -0.59673777766E+00  0.99129699345E+02  0.12763894698E+03  0.00000000000E+00 0.  1.
         21    1    1    2  505  502 -0.25782470836E+02 -0.35836232921E+02  0.25740248217E+02  0.51103148344E+02  0.00000000000E+00 0. -1.
          2    1    1    2  501    0  0.11732854824E+03  0.80142348493E+02  0.69401755125E+03  0.70841311796E+03  0.00000000000E+00 0. -1.
<scales pt_clust_3="48.78730" pt_clust_4="14000.00000" pt_clust_5="44.14716" pt_clust_6="105.34639"></scales>
<clustering>
<clus scale="   44.147">  2  5  1 -1</clus>
<clus scale="   48.787">  1  3  2 -1</clus>
<clus scale="  105.346">  1  6  2 -1</clus>
<clus scale="   44.147">  2  3  1 -1</clus>
</clustering>
</event>
<event>
 6    0  0.1361744E+002  0.3187144E+03  0.7546771E-02  0.1076243E+00
          2   -1    0    0  502    0 -0.00000000000E+00  0.00000000000E+00  0.23521213581E+04  0.23521213581E+04  0.00000000000E+00 0. -1.
         21   -1    0    0  504  502  0.00000000000E+00 -0.00000000000E+00 -0.24783863151E+03  0.24783863151E+03  0.00000000000E+00 0. -1.
         21    1    1    2  503  501  0.97868946787E+02 -0.44428285798E+02  0.12474523713E+04  0.12520741280E+04  0.00000000000E+00 0. -1.
         21    1    1    2  504  505 -0.18421846547E+03  0.59581538628E+02 -0.86891336264E+02  0.21221806493E+03  0.00000000000E+00 0. -1.
         21    1    1    2  505  503 -0.10287159780E+03  0.62894892606E+00 -0.56646766678E+02  0.11743856856E+03  0.00000000000E+00 0. -1.
          2    1    1    2  501    0  0.18922111647E+03 -0.15782201757E+02  0.10003684582E+04  0.10182292282E+04  0.00000000000E+00 0. -1.
<scales pt_clust_3="93.76789" pt_clust_4="296.76642" pt_clust_5="32.79601" pt_clust_6="93.76789"></scales>
<clustering>
<clus scale="   32.796">  4  5 -1 -1</clus>
<clus scale="   93.768">  3  6 -1 -1</clus>
<clus scale="  296.766">  2  4  1 -1</clus>
<clus scale="  296.766">  2  3  1 -1</clus>
</clustering>
</event>
<event>
 6    0  0.1361744E+002  0.2405830E+03  0.7546771E-02  0.1119405E+00
         21   -1    0    0  501  502  0.00000000000E+00  0.00000000000E+00  0.17572350675E+03  0.17572350675E+03  0.00000000000E+00 0.  1.
          2   -1    0    0  504    0 -0.00000000000E+00 -0.00000000000E+00 -0.10493458013E+04  0.10493458013E+04  0.00000000000E+00 0. -1.
         21    1    1    2  503  505  0.63995446997E+02  0.10799549556E+03 -0.58925801942E+01  0.12567086695E+03  0.00000000000E+00 0.  1.
         21    1    1    2  504  503 -0.21340605797E+02 -0.58671314191E+02 -0.46936666278E+03  0.47350058997E+03  0.00000000000E+00 0. -1.
         21    1    1    2  505  502 -0.46914318068E+01  0.11372952458E+03  0.66485624314E+02  0.13182091083E+03  0.00000000000E+00 0.  1.
          2    1    1    2  501    0 -0.37963409393E+02 -0.16305370595E+03 -0.46484867592E+03  0.49407694034E+03  0.00000000000E+00 0. -1.
<scales pt_clust_3="96.33911" pt_clust_4="62.43192" pt_clust_5="96.33911" pt_clust_6="218.92613"></scales>
<clustering>
<clus scale="   62.432">  2  4  1 -1</clus>
<clus scale="   96.339">  3  5 -1 -1</clus>
<clus scale="  218.926">  2  6  1 -1</clus>
<clus scale="  240.583">  1  3  2 -1</clus>
</clustering>
</event>
<event>
 6    0  0.1361744E+002  0.9751350E+02  0.7546771E-02  0.1285613E+00
          2   -1    0    0  503    0 -0.00000000000E+00  0.00000000000E+00  0.21457844685E+04  0.21457844685E+04  0.00000000000E+00 0. -1.
         21   -1    0    0  505  502  0.00000000000E+00 -0.00000000000E+00 -0.59078709033E+02  0.59078709033E+02  0.00000000000E+00 0.  1.
         21    1    1    2  503  504 -0.17422904165E+02 -0.24943953371E+02  0.98214834821E+02  0.10281980441E+03  0.00000000000E+00 0.  1.
         21    1    1    2  504  502  0.22062439993E+02  0.45088866429E+02  0.30312840511E+01  0.50288625128E+02  0.00000000000E+00 0.  1.
         21    1    1    2  505  501  0.74503711501E+02 -0.67017848539E+02  0.46256708459E+02  0.11037154582E+03  0.00000000000E+00 0.  1.
          2    1    1    2  501    0 -0.79143247329E+02  0.46872935482E+02  0.19392029321E+04  0.19413832022E+04  0.00000000000E+00 0. -1.
<scales pt_clust_3="30.42628" pt_clust_4="49.80535" pt_clust_5="14000.00000" pt_clust_6="97.51350"></scales>
<clustering>
<clus scale="   30.426">  1  3  2 -1</clus>
<clus scale="   49.805">  2  4  1 -1</clus>
<clus scale="   97.514">  1  6  2 -1</clus>
<clus scale="   49.805">  2  3  1 -1</clus>
</clustering>
</event>
<event>
 6    0  0.1400930E+002  0.1693294E+03  0.7546771E-02  0.1178549E+00
         -1   -1    0    0    0  501 -0.00000000000E+00  0.00000000000E+00  0.49313401551E+03  0.49313401551E+03  0.00000000000E+00 0. -1.
         21   -1    0    0  503  502  0.00000000000E+00 -0.00000000000E+00 -0.10580848537E+04  0.10580848537E+04  0.00000000000E+00 0. -1.
         21    1    1    2  503  501 -0.30786673483E+02  0.60063741331E+01  0.36557981145E+01  0.31579434039E+02  0.00000000000E+00 0.  1.
         21    1    1    2  504  505  0.44482416776E+02 -0.81995878604E+02 -0.54754319533E+03  0.55543276845E+03  0.00000000000E+00 0. -1.
         21    1    1    2  505  502  0.70515493611E+02 -0.29168407295E+02 -0.47993682205E+03  0.48596562016E+03  0.00000000000E+00 0. -1.
         -1    1    1    2    0  504 -0.84211236904E+02  0.10515791177E+03  0.45887338103E+03  0.47824104660E+03  0.00000000000E+00 0. -1.
<scales pt_clust_3="31.36711" pt_clust_4="51.25055" pt_clust_5="51.25055" pt_clust_6="159.55895"></scales>
<clustering>
<clus scale="   31.367">  1  3  2 -1</clus>
<clus scale="   51.251">  4  5 -1 -1</clus>
<clus scale="  159.559">  1  6  2 -1</clus>
<clus scale="  169.329">  2  3  1 -1</clus>
</clustering>
</event>
<event>
 6    0  0.1361744E+002  0.1858718E+03  0.7546771E-02  0.1162238E+00
          2   -1    0    0  503    0 -0.00000000000E+00  0.00000000000E+00  0.82658096106E+03  0.82658096106E+03  0.00000000000E+00 0.  1.
         21   -1    0    0  504  502  0.00000000000E+00 -0.00000000000E+00 -0.36275183151E+03  0.36275183151E+03  0.00000000000E+00 0. -1.
         21    1    1    2  503  502 -0.27766901212E+02 -0.23647615701E+02  0.33724814759E+02  0.49674678275E+02  0.00000000000E+00 0. -1.
         21    1    1    2  504  505 -0.29317880326E+02  0.21721268238E+02 -0.42605845913E+02  0.56094649537E+02  0.00000000000E+00 0. -1.
         21    1    1    2  505  501 -0.95336668528E+01  0.14724405089E+03 -0.27869301159E+03  0.31534345726E+03  0.00000000000E+00 0. -1.
          2    1    1    2  501    0  0.66618448390E+02 -0.14531770343E+03  0.75140317230E+03  0.76822000751E+03  0.00000000000E+00 0.  1.
<scales pt_clust_3="36.47205" pt_clust_4="33.99945" pt_clust_5="33.99945" pt_clust_6="172.84024"></scales>
<clustering>
<clus scale="   33.999">  4  5 -1 -1</clus>
<clus scale="   36.472">  1  3  2 -1</clus>
<clus scale="  172.840">  1  6  2 -1</clus>
<clus scale="  185.872">  2  3  1 -1</clus>
</clustering>
</event>
<event>
 6    0  0.1361744E+002  0.8671250E+02  0.7546771E-02  0.1311014E+00
         21   -1    0    0  505  502  0.00000000000E+00  0.00000000000E+00  0.34351090497E+03  0.34351090497E+03  0.00000000000E+00 0.  1.
          2   -1    0    0  504    0 -0.00000000000E+00 -0.00000000000E+00 -0.10777311698E+04  0.10777311698E+04  0.00000000000E+00 0.  1.
         21    1    1    2  503  502  0.92948812922E+01 -0.43263491960E+02  0.11835866781E+03  0.12636019468E+03  0.00000000000E+00 0. -1.
         21    1    1    2  504  503 -0.17441234456E+02  0.83610833350E+02 -0.19739289142E+03  0.21507887320E+03  0.00000000000E+00 0. -1.
         21    1    1    2  505  501 -0.76834941630E+02 -0.13733750620E+02  0.20275135447E+03  0.21725638288E+03  0.00000000000E+00 0.  1.
          2    1    1    2  501    0  0.84981294793E+02 -0.26613590770E+02 -0.85793739570E+03  0.86254662403E+03  0.00000000000E+00 0.  1.
<scales pt_clust_3="44.25070" pt_clust_4="83.64120" pt_clust_5="86.71250" pt_clust_6="14000.00000"></scales>
<clustering>
<clus scale="   44.251">  1  3  2 -1</clus>
<clus scale="   83.641">  2  4  1 -1</clus>
<clus scale="   86.712">  1  5  2 -1</clus>
<clus scale="   44.251">  1  3  2 -1</clus>
</clustering>
</event>
<event>
 6    0  0.1361744E+002  0.1382168E+03  0.7546771E-02  0.1215749E+00
          2   -1    0    0  504    0 -0.00000000000E+00  0.00000000000E+00  0.62302408362E+03  0.62302408362E+03  0.00000000000E+00 0. -1.
         21   -1    0    0  503  502  0.00000000000E+00 -0.00000000000E+00 -0.13450462298E+04  0.13450462298E+04  0.00000000000E+00 0. -1.
         21    1    1    2  503  505  0.10763311789E+02 -0.51490711249E+02 -0.24369150564E+03  0.24930441663E+03  0.00000000000E+00 0. -1.
         21    1    1    2  504  502 -0.27935917526E+02 -0.28292998559E+02  0.23143295965E+02  0.46005667081E+02  0.00000000000E+00 0. -1.
         21    1    1    2  505  501  0.41058578394E+02 -0.77541128587E+02 -0.10744864317E+04  0.10780628578E+04  0.00000000000E+00 0. -1.
          2    1    1    2  501    0 -0.23885972656E+02  0.15732483840E+03  0.57301249521E+03  0.59469737189E+03  0.00000000000E+00 0. -1.
<scales pt_clust_3="52.70869" pt_clust_4="39.76065" pt_clust_5="14000.00000" pt_clust_6="138.21681"></scales>
<clustering>
<clus scale="   39.761">  1  4  2 -1</clus>
<clus scale="   52.709">  2  3  1 -1</clus>
<clus scale="  138.217">  1  6  2 -1</clus>
<clus scale="   52.709">  2  3  1 -1</clus>
</clustering>
</event>
<event>
 6    0  0.1361744E+002  0.2373597E+03  0.7546771E-02  0.1121564E+00
         21   -1    0    0  504  502  0.00000000000E+00  0.00000000000E+00  0.27583496398E+03  0.27583496398E+03  0.00000000000E+00 0. -1.
          2   -1    0    0  505    0 -0.00000000000E+00 -0.00000000000E+00 -0.34623370764E+03  0.34623370764E+03  0.00000000000E+00 0.  1.
         21    1    1    2  503  502 -0.16676157755E+02  0.78978127083E+02  0.53380674871E+02  0.96773628871E+02  0.00000000000E+00 0. -1.
         21    1    1    2  504  501  0.76747875106E+02 -0.10079258073E+03 -0.89087301171E+02  0.15487390966E+03  0.00000000000E+00 0. -1.
         21    1    1    2  505  503 -0.13176235108E+03  0.84552677586E+02  0.11411360878E+03  0.19373277513E+03  0.00000000000E+00 0. -1.
          2    1    1    2  501    0  0.71690633727E+02 -0.62738223937E+02 -0.14880572614E+03  0.17668835796E+03  0.00000000000E+00 0.  1.
<scales pt_clust_3="62.44643" pt_clust_4="58.58462" pt_clust_5="62.44643" pt_clust_6="230.95550"></scales>
<clustering>
<clus scale="   58.585">  4  6 -1 -1</clus>
<clus scale="   62.446">  3  5 -1 -1</clus>
<clus scale="  230.956">  2  4  1 -1</clus>
<clus scale="  237.360">  1  3  2 -1</clus>
</clustering>
</event>
<event>
 6    0  0.1361744E+002  0.8188551E+02  0.7546771E-02  0.1323784E+00
          2   -1    0    0  504    0 -0.00000000000E+00  0.00000000000E+00  0.53447168413E+03  0.53447168413E+03  0.00000000000E+00 0.  1.
         21   -1    0    0  503  502  0.00000000000E+00 -0.00000000000E+00 -0.14096619028E+03  0.14096619028E+03  0.00000000000E+00 0.  1.
         21    1    1    2  503  505  0.71439084872E+01  0.44597559406E+02 -0.43432126522E+02  0.62660412923E+02  0.00000000000E+00 0. -1.
         21    1    1    2  504  502  0.45692269248E+02 -0.13130263061E+02  0.44456443631E+02  0.65088882748E+02  0.00000000000E+00 0.  1.
         21    1    1    2  505  501 -0.10928049151E+03  0.26807362847E+02 -0.30834429666E+02  0.11666885866E+03  0.00000000000E+00 0.  1.
          2    1    1    2  501    0  0.56444313777E+02 -0.58274659192E+02  0.42331560641E+03  0.43101972007E+03  0.00000000000E+00 0.  1.
<scales pt_clust_3="45.16611" pt_clust_4="47.19594" pt_clust_5="81.88551" pt_clust_6="14000.00000"></scales>
<clustering>
<clus scale="   45.166">  2  3  1 -1</clus>
<clus scale="   47.196">  2  4  1 -1</clus>
<clus scale="   81.886">  2  5  1 -1</clus>
<clus scale="   45.166">  2  3  1 -1</clus>
</clustering>
</event>
<event>
 6    0  0.1361744E+002  0.9634672E+02  0.7546771E-02  0.1288171E+00
         21   -1    0    0  505  502  0.00000000000E+00  0.00000000000E+00  0.14102385983E+03  0.14102385983E+03  0.00000000000E+00 0.  1.
          1   -1    0    0  504    0 -0.00000000000E+00 -0.00000000000E+00 -0.34062569341E+04  0.34062569341E+04  0.00000000000E+00 0.  1.
         21    1    1    2  503  502  0.53211594064E+01 -0.41864381545E+02 -0.19841952951E+02  0.46633081353E+02  0.00000000000E+00 0.  1.
         21    1    1    2  504  503 -0.57627441991E+02 -0.33960652324E+02 -0.18163081695E+04  0.18175394396E+04  0.00000000000E+00 0.  1.
         21    1    1    2  505  501  0.33856918231E+02 -0.46909076298E+02  0.11780821668E+03  0.13124606001E+03  0.00000000000E+00 0.  1.
          1    1    1    2  501    0  0.18449364354E+02  0.12273411017E+03 -0.15468911685E+04  0.15518622130E+04  0.00000000000E+00 0.  1.
<scales pt_clust_3="42.20120" pt_clust_4="66.97049" pt_clust_5="96.34672" pt_clust_6="14000.00000"></scales>
<clustering>
<clus scale="   42.201">  1  3  2 -1</clus>
<clus scale="   66.970">  2  4  1 -1</clus>
<clus scale="   96.347">  1  5  2 -1</clus>
<clus scale="   42.201">  1  3  2 -1</clus>
</clustering>
</event>
<event>
 6    0  0.1361744E+002  0.1213216E+03  0.7546771E-02  0.1240933E+00
         21   -1    0    0  503  502  0.00000000000E+00  0.00000000000E+00  0.16091750271E+03  0.16091750271E+03  0.00000000000E+00 0.  1.
          1   -1    0    0  504    0 -0.00000000000E+00 -0.00000000000E+00 -0.18452942785E+03  0.18452942785E+03  0.00000000000E+00 0.  1.
         21    1    1    2  503  501 -0.61655072307E+00  0.59535972259E+02  0.41378750805E+02  0.72505952485E+02  0.00000000000E+00 0.  1.
         21    1    1    2  504  505  0.22898343584E+02 -0.61302744565E+02 -0.21085751782E+02  0.68752960361E+02  0.00000000000E+00 0.  1.
         21    1    1    2  505  502 -0.56893570531E+01 -0.92829965886E+02  0.10850289200E+02  0.93634930052E+02  0.00000000000E+00 0.  1.
          1    1    1    2  501    0 -0.16592435808E+02  0.94596738192E+02 -0.54755213359E+02  0.11055308767E+03  0.00000000000E+00 0.  1.
<scales pt_clust_3="59.53916" pt_clust_4="39.45157" pt_clust_5="39.45157" pt_clust_6="111.83429"></scales>
<clustering>
<clus scale="   39.452">  4  5 -1 -1</clus>
<clus scale="   59.539">  1  3  2 -1</clus>
<clus scale="  111.834">  2  6  1 -1</clus>
<clus scale="   59.539">  1  3  2 -1</clus>
</clustering>
</event>
<event>
 6    0  0.1361744E+002  0.1330936E+03  0.7546771E-02  0.1222936E+00
          2   -1    0    0  503    0 -0.00000000000E+00  0.00000000000E+00  0.11858477637E+04  0.11858477637E+04  0.00000000000E+00 0.  1.
         21   -1    0    0  504  502  0.00000000000E+00 -0.00000000000E+00 -0.12336933371E+04  0.12336933371E+04  0.00000000000E+00 0.  1.
         21    1    1    2  503  502 -0.19103653646E+02 -0.30519799780E+02 -0.51934747024E+03  0.52059408622E+03  0.00000000000E+00 0.  1.
         21    1    1    2  504  505  0.55407611143E+02 -0.15799037147E+02 -0.67667026299E+03  0.67911873613E+03  0.00000000000E+00 0.  1.
         21    1    1    2  505  501  0.71933835263E+02 -0.42558654546E+02  0.23989459646E+02  0.86955217823E+02  0.00000000000E+00 0. -1.
          2    1    1    2  501    0 -0.10823779276E+03  0.88877491473E+02  0.11241827002E+04  0.11328730607E+04  0.00000000000E+00 0.  1.
<scales pt_clust_3="36.00566" pt_clust_4="58.26133" pt_clust_5="14000.00000" pt_clust_6="133.09363"></scales>
<clustering>
<clus scale="   36.006">  2  3  1 -1</clus>
<clus scale="   58.261">  2  4  1 -1</clus>
<clus scale="  133.094">  1  6  2 -1</clus>
<clus scale="   36.006">  2  3  1 -1</clus>
</clustering>
</event>
<event>
 6    0  0.1361744E+002  0.1396145E+03  0.7546771E-02  0.1213849E+00
         21   -1    0    0  504  502  0.00000000000E+00  0.00000000000E+00  0.15664882032E+03  0.15664882032E+03  0.00000000000E+00 0.  1.
          1   -1    0    0  503    0 -0.00000000000E+00 -0.00000000000E+00 -0.64283783113E+03  0.64283783113E+03  0.00000000000E+00 0. -1.
         21    1    1    2  503  505 -0.27246607957E+01 -0.47096062674E+02 -0.68887373311E+02  0.83492113984E+02  0.00000000000E+00 0.  1.
         21    1    1    2  504  501  0.15552978507E+02  0.38925749782E+02 -0.42276663797E+01  0.42130538800E+02  0.00000000000E+00 0.  1.
         21    1    1    2  505  502 -0.31007943591E+02  0.10821048748E+03  0.10014770817E+03  0.15066706879E+03  0.00000000000E+00 0.  1.
          1    1    1    2  501    0  0.18179625879E+02 -0.10004017459E+03 -0.51322167929E+03  0.52319692987E+03  0.00000000000E+00 0. -1.
<scales pt_clust_3="45.07181" pt_clust_4="41.91789" pt_clust_5="139.61454" pt_clust_6="14000.00000"></scales>
<clustering>
<clus scale="   41.918">  1  4  2 -1</clus>
<clus scale="   45.072">  2  3  1 -1</clus>
<clus scale="  139.615">  1  5  2 -1</clus>
<clus scale="   41.918">  1  3  2 -1</clus>
</clustering>
</event>
<event>
 6    0  0.1361744E+002  0.1154154E+03  0.7546771E-02  0.1250858E+00
         21   -1    0    0  504  502  0.00000000000E+00  0.00000000000E+00  0.16278156097E+03  0.16278156097E+03  0.00000000000E+00 0.  1.
          1   -1    0    0  503    0 -0.00000000000E+00 -0.00000000000E+00 -0.39755990551E+03  0.39755990551E+03  0.00000000000E+00 0. -1.
         21    1    1    2  503  502  0.32029732909E+02 -0.12242474531E+02 -0.41269496370E+02  0.53655878555E+02  0.00000000000E+00 0. -1.
         21    1    1    2  504  505  0.29274870588E+02  0.24215707416E+02  0.49641574947E+02  0.62511634892E+02  0.00000000000E+00 0.  1.
         21    1    1    2  505  501 -0.19978621410E+02  0.96072845140E+02  0.63194031904E+02  0.11671599100E+03  0.00000000000E+00 0.  1.
          1    1    1    2  501    0 -0.41325982087E+02 -0.10804607802E+03 -0.30634445503E+03  0.32745796203E+03  0.00000000000E+00 0. -1.
<scales pt_clust_3="34.28968" pt_clust_4="38.30649" pt_clust_5="115.41542" pt_clust_6="14000.00000"></scales>
<clustering>
<clus scale="   34.290">  2  3  1 -1</clus>
<clus scale="   38.306">  1  4  2 -1</clus>
<clus scale="  115.415">  1  5  2 -1</clus>
<clus scale="   38.306">  1  3  2 -1</clus>
</clustering>
</event>
<event>
 6    0  0.1361744E+002  0.1033936E+03  0.7546771E-02  0.1273317E+00
         -2   -1    0    0    0  501 -0.00000000000E+00  0.00000000000E+00  0.27020493477E+03  0.27020493477E+03  0.00000000000E+00 0.  1.
         21   -1    0    0  505  502  0.00000000000E+00 -0.00000000000E+00 -0.76407112498E+03  0.76407112498E+03  0.00000000000E+00 0.  1.
         21    1    1    2  503  501 -0.52923605915E+02 -0.76448374337E+02  0.74895350072E+02  0.11939252684E+03  0.00000000000E+00 0.  1.
         21    1    1    2  504  502  0.86045912008E+02  0.60729962522E+01 -0.63093877140E+03  0.63680806646E+03  0.00000000000E+00 0.  1.
         21    1    1    2  505  503  0.17179085197E+02 -0.31874342508E+02 -0.84736359403E+02  0.92148495828E+02  0.00000000000E+00 0.  1.
         -2    1    1    2    0  504 -0.50301391289E+02  0.10224972059E+03  0.14691359052E+03  0.18592697063E+03  0.00000000000E+00 0.  1.
<scales pt_clust_3="93.52695" pt_clust_4="103.39361" pt_clust_5="36.20904" pt_clust_6="14000.00000"></scales>
<clustering>
<clus scale="   36.209">  2  5  1 -1</clus>
<clus scale="   93.527">  1  3  2 -1</clus>
<clus scale="  103.394">  2  4  1 -1</clus>
<clus scale="   36.209">  2  3  1 -1</clus>
</clustering>
</event>
<event>
 6    0  0.1361744E+002  0.9941434E+02  0.7546771E-02  0.1281532E+00
         21   -1    0    0  503  502  0.00000000000E+00  0.00000000000E+00  0.45007330731E+02  0.45007330731E+02  0.00000000000E+00 0.  1.
          1   -1    0    0  504    0 -0.00000000000E+00 -0.00000000000E+00 -0.18201768309E+04  0.18201768309E+04  0.00000000000E+00 0.  1.
         21    1    1    2  503  501  0.53841472457E+02  0.79001160195E+01 -0.17575802335E+02  0.57185879526E+02  0.00000000000E+00 0.  1.
         21    1    1    2  504  505  0.44285748435E+02  0.34994318366E+02 -0.58996669601E+03  0.59266055398E+03  0.00000000000E+00 0.  1.
         21    1    1    2  505  502 -0.75460738980E+02  0.84467407810E+02 -0.14226344783E+03  0.18184596421E+03  0.00000000000E+00 0.  1.
          1    1    1    2  501    0 -0.22666481912E+02 -0.12736184220E+03 -0.10253635539E+04  0.10334917639E+04  0.00000000000E+00 0.  1.
<scales pt_clust_3="54.41797" pt_clust_4="58.98057" pt_clust_5="99.41434" pt_clust_6="14000.00000"></scales>
<clustering>
<clus scale="   54.418">  1  3  2 -1</clus>
<clus scale="   58.981">  2  4  1 -1</clus>
<clus scale="   99.414">  1  5  2 -1</clus>
<clus scale="   54.418">  1  3  2 -1</clus>
</clustering>
</event>
<event>
 6    0  0.1361744E+002  0.1198796E+03  0.7546771E-02  0.1243296E+00
         -2   -1    0    0    0  501 -0.00000000000E+00  0.00000000000E+00  0.71997100760E+03  0.71997100760E+03  0.00000000000E+00 0. -1.
         21   -1    0    0  503  502  0.00000000000E+00 -0.00000000000E+00 -0.85190582912E+02  0.85190582912E+02  0.00000000000E+00 0. -1.
         21    1    1    2  503  505 -0.15396404126E+03 -0.15370051449E+02  0.45969547948E+02  0.16141364199E+03  0.00000000000E+00 0. -1.
         21    1    1    2  504  502  0.34969464744E+02  0.26429859018E+01 -0.13688656517E+01  0.35095906202E+02  0.00000000000E+00 0. -1.
         21    1    1    2  505  501  0.25167723617E+02  0.41563508186E+02  0.15052466830E+03  0.15817273877E+03  0.00000000000E+00 0.  1.
         -2    1    1    2    0  504  0.93826852896E+02 -0.28836442639E+02  0.43965507409E+03  0.45047930354E+03  0.00000000000E+00 0. -1.
<scales pt_clust_3="119.87964" pt_clust_4="35.06920" pt_clust_5="49.77976" pt_clust_6="14000.00000"></scales>
<clustering>
<clus scale="   35.069">  2  4  1 -1</clus>
<clus scale="   49.780">  1  5  2 -1</clus>
<clus scale="  119.880">  2  3  1 -1</clus>
<clus scale="   35.069">  2  3  1 -1</clus>
</clustering>
</event>
<event>
 6    0  0.1361744E+002  0.1428282E+03  0.7546771E-02  0.1209573E+00
         21   -1    0    0  503  502  0.00000000000E+00  0.00000000000E+00  0.13019133394E+03  0.13019133394E+03  0.00000000000E+00 0.  1.
          2   -1    0    0  504    0 -0.00000000000E+00 -0.00000000000E+00 -0.25271494395E+04  0.25271494395E+04  0.00000000000E+00 0.  1.
         21    1    1    2  503  505  0.65939577888E+02 -0.12809753271E+02  0.12034521666E+02  0.68241830446E+02  0.00000000000E+00 0.  1.
         21    1    1    2  504  502 -0.11513373973E+03 -0.25740842088E+02 -0.75936237235E+03  0.76847223861E+03  0.00000000000E+00 0.  1.
         21    1    1    2  505  501  0.52643308426E+02 -0.43619430132E+02  0.70690130093E+02  0.98341583776E+02  0.00000000000E+00 0.  1.
          2    1    1    2  501    0 -0.34491465834E+01  0.82170025491E+02 -0.17203203850E+04  0.17222851206E+04  0.00000000000E+00 0.  1.
<scales pt_clust_3="59.97144" pt_clust_4="129.38077" pt_clust_5="59.97144" pt_clust_6="82.24238"></scales>
<clustering>
<clus scale="   59.971">  3  5 -1 -1</clus>
<clus scale="   82.242">  2  6  1 -1</clus>
<clus scale="  129.381">  2  4  1 -1</clus>
<clus scale="  142.828">  1  3  2 -1</clus>
</clustering>
</event>
<event>
 6    0  0.1361744E+002  0.1190218E+03  0.7546771E-02  0.1244719E+00
         -1   -1    0    0    0  501 -0.00000000000E+00  0.00000000000E+00  0.12787330258E+04  0.12787330258E+04  0.00000000000E+00 0.  1.
         21   -1    0    0  505  502  0.00000000000E+00 -0.00000000000E+00 -0.95407213738E+02  0.95407213738E+02  0.00000000000E+00 0.  1.
         21    1    1    2  503  502 -0.89797469817E+02  0.64639264013E+02 -0.20816424745E+02  0.11258394014E+03  0.00000000000E+00 0.  1.
         21    1    1    2  504  501 -0.13383999622E+02 -0.28864716122E+02  0.10745859601E+03  0.11206985830E+03  0.00000000000E+00 0.  1.
         21    1    1    2  505  504 -0.23204885828E+02 -0.24441337450E+02 -0.10309746211E+02  0.35243957916E+02  0.00000000000E+00 0.  1.
         -1    1    1    2    0  503  0.12638635527E+03 -0.11333210442E+02  0.11069933870E+04  0.11142424832E+04  0.00000000000E+00 0.  1.
<scales pt_clust_3="119.02183" pt_clust_4="31.81671" pt_clust_5="34.02402" pt_clust_6="14000.00000"></scales>
<clustering>
<clus scale="   31.817">  1  4  2 -1</clus>
<clus scale="   34.024">  2  5  1 -1</clus>
<clus scale="  119.022">  2  3  1 -1</clus>
<clus scale="   34.024">  2  3  1 -1</clus>
</clustering>
</event>
<event>
 6    0  0.1361744E+002  0.1859857E+03  0.7546771E-02  0.1162133E+00
         21   -1    0    0  503  502  0.00000000000E+00  0.00000000000E+00  0.18109696650E+03  0.18109696650E+03  0.00000000000E+00 0.  1.
          2   -1    0    0  505    0 -0.00000000000E+00 -0.00000000000E+00 -0.10047278462E+04  0.10047278462E+04  0.00000000000E+00 0. -1.
         21    1    1    2  503  501 -0.11725892993E+02  0.41136928161E+02 -0.20405752440E+02  0.47393440028E+02  0.00000000000E+00 0.  1.
         21    1    1    2  504  502  0.67788564028E+02  0.46968362411E+02  0.92553492820E+02  0.12396558197E+03  0.00000000000E+00 0.  1.
         21    1    1    2  505  504  0.82230251849E+02  0.13111586039E+02  0.17633615210E+02  0.85115641294E+02  0.00000000000E+00 0. -1.
          2    1    1    2  501    0 -0.13829292288E+03 -0.10121687661E+03 -0.91341223524E+03  0.92935014936E+03  0.00000000000E+00 0. -1.
<scales pt_clust_3="42.77550" pt_clust_4="68.93104" pt_clust_5="68.93104" pt_clust_6="170.68153"></scales>
<clustering>
<clus scale="   42.776">  1  3  2 -1</clus>
<clus scale="   68.931">  4  5 -1 -1</clus>
<clus scale="  170.682">  2  6  1 -1</clus>
<clus scale="   42.776">  1  3  2 -1</clus>
</clustering>
</event>
<event>
 6    0  0.1361744E+002  0.1066695E+03  0.7546771E-02  0.1266865E+00
         -4   -1    0    0    0  501 -0.00000000000E+00  0.00000000000E+00  0.52601841727E+03  0.52601841727E+03  0.00000000000E+00 0. -1.
         21   -1    0    0  504  502  0.00000000000E+00 -0.00000000000E+00 -0.79349840170E+02  0.79349840170E+02  0.00000000000E+00 0.  1.
         21    1    1    2  503  505 -0.65953426114E+02 -0.58520151966E+01 -0.49634730403E+01  0.66398317469E+02  0.00000000000E+00 0. -1.
         21    1    1    2  504  503 -0.33157210235E+02 -0.34459191681E+02  0.35876011136E+01  0.47955264191E+02  0.00000000000E+00 0. -1.
         21    1    1    2  505  501  0.77749535136E+02 -0.60011922567E+02  0.22646336743E+03  0.24684423803E+03  0.00000000000E+00 0.  1.
         -4    1    1    2    0  502  0.21361101214E+02  0.10032312945E+03  0.22158108160E+03  0.24417043775E+03  0.00000000000E+00 0. -1.
<scales pt_clust_3="34.27867" pt_clust_4="34.27867" pt_clust_5="98.21620" pt_clust_6="98.74941"></scales>
<clustering>
<clus scale="   34.279">  3  4 -1 -1</clus>
<clus scale="   98.216">  1  5  2 -1</clus>
<clus scale="   98.749">  1  6  2 -1</clus>
<clus scale="  106.670">  2  3  1 -1</clus>
</clustering>
</event>
<event>
 6    0  0.1361744E+002  0.3203070E+03  0.7546771E-02  0.1075508E+00
         -1   -1    0    0    0  501 -0.00000000000E+00  0.00000000000E+00  0.29809302295E+03  0.29809302295E+03  0.00000000000E+00 0. -1.
         21   -1    0    0  505  502  0.00000000000E+00 -0.00000000000E+00 -0.77368739829E+03  0.77368739829E+03  0.00000000000E+00 0.  1.
         21    1    1    2  503  504  0.90538655499E+02  0.43252772294E+02  0.81822433344E+01  0.10067273492E+03  0.00000000000E+00 0.  1.
         21    1    1    2  504  502 -0.24791208568E+03 -0.18584366712E+03 -0.59042021721E+03  0.66677905165E+03  0.00000000000E+00 0.  1.
         21    1    1    2  505  501 -0.37824905391E+02  0.38258713372E+01 -0.79330630055E+01  0.38836764129E+02  0.00000000000E+00 0.  1.
         -1    1    1    2    0  503  0.19519833557E+03  0.13876502349E+03  0.11457666154E+03  0.26549187054E+03  0.00000000000E+00 0. -1.
<scales pt_clust_3="42.46619" pt_clust_4="313.63343" pt_clust_5="38.01790" pt_clust_6="42.46619"></scales>
<clustering>
<clus scale="   38.018">  1  5  2 -1</clus>
<clus scale="   42.466">  3  6 -1 -1</clus>
<clus scale="  313.633">  2  4  1 -1</clus>
<clus scale="  313.633">  2  3  1 -1</clus>
</clustering>
</event>
<event>
 6    0  0.1361744E+002  0.9980117E+02  0.7546771E-02  0.1280715E+00
         21   -1    0    0  503  502  0.00000000000E+00  0.00000000000E+00  0.92468046893E+02  0.92468046893E+02  0.00000000000E+00 0.  1.
          2   -1    0    0  504    0 -0.00000000000E+00 -0.00000000000E+00 -0.32246237522E+04  0.32246237522E+04  0.00000000000E+00 0. -1.
         21    1    1    2  503  501  0.40529440233E+00  0.53784422934E+02 -0.70710431554E+02  0.88841958243E+02  0.00000000000E+00 0.  1.
         21    1    1    2  504  505  0.61432800210E+02  0.45616876379E+01 -0.12310645538E+03  0.13765898915E+03  0.00000000000E+00 0.  1.
         21    1    1    2  505  502  0.42197620674E+02 -0.47611812298E+02  0.61761547667E+02  0.88667991017E+02  0.00000000000E+00 0.  1.
          2    1    1    2  501    0 -0.10403571529E+03 -0.10734298274E+02 -0.30001003660E+04  0.30019228607E+04  0.00000000000E+00 0. -1.
<scales pt_clust_3="53.78595" pt_clust_4="14000.00000" pt_clust_5="42.57249" pt_clust_6="99.80117"></scales>
<clustering>
<clus scale="   53.786">  1  3  2 -1</clus>
<clus scale="   42.572">  1  5  2 -1</clus>
<clus scale="   99.801">  2  6  1 -1</clus>
<clus scale="   53.786">  1  3  2 -1</clus>
</clustering>
</event>
<event>
 6    0  0.1361744E+002  0.1450882E+03  0.7546771E-02  0.1206642E+00
         -2   -1    0    0    0  501 -0.00000000000E+00  0.00000000000E+00  0.40027766295E+03  0.40027766295E+03  0.00000000000E+00 0. -1.
         21   -1    0    0  503  502  0.00000000000E+00 -0.00000000000E+00 -0.52062673309E+03  0.52062673309E+03  0.00000000000E+00 0. -1.
         21    1    1    2  503  505 -0.12311659672E+03 -0.78574161326E+01 -0.40578998752E+03  0.42412845855E+03  0.00000000000E+00 0. -1.
         21    1    1    2  504  502 -0.15632723628E+02 -0.54239342664E+02 -0.65321610296E+02  0.86331924062E+02  0.00000000000E+00 0.  1.
         21    1    1    2  505  501  0.63020939303E+02  0.23475258742E+02  0.21831775112E+02  0.70706102765E+02  0.00000000000E+00 0. -1.
         -2    1    1    2    0  504  0.75728381042E+02  0.38621500055E+02  0.32893075257E+03  0.33973791067E+03  0.00000000000E+00 0. -1.
<scales pt_clust_3="145.08821" pt_clust_4="56.44722" pt_clust_5="65.45368" pt_clust_6="14000.00000"></scales>
<clustering>
<clus scale="   56.447">  2  4  1 -1</clus>
<clus scale="   65.454">  1  5  2 -1</clus>
<clus scale="  145.088">  2  3  1 -1</clus>
<clus scale="   56.447">  2  3  1 -1</clus>
</clustering>
</event>
<event>
 6    0  0.1361744E+002  0.1699642E+03  0.7546771E-02  0.1177885E+00
          2   -1    0    0  502    0 -0.00000000000E+00  0.00000000000E+00  0.10452616400E+04  0.10452616400E+04  0.00000000000E+00 0.  1.
         21   -1    0    0  504  502  0.00000000000E+00 -0.00000000000E+00 -0.82568951699E+02  0.82568951699E+02  0.00000000000E+00 0.  1.
         21    1    1    2  503  501 -0.81468990796E+02  0.45931608792E+01  0.37381524340E+03  0.38261747188E+03  0.00000000000E+00 0.  1.
         21    1    1    2  504  505  0.79065353579E+02  0.12952013155E+02 -0.78144952232E+01  0.80499385817E+02  0.00000000000E+00 0.  1.
         21    1    1    2  505  503  0.85941310303E+02 -0.35115278311E+01  0.29050123360E+02  0.90786283719E+02  0.00000000000E+00 0.  1.
          2    1    1    2  501    0 -0.83537673086E+02 -0.14033646203E+02  0.56764181677E+03  0.57392745029E+03  0.00000000000E+00 0.  1.
<scales pt_clust_3="35.66500" pt_clust_4="38.25994" pt_clust_5="38.25994" pt_clust_6="169.22409"></scales>
<clustering>
<clus scale="   35.665">  3  6 -1 -1</clus>
<clus scale="   38.260">  4  5 -1 -1</clus>
<clus scale="  169.224">  1  3  2 -1</clus>
<clus scale="  169.964">  2  3  1 -1</clus>
</clustering>
</event>
<event>
 6    0  0.1361744E+002  0.9901323E+02  0.7546771E-02  0.1282385E+00
          1   -1    0    0  503    0 -0.00000000000E+00  0.00000000000E+00  0.32247406232E+03  0.32247406232E+03  0.00000000000E+00 0.  1.
         21   -1    0    0  505  502  0.00000000000E+00 -0.00000000000E+00 -0.13533977859E+03  0.13533977859E+03  0.00000000000E+00 0.  1.
         21    1    1    2  503  504  0.20066993468E+02 -0.23337069621E+02  0.14539318190E+03  0.14861520914E+03  0.00000000000E+00 0. -1.
         21    1    1    2  504  502 -0.14005791593E+02  0.11232094979E+03 -0.30172496218E+02  0.11714323492E+03  0.00000000000E+00 0.  1.
         21    1    1    2  505  501 -0.60387318184E+02 -0.79282980091E+02 -0.21598116436E+01  0.99684923212E+02  0.00000000000E+00 0.  1.
          1    1    1    2  501    0  0.54326116309E+02 -0.97009000740E+01  0.74073409698E+02  0.92370473636E+02  0.00000000000E+00 0.  1.
<scales pt_clust_3="30.77829" pt_clust_4="14000.00000" pt_clust_5="99.01323" pt_clust_6="67.13682"></scales>
<clustering>
<clus scale="   30.778">  1  3  2 -1</clus>
<clus scale="   67.137">  1  6  2 -1</clus>
<clus scale="   99.013">  1  5  2 -1</clus>
<clus scale="   99.013">  2  3  1 -1</clus>
</clustering>
</event>
<event>
 6    0  0.1361744E+002  0.1285401E+03  0.7546771E-02  0.1229638E+00
         21   -1    0    0  503  502  0.00000000000E+00  0.00000000000E+00  0.10560074960E+03  0.10560074960E+03  0.00000000000E+00 0.  1.
          1   -1    0    0  504    0 -0.00000000000E+00 -0.00000000000E+00 -0.16721544850E+04  0.16721544850E+04  0.00000000000E+00 0.  1.
         21    1    1    2  503  501  0.15848679907E+01  0.98618105114E+02 -0.35662449547E+03  0.37001226093E+03  0.00000000000E+00 0. -1.
         21    1    1    2  504  505  0.43232605749E+02 -0.46075485755E+02  0.80152711720E+00  0.63187427809E+02  0.00000000000E+00 0.  1.
         21    1    1    2  505  502  0.21472942177E+02 -0.55383977645E+02  0.52684882847E+02  0.79398797889E+02  0.00000000000E+00 0.  1.
          1    1    1    2  501    0 -0.66290415916E+02  0.28413582863E+01 -0.12634156499E+04  0.12651567480E+04  0.00000000000E+00 0.  1.
<scales pt_clust_3="116.33296" pt_clust_4="53.01230" pt_clust_5="53.01230" pt_clust_6="66.35128"></scales>
<clustering>
<clus scale="   53.012">  4  5 -1 -1</clus>
<clus scale="   66.351">  2  6  1 -1</clus>
<clus scale="  116.333">  2  3  1 -1</clus>
<clus scale="  128.540">  1  3  2 -1</clus>
</clustering>
</event>
<event>
 6    0  0.1361744E+002  0.1311052E+03  0.7546771E-02  0.1225825E+00
         21   -1    0    0  504  502  0.00000000000E+00  0.00000000000E+00  0.12169265144E+02  0.12169265144E+02  0.00000000000E+00 0.  1.
         -4   -1    0    0    0  501 -0.00000000000E+00 -0.00000000000E+00 -0.13976818828E+04  0.13976818828E+04  0.00000000000E+00 0.  1.
         21    1    1    2  503  501 -0.14249759686E+02 -0.59989714045E+02 -0.24548122794E+03  0.25310640986E+03  0.00000000000E+00 0.  1.
         21    1    1    2  504  503 -0.40613390248E+02 -0.46312702382E+02 -0.27345122766E+03  0.28030320686E+03  0.00000000000E+00 0.  1.
         21    1    1    2  505  502 -0.90124117727E+01  0.31229589288E+02 -0.20672303332E+03  0.20926280921E+03  0.00000000000E+00 0.  1.
         -4    1    1    2    0  505  0.63875561706E+02  0.75072827139E+02 -0.65985712878E+03  0.66717872206E+03  0.00000000000E+00 0.  1.
<scales pt_clust_3="123.42984" pt_clust_4="30.39479" pt_clust_5="30.80866" pt_clust_6="30.80866"></scales>
<clustering>
<clus scale="   30.395">  3  4 -1 -1</clus>
<clus scale="   30.809">  5  6 -1 -1</clus>
<clus scale="  123.430">  1  3  2 -1</clus>
<clus scale="  123.430">  1  3  2 -1</clus>
</clustering>
</event>
<event>
 6    0  0.1361744E+002  0.1162451E+03  0.7546771E-02  0.1249423E+00
         21   -1    0    0  503  502  0.00000000000E+00  0.00000000000E+00  0.31822504664E+03  0.31822504664E+03  0.00000000000E+00 0. -1.
          2   -1    0    0  502    0 -0.00000000000E+00 -0.00000000000E+00 -0.97204232854E+03  0.97204232854E+03  0.00000000000E+00 0.  1.
         21    1    1    2  503  505  0.51054012102E+01  0.49244196435E+02  0.13922991973E+03  0.14777018154E+03  0.00000000000E+00 0. -1.
         21    1    1    2  504  501 -0.53781195966E+02 -0.10557942649E+03 -0.43714635678E+03  0.45291982688E+03  0.00000000000E+00 0.  1.
         21    1    1    2  505  504  0.85620360545E+02  0.27194624671E+02  0.15358189873E+03  0.17792637064E+03  0.00000000000E+00 0. -1.
          2    1    1    2  501    0 -0.36944565789E+02  0.29140605389E+02 -0.50948274358E+03  0.51165099611E+03  0.00000000000E+00 0.  1.
<scales pt_clust_3="49.74245" pt_clust_4="116.24514" pt_clust_5="14000.00000" pt_clust_6="47.05397"></scales>
<clustering>
<clus scale="   47.054">  2  6  1 -1</clus>
<clus scale="   49.742">  1  3  2 -1</clus>
<clus scale="  116.245">  2  4  1 -1</clus>
<clus scale="   49.742">  1  3  2 -1</clus>
</clustering>
</event>
<event>
 6    0  0.1361744E+002  0.8454546E+02  0.7546771E-02  0.1316626E+00
         21   -1    0    0  503  502  0.00000000000E+00  0.00000000000E+00  0.18966258818E+03  0.18966258818E+03  0.00000000000E+00 0. -1.
          2   -1    0    0  504    0 -0.00000000000E+00 -0.00000000000E+00 -0.28231439809E+04  0.28231439809E+04  0.00000000000E+00 0. -1.
         21    1    1    2  503  501 -0.11078100857E+03 -0.45670907456E+02  0.13771269972E+03  0.18254602518E+03  0.00000000000E+00 0. -1.
         21    1    1    2  504  505 -0.30709637590E+02  0.15302325773E+02 -0.33760617427E+03  0.33934521054E+03  0.00000000000E+00 0.  1.
         21    1    1    2  505  502  0.31489707924E+02  0.18440655968E+02  0.15270791480E+02  0.39558268037E+02  0.00000000000E+00 0. -1.
          2    1    1    2  501    0  0.11000093823E+03  0.11927925714E+02 -0.24488587096E+04  0.24513570653E+04  0.00000000000E+00 0. -1.
<scales pt_clust_3="84.54546" pt_clust_4="34.31098" pt_clust_5="36.40046" pt_clust_6="14000.00000"></scales>
<clustering>
<clus scale="   34.311">  2  4  1 -1</clus>
<clus scale="   36.400">  1  5  2 -1</clus>
<clus scale="   84.545">  1  3  2 -1</clus>
<clus scale="   36.400">  1  3  2 -1</clus>
</clustering>
</event>
<event>
 6    0  0.1361744E+002  0.1064896E+03  0.7546771E-02  0.1267212E+00
          2   -1    0    0  504    0 -0.00000000000E+00  0.00000000000E+00  0.27131600819E+04  0.27131600819E+04  0.00000000000E+00 0. -1.
         21   -1    0    0  503  502  0.00000000000E+00 -0.00000000000E+00 -0.27343055172E+02  0.27343055172E+02  0.00000000000E+00 0. -1.
         21    1    1    2  503  505  0.19614185791E+02 -0.33349844549E+02  0.48025227389E+02  0.61671313278E+02  0.00000000000E+00 0.  1.
         21    1    1    2  504  502  0.11337203075E+03  0.42355627188E+02  0.19796871044E+03  0.23203195216E+03  0.00000000000E+00 0. -1.
         21    1    1    2  505  501 -0.28234073628E+02 -0.28855456236E+02  0.18036924144E+03  0.18483198729E+03  0.00000000000E+00 0.  1.
          2    1    1    2  501    0 -0.10475214292E+03  0.19849673596E+02  0.22594538474E+04  0.22619678843E+04  0.00000000000E+00 0. -1.
<scales pt_clust_3="38.69016" pt_clust_4="14000.00000" pt_clust_5="41.66954" pt_clust_6="106.48963"></scales>
<clustering>
<clus scale="   38.690">  2  3  1 -1</clus>
<clus scale="   41.670">  2  5  1 -1</clus>
<clus scale="  106.490">  1  6  2 -1</clus>
<clus scale="   38.690">  2  3  1 -1</clus>
</clustering>
</event>
<event>
 6    0  0.1361744E+002  0.1354837E+03  0.7546771E-02  0.1219539E+00
          2   -1    0    0  504    0 -0.00000000000E+00  0.00000000000E+00  0.31056933549E+04  0.31056933549E+04  0.00000000000E+00 0.  1.
         21   -1    0    0  505  502  0.00000000000E+00 -0.00000000000E+00 -0.71973527956E+02  0.71973527956E+02  0.00000000000E+00 0.  1.
         21    1    1    2  503  501 -0.76122233400E+02 -0.28764090502E+02 -0.20068226664E+02  0.83813489616E+02  0.00000000000E+00 0.  1.
         21    1    1    2  504  502  0.20443984884E+03  0.76386353858E+02  0.14355901572E+04  0.14520845796E+04  0.00000000000E+00 0.  1.
         21    1    1    2  505  503 -0.53587123265E+02 -0.98642294430E+01  0.58949552848E+02  0.80274109047E+02  0.00000000000E+00 0.  1.
          2    1    1    2  501    0 -0.74730492178E+02 -0.37758033913E+02  0.15592483436E+04  0.15614947046E+04  0.00000000000E+00 0.  1.
<scales pt_clust_3="135.48368" pt_clust_4="14000.00000" pt_clust_5="54.48746" pt_clust_6="84.68578"></scales>
<clustering>
<clus scale="   54.487">  2  5  1 -1</clus>
<clus scale="   84.686">  1  6  2 -1</clus>
<clus scale="  135.484">  2  3  1 -1</clus>
<clus scale="   54.487">  2  3  1 -1</clus>
</clustering>
</event>
<event>
 6    0  0.1361744E+002  0.1530807E+03  0.7546771E-02  0.1196738E+00
          2   -1    0    0  504    0 -0.00000000000E+00  0.00000000000E+00  0.53323486456E+03  0.53323486456E+03  0.00000000000E+00 0.  1.
         21   -1    0    0  501  502  0.00000000000E+00 -0.00000000000E+00 -0.95102379390E+02  0.95102379390E+02  0.00000000000E+00 0.  1.
         21    1    1    2  503  505  0.26718760522E+02 -0.97225337972E+02  0.17548490146E+03  0.20238974566E+03  0.00000000000E+00 0.  1.
         21    1    1    2  504  503  0.85041867596E+02  0.65585603380E+02  0.13839841310E+03  0.17517908369E+03  0.00000000000E+00 0. -1.
         21    1    1    2  505  502  0.37090496677E+02 -0.26845033268E+02  0.66489543335E+02  0.80729301545E+02  0.00000000000E+00 0. -1.
          2    1    1    2  501    0 -0.14885112480E+03  0.58484767860E+02  0.57759627274E+02  0.17003911305E+03  0.00000000000E+00 0.  1.
<scales pt_clust_3="31.17072" pt_clust_4="107.39456" pt_clust_5="31.17072" pt_clust_6="145.92472"></scales>
<clustering>
<clus scale="   31.171">  3  5 -1 -1</clus>
<clus scale="  107.395">  1  4  2 -1</clus>
<clus scale="  145.925">  2  6  1 -1</clus>
<clus scale="  145.925">  2  3  1 -1</clus>
</clustering>
</event>
<event>
 6    0  0.1361744E+002  0.2010513E+03  0.7546771E-02  0.1148855E+00
         21   -1    0    0  505  502  0.00000000000E+00  0.00000000000E+00  0.19748296733E+02  0.19748296733E+02  0.00000000000E+00 0. -1.
          2   -1    0    0  503    0 -0.00000000000E+00 -0.00000000000E+00 -0.20529383077E+04  0.20529383077E+04  0.00000000000E+00 0.  1.
         21    1    1    2  503  504  0.68811923091E+02 -0.82792412879E+02 -0.46364747363E+03  0.47598176876E+03  0.00000000000E+00 0. -1.
         21    1    1    2  504  502  0.77037933802E+02 -0.46128773888E+02 -0.39483515998E+03  0.40491667116E+03  0.00000000000E+00 0. -1.
         21    1    1    2  505  501 -0.56963867766E+02  0.53881184110E+02 -0.33453793106E+03  0.34360397487E+03  0.00000000000E+00 0.  1.
          2    1    1    2  501    0 -0.88885989127E+02  0.75040002657E+02 -0.84016944626E+03  0.84818418960E+03  0.00000000000E+00 0.  1.
<scales pt_clust_3="197.45792" pt_clust_4="30.24555" pt_clust_5="41.28569" pt_clust_6="41.28569"></scales>
<clustering>
<clus scale="   30.246">  3  4 -1 -1</clus>
<clus scale="   41.286">  5  6 -1 -1</clus>
<clus scale="  197.458">  1  3  2 -1</clus>
<clus scale="  197.458">  1  3  2 -1</clus>
</clustering>
</event>
<event>
 6    0  0.1361744E+002  0.1559749E+03  0.7546771E-02  0.1193317E+00
         21   -1    0    0  505  502  0.00000000000E+00  0.00000000000E+00  0.38348378446E+03  0.38348378446E+03  0.00000000000E+00 0.  1.
          2   -1    0    0  504    0 -0.00000000000E+00 -0.00000000000E+00 -0.13042135026E+04  0.13042135026E+04  0.00000000000E+00 0. -1.
         21    1    1    2  503  501  0.37149006716E+02 -0.10593612226E+03  0.25602277008E+03  0.27955351812E+03  0.00000000000E+00 0.  1.
         21    1    1    2  504  502 -0.15452106788E+02 -0.94604786723E+02 -0.14210915300E+03  0.17141716554E+03  0.00000000000E+00 0. -1.
         21    1    1    2  505  503  0.37626197902E+02 -0.19681758149E+02  0.84505666563E+02  0.94574362560E+02  0.00000000000E+00 0. -1.
          2    1    1    2  501    0 -0.59323097830E+02  0.22022266713E+03 -0.11191490017E+04  0.11421522408E+04  0.00000000000E+00 0. -1.
<scales pt_clust_3="31.60563" pt_clust_4="95.85840" pt_clust_5="31.60563" pt_clust_6="147.26611"></scales>
<clustering>
<clus scale="   31.606">  3  5 -1 -1</clus>
<clus scale="   95.858">  2  4  1 -1</clus>
<clus scale="  147.266">  2  6  1 -1</clus>
<clus scale="  155.975">  1  3  2 -1</clus>
</clustering>
</event>
<event>
 6    0  0.1361744E+002  0.1066410E+03  0.7546771E-02  0.1266920E+00
          2   -1    0    0  505    0 -0.00000000000E+00  0.00000000000E+00  0.17145577389E+04  0.17145577389E+04  0.00000000000E+00 0.  1.
         21   -1    0    0  503  502  0.00000000000E+00 -0.00000000000E+00 -0.18114748269E+03  0.18114748269E+03  0.00000000000E+00 0. -1.
         21    1    1    2  503  501  0.73012928251E+02 -0.31546031032E+02  0.79314723007E+01  0.79930895269E+02  0.00000000000E+00 0.  1.
         21    1    1    2  504  502 -0.94788430015E+02  0.82767856379E+02 -0.11164767277E+03  0.16822772467E+03  0.00000000000E+00 0. -1.
         21    1    1    2  505  504 -0.20292393097E+02 -0.10178923620E+03  0.65035548361E+03  0.65858567012E+03  0.00000000000E+00 0.  1.
          2    1    1    2  501    0  0.42067894861E+02  0.50567410857E+02  0.98677097304E+03  0.98896093151E+03  0.00000000000E+00 0.  1.
<scales pt_clust_3="106.64097" pt_clust_4="14000.00000" pt_clust_5="58.93506" pt_clust_6="65.77819"></scales>
<clustering>
<clus scale="   65.778">  1  6  2 -1</clus>
<clus scale="   58.935">  1  5  2 -1</clus>
<clus scale="  106.641">  1  3  2 -1</clus>
<clus scale="  106.641">  2  3  1 -1</clus>
</clustering>
</event>
<event>
 6    0  0.1361744E+002  0.1125319E+03  0.7546771E-02  0.1255952E+00
         21   -1    0    0  504  502  0.00000000000E+00  0.00000000000E+00  0.96602984480E+02  0.96602984480E+02  0.00000000000E+00 0. -1.
          2   -1    0    0  505    0 -0.00000000000E+00 -0.00000000000E+00 -0.13298145556E+04  0.13298145556E+04  0.00000000000E+00 0.  1.
         21    1    1    2  503  502  0.14090819699E+03  0.12422200941E+03 -0.54565256364E+02  0.19561082486E+03  0.00000000000E+00 0. -1.
         21    1    1    2  504  501 -0.58106815310E+02 -0.44484535205E+02 -0.41511784361E+02  0.84133846333E+02  0.00000000000E+00 0.  1.
         21    1    1    2  505  503 -0.58617463323E+02 -0.19490470449E+02 -0.26410859179E+03  0.27123649036E+03  0.00000000000E+00 0.  1.
          2    1    1    2  501    0 -0.24183918361E+02 -0.60247003755E+02 -0.87302593859E+03  0.87543637851E+03  0.00000000000E+00 0.  1.
<scales pt_clust_3="112.53186" pt_clust_4="76.64274" pt_clust_5="61.77285" pt_clust_6="14000.00000"></scales>
<clustering>
<clus scale="   61.773">  2  5  1 -1</clus>
<clus scale="   76.643">  1  4  2 -1</clus>
<clus scale="  112.532">  1  3  2 -1</clus>
<clus scale="   76.643">  1  3  2 -1</clus>
</clustering>
</event>
<event>
 6    0  0.1361744E+002  0.1090626E+03  0.7546771E-02  0.1262316E+00
         21   -1    0    0  504  502  0.00000000000E+00  0.00000000000E+00  0.18302759854E+03  0.18302759854E+03  0.00000000000E+00 0.  1.
          1   -1    0    0  503    0 -0.00000000000E+00 -0.00000000000E+00 -0.56880403514E+03  0.56880403514E+03  0.00000000000E+00 0. -1.
         21    1    1    2  503  505  0.12480743191E+02  0.57556839066E+02 -0.39607736873E+02  0.70974160750E+02  0.00000000000E+00 0.  1.
         21    1    1    2  504  501 -0.39781349139E+02 -0.55789447084E+02 -0.14215387984E+03  0.15780603188E+03  0.00000000000E+00 0. -1.
         21    1    1    2  505  502  0.67346763325E+02  0.64682464541E+02  0.14116823444E+03  0.16925684082E+03  0.00000000000E+00 0.  1.
          1    1    1    2  501    0 -0.40046157378E+02 -0.66449856523E+02 -0.34518305433E+03  0.35379460022E+03  0.00000000000E+00 0. -1.
<scales pt_clust_3="58.89447" pt_clust_4="50.80900" pt_clust_5="94.71863" pt_clust_6="50.80900"></scales>
<clustering>
<clus scale="   50.809">  4  6 -1 -1</clus>
<clus scale="   58.894">  2  3  1 -1</clus>
<clus scale="   94.719">  1  5  2 -1</clus>
<clus scale="   94.719">  1  3  2 -1</clus>
</clustering>
</event>
<event>
 6    0  0.1361744E+002  0.1574295E+03  0.7546771E-02  0.1191630E+00
         21   -1    0    0  503  502  0.00000000000E+00  0.00000000000E+00  0.11726091197E+03  0.11726091197E+03  0.00000000000E+00 0. -1.
          2   -1    0    0  504    0 -0.00000000000E+00 -0.00000000000E+00 -0.15926675875E+04  0.15926675875E+04  0.00000000000E+00 0. -1.
         21    1    1    2  503  501  0.71771315690E+02 -0.25993143981E+02 -0.58106409351E+03  0.58605652122E+03  0.00000000000E+00 0. -1.
         21    1    1    2  504  505 -0.55785998435E+02  0.31625191542E+02  0.46044368778E+02  0.78945007807E+02  0.00000000000E+00 0. -1.
         21    1    1    2  505  502 -0.88154385769E+02 -0.21441549987E+01  0.12713056519E+02  0.89092171020E+02  0.00000000000E+00 0. -1.
          2    1    1    2  501    0  0.72169068514E+02 -0.34878925623E+01 -0.95310000728E+03  0.95583479939E+03  0.00000000000E+00 0. -1.
<scales pt_clust_3="45.44004" pt_clust_4="48.21064" pt_clust_5="48.21064" pt_clust_6="154.17314"></scales>
<clustering>
<clus scale="   45.440">  3  6 -1 -1</clus>
<clus scale="   48.211">  4  5 -1 -1</clus>
<clus scale="  154.173">  2  3  1 -1</clus>
<clus scale="  157.430">  1  3  2 -1</clus>
</clustering>
</event>
<event>
 6    0  0.1361744E+002  0.1411556E+03  0.7546771E-02  0.1211782E+00
         21   -1    0    0  501  502  0.00000000000E+00  0.00000000000E+00  0.31165875641E+03  0.31165875641E+03  0.00000000000E+00 0. -1.
          2   -1    0    0  504    0 -0.00000000000E+00 -0.00000000000E+00 -0.18146047770E+04  0.18146047770E+04  0.00000000000E+00 0.  1.
         21    1    1    2  503  505 -0.43347978592E+02 -0.54003663051E+01  0.72986916648E+02  0.85060573746E+02  0.00000000000E+00 0. -1.
         21    1    1    2  504  503 -0.55708597655E+02  0.53666376907E+02 -0.14759491770E+03  0.16663669342E+03  0.00000000000E+00 0. -1.
         21    1    1    2  505  502 -0.77400335304E+02  0.56891651211E+02  0.20603891385E+03  0.22733126908E+03  0.00000000000E+00 0. -1.
          2    1    1    2  501    0  0.17645691155E+03 -0.10515766181E+03 -0.16343769334E+04  0.16472349971E+04  0.00000000000E+00 0.  1.
<scales pt_clust_3="33.72929" pt_clust_4="77.35327" pt_clust_5="33.72929" pt_clust_6="131.99679"></scales>
<clustering>
<clus scale="   33.729">  3  5 -1 -1</clus>
<clus scale="   77.353">  2  4  1 -1</clus>
<clus scale="  131.997">  2  6  1 -1</clus>
<clus scale="  141.156">  1  3  2 -1</clus>
</clustering>
</event>
<event>
 6    0  0.1361744E+002  0.1599852E+03  0.7546771E-02  0.1188713E+00
         21   -1    0    0  504  502  0.00000000000E+00  0.00000000000E+00  0.17631497015E+03  0.17631497015E+03  0.00000000000E+00 0. -1.
          2   -1    0    0  503    0 -0.00000000000E+00 -0.00000000000E+00 -0.99741286913E+03  0.99741286913E+03  0.00000000000E+00 0.  1.
         21    1    1    2  503  502 -0.48066192196E+01 -0.74971818056E+02 -0.16861536424E+03  0.18459419858E+03  0.00000000000E+00 0. -1.
         21    1    1    2  504  505  0.78540936923E+02  0.88910695656E+02  0.71171983344E+02  0.13834464857E+03  0.00000000000E+00 0. -1.
         21    1    1    2  505  501  0.38528201323E+02  0.84406611021E+01  0.52820313153E+02  0.65921563533E+02  0.00000000000E+00 0. -1.
          2    1    1    2  501    0 -0.11226251903E+03 -0.22379538702E+02 -0.77647483124E+03  0.78486742860E+03  0.00000000000E+00 0.  1.
<scales pt_clust_3="75.12574" pt_clust_4="32.45470" pt_clust_5="32.45470" pt_clust_6="149.75693"></scales>
<clustering>
<clus scale="   32.455">  4  5 -1 -1</clus>
<clus scale="   75.126">  2  3  1 -1</clus>
<clus scale="  149.757">  2  6  1 -1</clus>
<clus scale="  159.985">  1  3  2 -1</clus>
</clustering>
</event>
<event>
 6    0  0.1361744E+002  0.1769697E+03  0.7546771E-02  0.1170768E+00
          2   -1    0    0  503    0 -0.00000000000E+00  0.00000000000E+00  0.88896430557E+03  0.88896430557E+03  0.00000000000E+00 0. -1.
         21   -1    0    0  505  502  0.00000000000E+00 -0.00000000000E+00 -0.23831459384E+04  0.23831459384E+04  0.00000000000E+00 0. -1.
         21    1    1    2  503  502  0.74112420129E+02 -0.17647698700E+02 -0.13969774963E+03  0.15912119072E+03  0.00000000000E+00 0. -1.
         21    1    1    2  504  501 -0.14055833604E+02 -0.48924395366E+02  0.13687483990E+03  0.14603384785E+03  0.00000000000E+00 0. -1.
         21    1    1    2  505  504 -0.17052434572E+02  0.17129728393E+03 -0.22214644595E+04  0.22281242986E+04  0.00000000000E+00 0. -1.
          2    1    1    2  501    0 -0.43004151953E+02 -0.10472518986E+03  0.73010573643E+03  0.73883090680E+03  0.00000000000E+00 0. -1.
<scales pt_clust_3="76.18459" pt_clust_4="44.81282" pt_clust_5="163.86574" pt_clust_6="44.81282"></scales>
<clustering>
<clus scale="   44.813">  4  6 -1 -1</clus>
<clus scale="   76.185">  2  3  1 -1</clus>
<clus scale="  163.866">  2  5  1 -1</clus>
<clus scale="   76.185">  2  3  1 -1</clus>
</clustering>
</event>
<event>
 6    0  0.1361744E+002  0.1053744E+03  0.7546771E-02  0.1269384E+00
         -2   -1    0    0    0  501 -0.00000000000E+00  0.00000000000E+00  0.31937145095E+02  0.31937145095E+02  0.00000000000E+00 0. -1.
         21   -1    0    0  504  502  0.00000000000E+00 -0.00000000000E+00 -0.25067798627E+04  0.25067798627E+04  0.00000000000E+00 0.  1.
         21    1    1    2  503  502  0.28835350006E+02 -0.94787801349E+02 -0.20400424731E+04  0.20424469385E+04  0.00000000000E+00 0.  1.
         21    1    1    2  504  505 -0.27731053764E+02 -0.11701897302E+02 -0.26727723224E+03  0.26896666079E+03  0.00000000000E+00 0. -1.
         21    1    1    2  505  501  0.38160211054E+02  0.34981840530E+01 -0.20220491842E+02  0.43327904284E+02  0.00000000000E+00 0. -1.
         -2    1    1    2    0  503 -0.39264507296E+02  0.10299151460E+03 -0.14730252038E+03  0.18397550414E+03  0.00000000000E+00 0. -1.
<scales pt_clust_3="14000.00000" pt_clust_4="30.09893" pt_clust_5="37.91332" pt_clust_6="105.37443"></scales>
<clustering>
<clus scale="   30.099">  2  4  1 -1</clus>
<clus scale="   37.913">  1  5  2 -1</clus>
<clus scale="  105.374">  1  6  2 -1</clus>
<clus scale="   30.099">  2  3  1 -1</clus>
</clustering>
</event>
<event>
 6    0  0.1361744E+002  0.1509405E+03  0.7546771E-02  0.1199322E+00
         21   -1    0    0  504  502  0.00000000000E+00  0.00000000000E+00  0.53952596038E+02  0.53952596038E+02  0.00000000000E+00 0. -1.
          2   -1    0    0  503    0 -0.00000000000E+00 -0.00000000000E+00 -0.13227600970E+04  0.13227600970E+04  0.00000000000E+00 0. -1.
         21    1    1    2  503  505 -0.38457197915E+02 -0.17183426939E+02 -0.12696389759E+03  0.13376867168E+03  0.00000000000E+00 0. -1.
         21    1    1    2  504  501  0.39023551806E+02  0.11480197124E+02 -0.12642752314E+03  0.13281020717E+03  0.00000000000E+00 0.  1.
         21    1    1    2  505  502 -0.11985649807E+03 -0.59081770508E+02 -0.62365375438E+02  0.14746415086E+03  0.00000000000E+00 0. -1.
          2    1    1    2  501    0  0.11929014418E+03  0.64785000322E+02 -0.95305070484E+03  0.96266966337E+03  0.00000000000E+00 0. -1.
<scales pt_clust_3="42.12156" pt_clust_4="34.28750" pt_clust_5="137.33079" pt_clust_6="34.28750"></scales>
<clustering>
<clus scale="   34.288">  4  6 -1 -1</clus>
<clus scale="   42.122">  2  3  1 -1</clus>
<clus scale="  137.331">  1  5  2 -1</clus>
<clus scale="  137.331">  1  3  2 -1</clus>
</clustering>
</event>
<event>
 6    0  0.1361744E+002  0.1201272E+03  0.7546771E-02  0.1242887E+00
          2   -1    0    0  503    0 -0.00000000000E+00  0.00000000000E+00  0.39407907140E+02  0.39407907140E+02  0.00000000000E+00 0. -1.
         21   -1    0    0  504  502  0.00000000000E+00 -0.00000000000E+00 -0.18164107271E+04  0.18164107271E+04  0.00000000000E+00 0. -1.
         21    1    1    2  503  502  0.30104564692E+02 -0.25645856364E+02 -0.29220605266E+02  0.49171521595E+02  0.00000000000E+00 0.  1.
         21    1    1    2  504  505 -0.44686431966E+02 -0.30529715745E+02 -0.40236612459E+03  0.40598945671E+03  0.00000000000E+00 0. -1.
         21    1    1    2  505  501 -0.84147431188E+02  0.17314993086E+02 -0.12640056185E+04  0.12669217824E+04  0.00000000000E+00 0. -1.
          2    1    1    2  501    0  0.98729298463E+02  0.38860579022E+02 -0.81410471595E+02  0.13373587351E+03  0.00000000000E+00 0. -1.
<scales pt_clust_3="39.54737" pt_clust_4="53.53170" pt_clust_5="14000.00000" pt_clust_6="120.12718"></scales>
<clustering>
<clus scale="   39.547">  1  3  2 -1</clus>
<clus scale="   53.532">  2  4  1 -1</clus>
<clus scale="  120.127">  1  6  2 -1</clus>
<clus scale="   53.532">  2  3  1 -1</clus>
</clustering>
</event>
<event>
 6    0  0.1361744E+002  0.1268483E+03  0.7546771E-02  0.1232209E+00
         -3   -1    0    0    0  501 -0.00000000000E+00  0.00000000000E+00  0.44839710311E+03  0.44839710311E+03  0.00000000000E+00 0. -1.
         21   -1    0    0  505  502  0.00000000000E+00 -0.00000000000E+00 -0.17611738804E+03  0.17611738804E+03  0.00000000000E+00 0. -1.
         21    1    1    2  503  501 -0.51821589821E+02 -0.56792978976E+02  0.92215455908E+02  0.12006085932E+03  0.00000000000E+00 0. -1.
         21    1    1    2  504  503  0.65129583808E+02  0.14069527853E+03 -0.69232215611E+02  0.16979435728E+03  0.00000000000E+00 0. -1.
         21    1    1    2  505  504 -0.50200811580E+02 -0.53534969294E+01 -0.18023292972E+02  0.53606161047E+02  0.00000000000E+00 0.  1.
         -3    1    1    2    0  502  0.36892817592E+02 -0.78548802621E+02  0.26731976774E+03  0.28105311350E+03  0.00000000000E+00 0. -1.
<scales pt_clust_3="80.70111" pt_clust_4="14000.00000" pt_clust_5="50.48546" pt_clust_6="126.84828"></scales>
<clustering>
<clus scale="   50.485">  2  5  1 -1</clus>
<clus scale="   80.701">  1  3  2 -1</clus>
<clus scale="  126.848">  1  6  2 -1</clus>
<clus scale="   50.485">  2  3  1 -1</clus>
</clustering>
</event>
<event>
 6    0  0.1361744E+002  0.2719895E+03  0.7546771E-02  0.1100146E+00
         21   -1    0    0  504  502  0.00000000000E+00  0.00000000000E+00  0.25083685141E+03  0.25083685141E+03  0.00000000000E+00 0.  1.
          2   -1    0    0  505    0 -0.00000000000E+00 -0.00000000000E+00 -0.72789474613E+03  0.72789474613E+03  0.00000000000E+00 0.  1.
         21    1    1    2  503  501 -0.63333739424E+02 -0.92623696513E+02  0.14721281374E+02  0.11316813964E+03  0.00000000000E+00 0.  1.
         21    1    1    2  504  503 -0.14365163549E+03 -0.90610523318E+02  0.95064440441E+02  0.19463634592E+03  0.00000000000E+00 0.  1.
         21    1    1    2  505  502  0.11314135847E+03  0.20004751485E+02 -0.11346708606E+03  0.16148045299E+03  0.00000000000E+00 0.  1.
          2    1    1    2  501    0  0.93844016446E+02  0.16322946835E+03 -0.47337653047E+03  0.50944665900E+03  0.00000000000E+00 0.  1.
<scales pt_clust_3="64.37603" pt_clust_4="64.37603" pt_clust_5="114.89629" pt_clust_6="260.20244"></scales>
<clustering>
<clus scale="   64.376">  3  4 -1 -1</clus>
<clus scale="  114.896">  2  5  1 -1</clus>
<clus scale="  260.202">  2  6  1 -1</clus>
<clus scale="  271.989">  1  3  2 -1</clus>
</clustering>
</event>
<event>
 6    0  0.1361744E+002  0.1155937E+03  0.7546771E-02  0.1250548E+00
         -1   -1    0    0    0  501 -0.00000000000E+00  0.00000000000E+00  0.36165848749E+03  0.36165848749E+03  0.00000000000E+00 0.  1.
         21   -1    0    0  503  502  0.00000000000E+00 -0.00000000000E+00 -0.44666674027E+03  0.44666674027E+03  0.00000000000E+00 0.  1.
         21    1    1    2  503  501  0.27690186634E+02 -0.22823301029E+02  0.13031585837E+02  0.38176848155E+02  0.00000000000E+00 0.  1.
         21    1    1    2  504  502 -0.75855076831E+01 -0.66738309082E+02 -0.30836082890E+03  0.31559141722E+03  0.00000000000E+00 0.  1.
         21    1    1    2  505  504 -0.23397867424E+02 -0.36423440937E+02 -0.10575997421E+03  0.11427729168E+03  0.00000000000E+00 0.  1.
         -1    1    1    2    0  505  0.32931884730E+01  0.12598505105E+03  0.31608096449E+03  0.34027967070E+03  0.00000000000E+00 0.  1.
<scales pt_clust_3="35.88383" pt_clust_4="32.99145" pt_clust_5="32.99145" pt_clust_6="108.04237"></scales>
<clustering>
<clus scale="   32.991">  4  5 -1 -1</clus>
<clus scale="   35.884">  1  3  2 -1</clus>
<clus scale="  108.042">  1  6  2 -1</clus>
<clus scale="  115.594">  2  3  1 -1</clus>
</clustering>
</event>
<event>
 6    0  0.1361744E+002  0.1126700E+03  0.7546771E-02  0.1255704E+00
         21   -1    0    0  503  502  0.00000000000E+00  0.00000000000E+00  0.20256822707E+02  0.20256822707E+02  0.00000000000E+00 0.  1.
          2   -1    0    0  504    0 -0.00000000000E+00 -0.00000000000E+00 -0.25399877071E+04  0.25399877071E+04  0.00000000000E+00 0.  1.
         21    1    1    2  503  501 -0.40241019725E+02 -0.75568034614E+02 -0.18687799248E+03  0.20555595734E+03  0.00000000000E+00 0.  1.
         21    1    1    2  504  505 -0.76714087674E+02 -0.22766789806E+02 -0.29668830177E+03  0.30729029658E+03  0.00000000000E+00 0.  1.
         21    1    1    2  505  502  0.31697333617E+02  0.15933094980E+02 -0.78477380837E+02  0.86123653993E+02  0.00000000000E+00 0.  1.
          2    1    1    2  501    0  0.85257773782E+02  0.82401729439E+02 -0.19576872093E+04  0.19612746219E+04  0.00000000000E+00 0.  1.
<scales pt_clust_3="112.66998" pt_clust_4="68.78645" pt_clust_5="35.47653" pt_clust_6="14000.00000"></scales>
<clustering>
<clus scale="   35.477">  1  5  2 -1</clus>
<clus scale="   68.786">  1  4  2 -1</clus>
<clus scale="  112.670">  1  3  2 -1</clus>
<clus scale="   35.477">  1  3  2 -1</clus>
</clustering>
</event>
<event>
 6    0  0.1361744E+002  0.1992583E+03  0.7546771E-02  0.1150366E+00
          2   -1    0    0  505    0 -0.00000000000E+00  0.00000000000E+00  0.85945592751E+03  0.85945592751E+03  0.00000000000E+00 0. -1.
         21   -1    0    0  504  502  0.00000000000E+00 -0.00000000000E+00 -0.86862901113E+03  0.86862901113E+03  0.00000000000E+00 0. -1.
         21    1    1    2  503  501  0.77396004142E+02 -0.18463214770E+02  0.29204078371E+03  0.30268606031E+03  0.00000000000E+00 0.  1.
         21    1    1    2  504  503 -0.13528135621E+03  0.67179289512E+02 -0.79075383637E+03  0.80505014255E+03  0.00000000000E+00 0. -1.
         21    1    1    2  505  502 -0.41288332391E+02  0.17683840631E+02 -0.50321833655E+02  0.67451697929E+02  0.00000000000E+00 0. -1.
          2    1    1    2  501    0  0.99173684458E+02 -0.66399915373E+02  0.53986180270E+03  0.55289703785E+03  0.00000000000E+00 0. -1.
<scales pt_clust_3="32.47506" pt_clust_4="195.24843" pt_clust_5="44.91597" pt_clust_6="32.47506"></scales>
<clustering>
<clus scale="   32.475">  3  6 -1 -1</clus>
<clus scale="   44.916">  2  5  1 -1</clus>
<clus scale="  195.248">  2  4  1 -1</clus>
<clus scale="   44.916">  2  3  1 -1</clus>
</clustering>
</event>
<event>
 6    0  0.1361744E+002  0.1361110E+03  0.7546771E-02  0.1218660E+00
         21   -1    0    0  505  502  0.00000000000E+00  0.00000000000E+00  0.17938072292E+04  0.17938072292E+04  0.00000000000E+00 0. -1.
         -1   -1    0    0    0  501 -0.00000000000E+00 -0.00000000000E+00 -0.54796568687E+03  0.54796568687E+03  0.00000000000E+00 0.  1.
         21    1    1    2  503  501  0.48884286954E+02  0.36355310914E+02 -0.81696265400E+02  0.10191006782E+03  0.00000000000E+00 0. -1.
         21    1    1    2  504  502 -0.35835679505E+02 -0.33889122526E+02  0.26029601055E+03  0.26492769138E+03  0.00000000000E+00 0. -1.
         21    1    1    2  505  503  0.12762759613E+03 -0.66512901753E+02  0.15043932159E+04  0.15112616310E+04  0.00000000000E+00 0. -1.
         -1    1    1    2    0  504 -0.14067620358E+03  0.64046713365E+02 -0.43715141868E+03  0.46367352588E+03  0.00000000000E+00 0.  1.
<scales pt_clust_3="60.59783" pt_clust_4="49.32209" pt_clust_5="136.11098" pt_clust_6="14000.00000"></scales>
<clustering>
<clus scale="   49.322">  1  4  2 -1</clus>
<clus scale="   60.598">  2  3  1 -1</clus>
<clus scale="  136.111">  1  5  2 -1</clus>
<clus scale="   49.322">  1  3  2 -1</clus>
</clustering>
</event>
<event>
 6    0  0.1361744E+002  0.1175238E+03  0.7546771E-02  0.1247239E+00
          2   -1    0    0  502    0 -0.00000000000E+00  0.00000000000E+00  0.12551123368E+04  0.12551123368E+04  0.00000000000E+00 0. -1.
         21   -1    0    0  503  502  0.00000000000E+00 -0.00000000000E+00 -0.24293277203E+03  0.24293277203E+03  0.00000000000E+00 0.  1.
         21    1    1    2  503  504  0.24146763661E+02  0.39565533046E+02 -0.74291277147E+02  0.87565355368E+02  0.00000000000E+00 0.  1.
         21    1    1    2  504  505 -0.52478097469E+02  0.79744272868E+02 -0.14193811821E+03  0.17105417028E+03  0.00000000000E+00 0.  1.
         21    1    1    2  505  501 -0.52291604653E+01 -0.81044010481E+02  0.34018920669E+03  0.34974872709E+03  0.00000000000E+00 0. -1.
          2    1    1    2  501    0  0.33560494274E+02 -0.38265795433E+02  0.88821975345E+03  0.88967685610E+03  0.00000000000E+00 0. -1.
<scales pt_clust_3="46.35189" pt_clust_4="14000.00000" pt_clust_5="117.52380" pt_clust_6="50.83594"></scales>
<clustering>
<clus scale="   46.352">  2  3  1 -1</clus>
<clus scale="   50.836">  1  6  2 -1</clus>
<clus scale="  117.524">  1  5  2 -1</clus>
<clus scale="   46.352">  2  3  1 -1</clus>
</clustering>
</event>
<event>
 6    0  0.1361744E+002  0.1315711E+03  0.7546771E-02  0.1225143E+00
         21   -1    0    0  504  502  0.00000000000E+00  0.00000000000E+00  0.14912341561E+03  0.14912341561E+03  0.00000000000E+00 0. -1.
          2   -1    0    0  502    0 -0.00000000000E+00 -0.00000000000E+00 -0.28158950488E+04  0.28158950488E+04  0.00000000000E+00 0. -1.
         21    1    1    2  503  505 -0.47808592898E+02  0.10798940419E+03 -0.65270340880E+01  0.11827922534E+03  0.00000000000E+00 0. -1.
         21    1    1    2  504  503  0.16562161840E+02 -0.72904316797E+02  0.67310754600E+02  0.10059861976E+03  0.00000000000E+00 0. -1.
         21    1    1    2  505  501 -0.84054261439E+02 -0.10193925164E+03 -0.59815922301E+03  0.61257749385E+03  0.00000000000E+00 0.  1.
          2    1    1    2  501    0  0.11530069250E+03  0.66854164251E+02 -0.21293961307E+04  0.21335631255E+04  0.00000000000E+00 0. -1.
<scales pt_clust_3="56.55089" pt_clust_4="74.76192" pt_clust_5="131.57112" pt_clust_6="14000.00000"></scales>
<clustering>
<clus scale="   74.762">  1  4  2 -1</clus>
<clus scale="   56.551">  1  3  2 -1</clus>
<clus scale="  131.571">  1  5  2 -1</clus>
<clus scale="   74.762">  1  3  2 -1</clus>
</clustering>
</event>
<event>
 6    0  0.1361744E+002  0.9678424E+02  0.7546771E-02  0.1287207E+00
          1   -1    0    0  503    0 -0.00000000000E+00  0.00000000000E+00  0.25053962559E+04  0.25053962559E+04  0.00000000000E+00 0. -1.
         21   -1    0    0  504  502  0.00000000000E+00 -0.00000000000E+00 -0.35782244324E+02  0.35782244324E+02  0.00000000000E+00 0. -1.
         21    1    1    2  503  505  0.29636022856E+02  0.28645177902E+02  0.30307304947E+03  0.30586289965E+03  0.00000000000E+00 0. -1.
         21    1    1    2  504  501 -0.14319138852E+02 -0.68406147172E+02  0.18500355775E+02  0.72295932611E+02  0.00000000000E+00 0. -1.
         21    1    1    2  505  502  0.61929097852E+02  0.51892763287E+02  0.23726211298E+03  0.25064194042E+03  0.00000000000E+00 0. -1.
          1    1    1    2  501    0 -0.77245981856E+02 -0.12131794017E+02  0.19107784933E+04  0.19123777275E+04  0.00000000000E+00 0. -1.
<scales pt_clust_3="38.23011" pt_clust_4="69.88876" pt_clust_5="38.23011" pt_clust_6="80.63605"></scales>
<clustering>
<clus scale="   38.230">  3  5 -1 -1</clus>
<clus scale="   69.889">  2  4  1 -1</clus>
<clus scale="   80.636">  1  6  2 -1</clus>
<clus scale="   69.889">  2  3  1 -1</clus>
</clustering>
</event>
<event>
 6    0  0.1361744E+002  0.3419547E+03  0.7546771E-02  0.1065966E+00
         21   -1    0    0  504  502  0.00000000000E+00  0.00000000000E+00  0.10659186573E+04  0.10659186573E+04  0.00000000000E+00 0. -1.
         -2   -1    0    0    0  501 -0.00000000000E+00 -0.00000000000E+00 -0.11369678003E+04  0.11369678003E+04  0.00000000000E+00 0.  1.
         21    1    1    2  503  502  0.16896816899E+03  0.27522422749E+03  0.83392200901E+03  0.89427318792E+03  0.00000000000E+00 0. -1.
         21    1    1    2  504  501  0.10117814759E+03 -0.79241503865E+02  0.15103032831E+03  0.19830883378E+03  0.00000000000E+00 0.  1.
         21    1    1    2  505  503 -0.14258652766E+03 -0.12318934058E+03 -0.47457587651E+03  0.51061609264E+03  0.00000000000E+00 0. -1.
         -2    1    1    2    0  505 -0.12755978893E+03 -0.72793383038E+02 -0.58142560374E+03  0.59968834327E+03  0.00000000000E+00 0.  1.
<scales pt_clust_3="332.69272" pt_clust_4="128.51550" pt_clust_5="69.78742" pt_clust_6="69.78742"></scales>
<clustering>
<clus scale="   69.787">  5  6 -1 -1</clus>
<clus scale="  128.515">  1  4  2 -1</clus>
<clus scale="  332.693">  1  3  2 -1</clus>
<clus scale="  128.515">  1  3  2 -1</clus>
</clustering>
</event>
<event>
 6    0  0.1361744E+002  0.2064283E+03  0.7546771E-02  0.1144426E+00
         21   -1    0    0  501  502  0.00000000000E+00  0.00000000000E+00  0.20498374772E+03  0.20498374772E+03  0.00000000000E+00 0. -1.
          1   -1    0    0  505    0 -0.00000000000E+00 -0.00000000000E+00 -0.71948619585E+03  0.71948619585E+03  0.00000000000E+00 0. -1.
         21    1    1    2  503  502 -0.29508219811E+02 -0.28724348119E+02 -0.46904116262E+01  0.41446630411E+02  0.00000000000E+00 0. -1.
         21    1    1    2  504  503  0.52703890291E+02 -0.61221380915E+02  0.26917487006E+02  0.85148744205E+02  0.00000000000E+00 0. -1.
         21    1    1    2  505  504  0.13124189955E+03 -0.25877751928E+02  0.77105539997E+02  0.15439999528E+03  0.00000000000E+00 0. -1.
          1    1    1    2  501    0 -0.15443757003E+03  0.11582348096E+03 -0.61383506351E+03  0.64347457368E+03  0.00000000000E+00 0. -1.
<scales pt_clust_3="41.18037" pt_clust_4="59.16669" pt_clust_5="59.16669" pt_clust_6="193.57722"></scales>
<clustering>
<clus scale="   41.180">  1  3  2 -1</clus>
<clus scale="   59.167">  4  5 -1 -1</clus>
<clus scale="  193.577">  2  6  1 -1</clus>
<clus scale="   41.180">  1  3  2 -1</clus>
</clustering>
</event>
<event>
 6    0  0.1361744E+002  0.1442117E+03  0.7546771E-02  0.1207772E+00
         21   -1    0    0  503  502  0.00000000000E+00  0.00000000000E+00  0.68263732448E+03  0.68263732448E+03  0.00000000000E+00 0.  1.
          2   -1    0    0  502    0 -0.00000000000E+00 -0.00000000000E+00 -0.29495947002E+04  0.29495947002E+04  0.00000000000E+00 0.  1.
         21    1    1    2  503  505  0.57456764815E+02 -0.34934207202E+01  0.35116608220E+03  0.35585263958E+03  0.00000000000E+00 0.  1.
         21    1    1    2  504  501 -0.59207343439E+02 -0.19232838054E+02 -0.82624043759E+03  0.82858232680E+03  0.00000000000E+00 0.  1.
         21    1    1    2  505  504  0.68899551026E+02  0.45850416052E+02  0.32212994468E+03  0.33259150627E+03  0.00000000000E+00 0.  1.
          2    1    1    2  501    0 -0.67148972402E+02 -0.23124157278E+02 -0.21140129651E+04  0.21152055521E+04  0.00000000000E+00 0.  1.
<scales pt_clust_3="44.66116" pt_clust_4="51.59554" pt_clust_5="143.62382" pt_clust_6="51.59554"></scales>
<clustering>
<clus scale="   44.661">  3  5 -1 -1</clus>
<clus scale="   51.596">  4  6 -1 -1</clus>
<clus scale="  143.624">  1  3  2 -1</clus>
<clus scale="  143.624">  1  3  2 -1</clus>
</clustering>
</event>
<event>
 6    0  0.1361744E+002  0.1438459E+03  0.7546771E-02  0.1208246E+00
         21   -1    0    0  505  502  0.00000000000E+00  0.00000000000E+00  0.30718877127E+02  0.30718877127E+02  0.00000000000E+00 0.  1.
          1   -1    0    0  504    0 -0.00000000000E+00 -0.00000000000E+00 -0.34952469153E+04  0.34952469153E+04  0.00000000000E+00 0. -1.
         21    1    1    2  503  501  0.71193769652E+02  0.15017467229E+02 -0.84092266121E+02  0.11120065818E+03  0.00000000000E+00 0.  1.
         21    1    1    2  504  502 -0.49432319138E+02 -0.93218608381E+01 -0.34501514993E+03  0.34866302492E+03  0.00000000000E+00 0.  1.
         21    1    1    2  505  503  0.68271753301E+02 -0.28057123201E+02 -0.78593602483E+02  0.10782016886E+03  0.00000000000E+00 0.  1.
          1    1    1    2  501    0 -0.90033203815E+02  0.22361516810E+02 -0.29568270196E+04  0.29582819404E+04  0.00000000000E+00 0. -1.
<scales pt_clust_3="43.08061" pt_clust_4="50.30359" pt_clust_5="43.08061" pt_clust_6="137.14544"></scales>
<clustering>
<clus scale="   43.081">  3  5 -1 -1</clus>
<clus scale="   50.304">  2  4  1 -1</clus>
<clus scale="  137.145">  2  6  1 -1</clus>
<clus scale="  143.846">  1  3  2 -1</clus>
</clustering>
</event>
<event>
 6    0  0.1361744E+002  0.2959312E+03  0.7546771E-02  0.1087292E+00
         -3   -1    0    0    0  501 -0.00000000000E+00  0.00000000000E+00  0.22693432818E+03  0.22693432818E+03  0.00000000000E+00 0.  1.
         21   -1    0    0  504  502  0.00000000000E+00 -0.00000000000E+00 -0.40165286280E+03  0.40165286280E+03  0.00000000000E+00 0.  1.
         21    1    1    2  503  501  0.75898296842E+02 -0.17968468778E+03 -0.50773813400E+02  0.20155673795E+03  0.00000000000E+00 0.  1.
         21    1    1    2  504  503  0.67146754125E+02 -0.48309990688E+02 -0.10051092308E+03  0.13017291365E+03  0.00000000000E+00 0.  1.
         21    1    1    2  505  502 -0.86198754511E+02  0.57108000292E+02 -0.49931883281E+02  0.11482483157E+03  0.00000000000E+00 0. -1.
         -3    1    1    2    0  505 -0.56846296456E+02  0.17088667817E+03  0.26498085142E+02  0.18203270781E+03  0.00000000000E+00 0.  1.
<scales pt_clust_3="295.22447" pt_clust_4="78.99320" pt_clust_5="93.20862" pt_clust_6="93.20862"></scales>
<clustering>
<clus scale="   78.993">  3  4 -1 -1</clus>
<clus scale="   93.209">  5  6 -1 -1</clus>
<clus scale="  295.224">  2  3  1 -1</clus>
<clus scale="  295.224">  2  3  1 -1</clus>
</clustering>
</event>
<event>
 6    0  0.1361744E+002  0.1593221E+03  0.7546771E-02  0.1189464E+00
          2   -1    0    0  504    0 -0.00000000000E+00  0.00000000000E+00  0.19709908823E+04  0.19709908823E+04  0.00000000000E+00 0. -1.
         21   -1    0    0  503  502  0.00000000000E+00 -0.00000000000E+00 -0.27569889318E+02  0.27569889318E+02  0.00000000000E+00 0.  1.
         21    1    1    2  503  501 -0.44526904848E+02  0.23273534617E+02  0.13932973220E+03  0.14811170428E+03  0.00000000000E+00 0.  1.
         21    1    1    2  504  505  0.40894871669E+02 -0.59205217173E+02  0.20433327973E+03  0.21663272485E+03  0.00000000000E+00 0.  1.
         21    1    1    2  505  502 -0.15857645710E+02 -0.10090715631E+03  0.17699328875E+03  0.20435347657E+03  0.00000000000E+00 0.  1.
          2    1    1    2  501    0  0.19489678890E+02  0.13683883887E+03  0.14227646922E+04  0.14294628659E+04  0.00000000000E+00 0. -1.
<scales pt_clust_3="50.24244" pt_clust_4="58.91528" pt_clust_5="58.91528" pt_clust_6="140.80820"></scales>
<clustering>
<clus scale="   50.242">  2  3  1 -1</clus>
<clus scale="   58.915">  4  5 -1 -1</clus>
<clus scale="  140.808">  1  6  2 -1</clus>
<clus scale="   50.242">  2  3  1 -1</clus>
</clustering>
</event>
<event>
 6    0  0.1361744E+002  0.1569261E+03  0.7546771E-02  0.1192211E+00
         -3   -1    0    0    0  501 -0.00000000000E+00  0.00000000000E+00  0.13308854816E+04  0.13308854816E+04  0.00000000000E+00 0.  1.
         21   -1    0    0  504  502  0.00000000000E+00 -0.00000000000E+00 -0.45599202772E+03  0.45599202772E+03  0.00000000000E+00 0.  1.
         21    1    1    2  503  502  0.13390272683E+02  0.15518317312E+03 -0.34916809430E+03  0.38233424474E+03  0.00000000000E+00 0.  1.
         21    1    1    2  504  505  0.31807104446E+02 -0.40016823864E+01 -0.74611237387E+02  0.81206786044E+02  0.00000000000E+00 0.  1.
         21    1    1    2  505  501 -0.41105721226E+01 -0.43729572284E+02  0.39967000545E+02  0.59384622823E+02  0.00000000000E+00 0.  1.
         -3    1    1    2    0  503 -0.41086805007E+02 -0.10745191845E+03  0.12587057851E+04  0.12639518558E+04  0.00000000000E+00 0.  1.
<scales pt_clust_3="14000.00000" pt_clust_4="32.05784" pt_clust_5="43.95591" pt_clust_6="156.92612"></scales>
<clustering>
<clus scale="   32.058">  2  4  1 -1</clus>
<clus scale="   43.956">  1  5  2 -1</clus>
<clus scale="  156.926">  1  6  2 -1</clus>
<clus scale="   32.058">  2  3  1 -1</clus>
</clustering>
</event>
<event>
 6    0  0.1361744E+002  0.8579485E+02  0.7546771E-02  0.1313367E+00
          2   -1    0    0  505    0 -0.00000000000E+00  0.00000000000E+00  0.10273021676E+03  0.10273021676E+03  0.00000000000E+00 0.  1.
         21   -1    0    0  503  502  0.00000000000E+00 -0.00000000000E+00 -0.10750971395E+04  0.10750971395E+04  0.00000000000E+00 0.  1.
         21    1    1    2  503  501  0.15816870690E+02 -0.28273489653E+02 -0.55302186280E+02  0.64092865616E+02  0.00000000000E+00 0.  1.
         21    1    1    2  504  502  0.22903766621E+02  0.46129033767E+02 -0.58743860747E+03  0.58969194316E+03  0.00000000000E+00 0.  1.
         21    1    1    2  505  504 -0.56112684081E+02  0.66600310481E+02 -0.40208765102E+03  0.41141063887E+03  0.00000000000E+00 0.  1.
          2    1    1    2  501    0  0.17392046770E+02 -0.84455854595E+02  0.72461522018E+02  0.11263190862E+03  0.00000000000E+00 0.  1.
<scales pt_clust_3="32.39697" pt_clust_4="43.73908" pt_clust_5="14000.00000" pt_clust_6="85.79485"></scales>
<clustering>
<clus scale="   32.397">  2  3  1 -1</clus>
<clus scale="   43.739">  2  4  1 -1</clus>
<clus scale="   85.795">  1  6  2 -1</clus>
<clus scale="   32.397">  2  3  1 -1</clus>
</clustering>
</event>
<event>
 6    0  0.1361744E+002  0.2002691E+03  0.7546771E-02  0.1149512E+00
         21   -1    0    0  504  502  0.00000000000E+00  0.00000000000E+00  0.54423824069E+02  0.54423824069E+02  0.00000000000E+00 0. -1.
          2   -1    0    0  505    0 -0.00000000000E+00 -0.00000000000E+00 -0.23828536229E+04  0.23828536229E+04  0.00000000000E+00 0. -1.
         21    1    1    2  503  501  0.26642034190E+02  0.82487316184E+02 -0.10628865287E+03  0.13715404859E+03  0.00000000000E+00 0. -1.
         21    1    1    2  504  503  0.16025435522E+02  0.10778948938E+03 -0.60231537855E+02  0.12451195427E+03  0.00000000000E+00 0. -1.
         21    1    1    2  505  502  0.32493668276E+02 -0.19969247654E+02 -0.81578834007E+03  0.81667938944E+03  0.00000000000E+00 0. -1.
          2    1    1    2  501    0 -0.75161137988E+02 -0.17030755791E+03 -0.13461212681E+04  0.13589320547E+04  0.00000000000E+00 0. -1.
<scales pt_clust_3="46.47553" pt_clust_4="46.47553" pt_clust_5="38.13934" pt_clust_6="193.37361"></scales>
<clustering>
<clus scale="   38.139">  2  5  1 -1</clus>
<clus scale="   46.476">  3  4 -1 -1</clus>
<clus scale="  193.374">  2  6  1 -1</clus>
<clus scale="  200.269">  1  3  2 -1</clus>
</clustering>
</event>
<event>
 6    0  0.1361744E+002  0.1890138E+03  0.7546771E-02  0.1159354E+00
         21   -1    0    0  501  502  0.00000000000E+00  0.00000000000E+00  0.63761543290E+03  0.63761543290E+03  0.00000000000E+00 0. -1.
          2   -1    0    0  504    0 -0.00000000000E+00 -0.00000000000E+00 -0.30225736361E+03  0.30225736361E+03  0.00000000000E+00 0.  1.
         21    1    1    2  503  505  0.35147751131E+02 -0.47121216856E+02  0.28635926769E+03  0.29233098309E+03  0.00000000000E+00 0. -1.
         21    1    1    2  504  503 -0.58173436983E+02  0.19000776404E+02 -0.27271588774E+02  0.66999386778E+02  0.00000000000E+00 0. -1.
         21    1    1    2  505  502  0.53364022246E+02 -0.11126674430E+03  0.29479346585E+03  0.31957971582E+03  0.00000000000E+00 0. -1.
          2    1    1    2  501    0 -0.30338336395E+02  0.13938718475E+03 -0.21852307546E+03  0.26096271082E+03  0.00000000000E+00 0.  1.
<scales pt_clust_3="42.40735" pt_clust_4="61.19786" pt_clust_5="42.40735" pt_clust_6="178.74866"></scales>
<clustering>
<clus scale="   42.407">  3  5 -1 -1</clus>
<clus scale="   61.198">  2  4  1 -1</clus>
<clus scale="  178.749">  2  6  1 -1</clus>
<clus scale="  189.014">  1  3  2 -1</clus>
</clustering>
</event>
<event>
 6    0  0.1361744E+002  0.1801009E+03  0.7546771E-02  0.1167705E+00
         21   -1    0    0  505  502  0.00000000000E+00  0.00000000000E+00  0.48831936374E+03  0.48831936374E+03  0.00000000000E+00 0. -1.
          3   -1    0    0  503    0 -0.00000000000E+00 -0.00000000000E+00 -0.16947081650E+03  0.16947081650E+03  0.00000000000E+00 0.  1.
         21    1    1    2  503  502  0.39321096544E+02 -0.23825760170E+02  0.51105795848E+02  0.68743129477E+02  0.00000000000E+00 0.  1.
         21    1    1    2  504  501 -0.39315139807E+01 -0.46517648147E+02  0.99893401981E+01  0.47740290205E+02  0.00000000000E+00 0.  1.
         21    1    1    2  505  504 -0.47709116271E+02  0.18552329401E+03  0.34613288802E+03  0.39560463668E+03  0.00000000000E+00 0. -1.
          3    1    1    2  501    0  0.12319533707E+02 -0.11517988569E+03 -0.88379476821E+02  0.14570212388E+03  0.00000000000E+00 0.  1.
<scales pt_clust_3="45.97625" pt_clust_4="45.15120" pt_clust_5="165.46243" pt_clust_6="45.15120"></scales>
<clustering>
<clus scale="   45.151">  4  6 -1 -1</clus>
<clus scale="   45.976">  1  3  2 -1</clus>
<clus scale="  165.462">  1  5  2 -1</clus>
<clus scale="   45.976">  1  3  2 -1</clus>
</clustering>
</event>
<event>
 6    0  0.1361744E+002  0.1646280E+03  0.7546771E-02  0.1183569E+00
          4   -1    0    0  503    0 -0.00000000000E+00  0.00000000000E+00  0.28715893298E+03  0.28715893298E+03  0.00000000000E+00 0.  1.
         21   -1    0    0  504  502  0.00000000000E+00 -0.00000000000E+00 -0.49675986251E+03  0.49675986251E+03  0.00000000000E+00 0.  1.
         21    1    1    2  503  505  0.20452425174E+02  0.73812862757E+02  0.45567784442E+02  0.89123865394E+02  0.00000000000E+00 0. -1.
         21    1    1    2  504  501 -0.11308019621E+02 -0.29933522217E+02 -0.24321644315E+02  0.40192405281E+02  0.00000000000E+00 0.  1.
         21    1    1    2  505  502 -0.12863046442E+03 -0.72396945810E+02 -0.41091647574E+03  0.43662279392E+03  0.00000000000E+00 0.  1.
          4    1    1    2  501    0  0.11948605886E+03  0.28517605270E+02  0.18006940608E+03  0.21797973089E+03  0.00000000000E+00 0.  1.
<scales pt_clust_3="75.10009" pt_clust_4="31.99824" pt_clust_5="14000.00000" pt_clust_6="164.62804"></scales>
<clustering>
<clus scale="   31.998">  2  4  1 -1</clus>
<clus scale="   75.100">  1  3  2 -1</clus>
<clus scale="  164.628">  1  6  2 -1</clus>
<clus scale="   31.998">  2  3  1 -1</clus>
</clustering>
</event>
<event>
 6    0  0.1361744E+002  0.1920198E+03  0.7546771E-02  0.1156652E+00
          1   -1    0    0  505    0 -0.00000000000E+00  0.00000000000E+00  0.58929187788E+03  0.58929187788E+03  0.00000000000E+00 0.  1.
         21   -1    0    0  503  502  0.00000000000E+00 -0.00000000000E+00 -0.13871259566E+03  0.13871259566E+03  0.00000000000E+00 0.  1.
         21    1    1    2  503  501  0.51053377181E+02 -0.54282159118E+02  0.16670136758E+03  0.18259886657E+03  0.00000000000E+00 0.  1.
         21    1    1    2  504  502 -0.23025280634E+02  0.51109303232E+02  0.15354457136E+02  0.58121285078E+02  0.00000000000E+00 0.  1.
         21    1    1    2  505  504 -0.45610549673E+02  0.11677390046E+03 -0.60178786519E+02  0.13906096655E+03  0.00000000000E+00 0.  1.
          1    1    1    2  501    0  0.17582453126E+02 -0.11360104457E+03  0.32870224402E+03  0.34822335534E+03  0.00000000000E+00 0.  1.
<scales pt_clust_3="47.30382" pt_clust_4="42.16438" pt_clust_5="42.16438" pt_clust_6="190.65018"></scales>
<clustering>
<clus scale="   42.164">  4  5 -1 -1</clus>
<clus scale="   47.304">  3  6 -1 -1</clus>
<clus scale="  190.650">  1  3  2 -1</clus>
<clus scale="  192.020">  2  3  1 -1</clus>
</clustering>
</event>
<event>
 6    0  0.1361744E+002  0.1369207E+03  0.7546771E-02  0.1217533E+00
          1   -1    0    0  503    0 -0.00000000000E+00  0.00000000000E+00  0.20972399622E+04  0.20972399622E+04  0.00000000000E+00 0. -1.
         21   -1    0    0  505  502  0.00000000000E+00 -0.00000000000E+00 -0.99051951933E+02  0.99051951933E+02  0.00000000000E+00 0.  1.
         21    1    1    2  503  502 -0.73889020848E+02  0.94622972059E+01 -0.58196518837E+02  0.94530192399E+02  0.00000000000E+00 0.  1.
         21    1    1    2  504  501  0.59980978379E+02 -0.49394305374E+02  0.87186489806E+03  0.87532046454E+03  0.00000000000E+00 0. -1.
         21    1    1    2  505  504 -0.39551927951E+02  0.37748978226E+02  0.16378387178E+02  0.57075318031E+02  0.00000000000E+00 0.  1.
          1    1    1    2  501    0  0.53459970420E+02  0.21830299424E+01  0.11681412439E+04  0.11693659392E+04  0.00000000000E+00 0. -1.
<scales pt_clust_3="121.35732" pt_clust_4="52.61097" pt_clust_5="54.67486" pt_clust_6="52.61097"></scales>
<clustering>
<clus scale="   52.611">  4  6 -1 -1</clus>
<clus scale="   54.675">  2  5  1 -1</clus>
<clus scale="  121.357">  2  3  1 -1</clus>
<clus scale="   54.675">  2  3  1 -1</clus>
</clustering>
</event>
<event>
 6    0  0.1361744E+002  0.1839775E+03  0.7546771E-02  0.1164008E+00
         -4   -1    0    0    0  501 -0.00000000000E+00  0.00000000000E+00  0.40124868904E+03  0.40124868904E+03  0.00000000000E+00 0.  1.
         21   -1    0    0  503  502  0.00000000000E+00 -0.00000000000E+00 -0.37711484415E+03  0.37711484415E+03  0.00000000000E+00 0.  1.
         21    1    1    2  503  501  0.52598810777E+02 -0.31264594002E+02  0.43047431995E+02  0.74814377860E+02  0.00000000000E+00 0.  1.
         21    1    1    2  504  505 -0.13620351893E+02  0.32810256650E+02 -0.23215938748E+02  0.42438269747E+02  0.00000000000E+00 0.  1.
         21    1    1    2  505  502 -0.12284093814E+02  0.13911490398E+03 -0.29662737615E+03  0.32785920111E+03  0.00000000000E+00 0.  1.
         -4    1    1    2    0  504 -0.26694365070E+02 -0.14066056662E+03  0.30092972780E+03  0.33325168447E+03  0.00000000000E+00 0.  1.
<scales pt_clust_3="61.18913" pt_clust_4="34.17423" pt_clust_5="34.17423" pt_clust_6="171.04551"></scales>
<clustering>
<clus scale="   34.174">  4  5 -1 -1</clus>
<clus scale="   61.189">  1  3  2 -1</clus>
<clus scale="  171.046">  1  6  2 -1</clus>
<clus scale="  183.978">  2  3  1 -1</clus>
</clustering>
</event>
<event>
 6    0  0.1361744E+002  0.1339789E+03  0.7546771E-02  0.1221668E+00
          2   -1    0    0  503    0 -0.00000000000E+00  0.00000000000E+00  0.27532786392E+04  0.27532786392E+04  0.00000000000E+00 0. -1.
         21   -1    0    0  504  502  0.00000000000E+00 -0.00000000000E+00 -0.15035974807E+04  0.15035974807E+04  0.00000000000E+00 0. -1.
         21    1    1    2  503  502 -0.52137198455E+02  0.11150348911E+03 -0.85253461060E+03  0.86137481843E+03  0.00000000000E+00 0. -1.
         21    1    1    2  504  505  0.14640564985E+03 -0.10542619798E+03 -0.63227681611E+03  0.65751294263E+03  0.00000000000E+00 0. -1.
         21    1    1    2  505  501 -0.57087765157E+02 -0.71044776983E+01  0.51816463345E+03  0.52134832300E+03  0.00000000000E+00 0. -1.
          2    1    1    2  501    0 -0.37180686241E+02  0.10271865712E+01  0.22163279518E+04  0.22166400359E+04  0.00000000000E+00 0. -1.
<scales pt_clust_3="133.97895" pt_clust_4="14000.00000" pt_clust_5="93.28861" pt_clust_6="37.19487"></scales>
<clustering>
<clus scale="   37.195">  1  6  2 -1</clus>
<clus scale="   93.289">  1  5  2 -1</clus>
<clus scale="  133.979">  2  3  1 -1</clus>
<clus scale="  133.979">  2  3  1 -1</clus>
</clustering>
</event>
<event>
 6    0  0.1361744E+002  0.1168442E+03  0.7546771E-02  0.1248396E+00
         21   -1    0    0  503  502  0.00000000000E+00  0.00000000000E+00  0.14209851487E+03  0.14209851487E+03  0.00000000000E+00 0.  1.
          2   -1    0    0  505    0 -0.00000000000E+00 -0.00000000000E+00 -0.16991611286E+04  0.16991611286E+04  0.00000000000E+00 0. -1.
         21    1    1    2  503  501 -0.10904297973E+03 -0.40338449417E+02  0.94454430616E+02  0.14979720089E+03  0.00000000000E+00 0.  1.
         21    1    1    2  504  502 -0.91421091623E+01  0.37320099221E+02 -0.47450316256E+01  0.38715414126E+02  0.00000000000E+00 0.  1.
         21    1    1    2  505  504  0.30795205046E+02 -0.31828298996E+02 -0.40439044554E+03  0.40680833044E+03  0.00000000000E+00 0. -1.
          2    1    1    2  501    0  0.87389883848E+02  0.34846649192E+02 -0.12423815672E+04  0.12459386980E+04  0.00000000000E+00 0. -1.
<scales pt_clust_3="14000.00000" pt_clust_4="38.42353" pt_clust_5="43.96734" pt_clust_6="116.84423"></scales>
<clustering>
<clus scale="   38.424">  1  4  2 -1</clus>
<clus scale="   43.967">  2  5  1 -1</clus>
<clus scale="  116.844">  2  6  1 -1</clus>
<clus scale="   38.424">  1  3  2 -1</clus>
</clustering>
</event>
<event>
 6    0  0.1361744E+002  0.1111662E+03  0.7546771E-02  0.1258425E+00
         21   -1    0    0  503  502  0.00000000000E+00  0.00000000000E+00  0.32310316398E+03  0.32310316398E+03  0.00000000000E+00 0.  1.
          4   -1    0    0  505    0 -0.00000000000E+00 -0.00000000000E+00 -0.55116883729E+03  0.55116883729E+03  0.00000000000E+00 0.  1.
         21    1    1    2  503  501 -0.18206981402E+02  0.28962910776E+02 -0.91865858743E+01  0.35422277347E+02  0.00000000000E+00 0. -1.
         21    1    1    2  504  502 -0.66190581233E+02 -0.10583818699E+03  0.28914814406E+03  0.31494374749E+03  0.00000000000E+00 0.  1.
         21    1    1    2  505  504  0.31517053024E+02  0.29754684813E+02 -0.89677773223E+02  0.99603056730E+02  0.00000000000E+00 0.  1.
          4    1    1    2  501    0  0.52880509610E+02  0.47120591403E+02 -0.41834945828E+03  0.42430291971E+03  0.00000000000E+00 0.  1.
<scales pt_clust_3="34.21030" pt_clust_4="14000.00000" pt_clust_5="43.45326" pt_clust_6="111.16619"></scales>
<clustering>
<clus scale="   34.210">  1  3  2 -1</clus>
<clus scale="   43.453">  2  5  1 -1</clus>
<clus scale="  111.166">  2  6  1 -1</clus>
<clus scale="   34.210">  1  3  2 -1</clus>
</clustering>
</event>
<event>
 6    0  0.1361744E+002  0.1535141E+03  0.7546771E-02  0.1196220E+00
         -1   -1    0    0    0  501 -0.00000000000E+00  0.00000000000E+00  0.36436483966E+03  0.36436483966E+03  0.00000000000E+00 0.  1.
         21   -1    0    0  503  502  0.00000000000E+00 -0.00000000000E+00 -0.23018102087E+03  0.23018102087E+03  0.00000000000E+00 0.  1.
         21    1    1    2  503  504 -0.43466430569E+02 -0.45988724867E+02 -0.24728231157E+02  0.67939523235E+02  0.00000000000E+00 0.  1.
         21    1    1    2  504  501 -0.98000495439E+02  0.93108193765E+01 -0.14996315238E+03  0.17938711084E+03  0.00000000000E+00 0.  1.
         21    1    1    2  505  502  0.93137183198E+02  0.52447317114E+01  0.13547207549E+03  0.16448320687E+03  0.00000000000E+00 0.  1.
         -1    1    1    2    0  505  0.48329742809E+02  0.31433173779E+02  0.17340312684E+03  0.18273601958E+03  0.00000000000E+00 0.  1.
<scales pt_clust_3="63.27949" pt_clust_4="140.59668" pt_clust_5="48.45587" pt_clust_6="48.45587"></scales>
<clustering>
<clus scale="   48.456">  5  6 -1 -1</clus>
<clus scale="   63.279">  2  3  1 -1</clus>
<clus scale="  140.597">  2  4  1 -1</clus>
<clus scale="   63.279">  2  3  1 -1</clus>
</clustering>
</event>
<event>
 6    0  0.1361744E+002  0.1727459E+03  0.7546771E-02  0.1175014E+00
         21   -1    0    0  504  502  0.00000000000E+00  0.00000000000E+00  0.42393474992E+03  0.42393474992E+03  0.00000000000E+00 0. -1.
         -3   -1    0    0    0  501 -0.00000000000E+00 -0.00000000000E+00 -0.13050596823E+03  0.13050596823E+03  0.00000000000E+00 0. -1.
         21    1    1    2  503  501 -0.16423709187E+03 -0.57804011558E+02  0.23314251842E+03  0.29098206130E+03  0.00000000000E+00 0. -1.
         21    1    1    2  504  503  0.23748523983E+01  0.37689924175E+02  0.82720373604E+02  0.90933110127E+02  0.00000000000E+00 0. -1.
         21    1    1    2  505  502  0.48639140527E+02  0.36348913555E+01  0.16773167009E+02  0.51578266333E+02  0.00000000000E+00 0. -1.
         -3    1    1    2    0  505  0.11322309895E+03  0.16479196028E+02 -0.39207277342E+02  0.12094728039E+03  0.00000000000E+00 0. -1.
<scales pt_clust_3="164.87364" pt_clust_4="37.76467" pt_clust_5="33.66018" pt_clust_6="33.66018"></scales>
<clustering>
<clus scale="   33.660">  5  6 -1 -1</clus>
<clus scale="   37.765">  1  4  2 -1</clus>
<clus scale="  164.874">  1  3  2 -1</clus>
<clus scale="   37.765">  1  3  2 -1</clus>
</clustering>
</event>
<event>
 6    0  0.1361744E+002  0.1445693E+03  0.7546771E-02  0.1207310E+00
         21   -1    0    0  505  502  0.00000000000E+00  0.00000000000E+00  0.16252443746E+04  0.16252443746E+04  0.00000000000E+00 0.  1.
          2   -1    0    0  504    0 -0.00000000000E+00 -0.00000000000E+00 -0.19659167636E+03  0.19659167636E+03  0.00000000000E+00 0. -1.
         21    1    1    2  503  502  0.11884840741E+03  0.38322084580E+02  0.14746370587E+04  0.14799148560E+04  0.00000000000E+00 0.  1.
         21    1    1    2  504  503 -0.33745060684E+02 -0.34069951281E+02 -0.52820545714E+02  0.71340736963E+02  0.00000000000E+00 0. -1.
         21    1    1    2  505  501  0.28647308499E+02 -0.37995164041E+02  0.10584353457E+03  0.11604807015E+03  0.00000000000E+00 0.  1.
          2    1    1    2  501    0 -0.11375065523E+03  0.33743030743E+02 -0.99007349298E+02  0.15453238788E+03  0.00000000000E+00 0. -1.
<scales pt_clust_3="14000.00000" pt_clust_4="47.99567" pt_clust_5="47.58467" pt_clust_6="144.56931"></scales>
<clustering>
<clus scale="   47.585">  1  5  2 -1</clus>
<clus scale="   47.996">  2  4  1 -1</clus>
<clus scale="  144.569">  2  6  1 -1</clus>
<clus scale="   47.585">  1  3  2 -1</clus>
</clustering>
</event>
<event>
 6    0  0.1361744E+002  0.1059529E+03  0.7546771E-02  0.1268253E+00
         -4   -1    0    0    0  501 -0.00000000000E+00  0.00000000000E+00  0.95293201148E+02  0.95293201148E+02  0.00000000000E+00 0. -1.
         21   -1    0    0  504  502  0.00000000000E+00 -0.00000000000E+00 -0.56410550185E+03  0.56410550185E+03  0.00000000000E+00 0.  1.
         21    1    1    2  503  502  0.76715856009E+02 -0.81891513067E+02 -0.24986975111E+03  0.27390953798E+03  0.00000000000E+00 0.  1.
         21    1    1    2  504  505 -0.88741695569E+02  0.51897055463E+02 -0.25552570895E+03  0.27543017415E+03  0.00000000000E+00 0. -1.
         21    1    1    2  505  501  0.38759704371E+01  0.59183361394E+02 -0.39588544195E+01  0.59442122615E+02  0.00000000000E+00 0. -1.
         -4    1    1    2    0  503  0.81498691229E+01 -0.29188903790E+02  0.40542013774E+02  0.50616868256E+02  0.00000000000E+00 0. -1.
<scales pt_clust_3="105.95289" pt_clust_4="14000.00000" pt_clust_5="43.71447" pt_clust_6="30.30532"></scales>
<clustering>
<clus scale="   30.305">  1  6  2 -1</clus>
<clus scale="   43.714">  1  5  2 -1</clus>
<clus scale="  105.953">  1  3  2 -1</clus>
<clus scale="  105.953">  2  3  1 -1</clus>
</clustering>
</event>
<event>
 6    0  0.1361744E+002  0.9580655E+02  0.7546771E-02  0.1289370E+00
          2   -1    0    0  503    0 -0.00000000000E+00  0.00000000000E+00  0.30601865946E+04  0.30601865946E+04  0.00000000000E+00 0. -1.
         21   -1    0    0  504  502  0.00000000000E+00 -0.00000000000E+00 -0.18912627568E+03  0.18912627568E+03  0.00000000000E+00 0. -1.
         21    1    1    2  503  505  0.58289512140E+02 -0.56627820269E+02  0.74739538635E+03  0.75180066560E+03  0.00000000000E+00 0. -1.
         21    1    1    2  504  501  0.10752772177E+02 -0.63617951677E+02 -0.10789206996E+03  0.12571222950E+03  0.00000000000E+00 0. -1.
         21    1    1    2  505  502 -0.64977597448E+02  0.40932319823E+01 -0.53206709626E+02  0.84082082915E+02  0.00000000000E+00 0. -1.
          2    1    1    2  501    0 -0.40646868691E+01  0.11615253996E+03  0.22847637122E+04  0.22877178923E+04  0.00000000000E+00 0. -1.
<scales pt_clust_3="95.80655" pt_clust_4="64.52027" pt_clust_5="78.53849" pt_clust_6="14000.00000"></scales>
<clustering>
<clus scale="   64.520">  2  4  1 -1</clus>
<clus scale="   78.538">  2  5  1 -1</clus>
<clus scale="   95.807">  2  3  1 -1</clus>
<clus scale="   64.520">  2  3  1 -1</clus>
</clustering>
</event>
<event>
 6    0  0.1361744E+002  0.1674218E+03  0.7546771E-02  0.1180563E+00
         21   -1    0    0  505  502  0.00000000000E+00  0.00000000000E+00  0.13533976466E+03  0.13533976466E+03  0.00000000000E+00 0.  1.
          2   -1    0    0  504    0 -0.00000000000E+00 -0.00000000000E+00 -0.24523168599E+04  0.24523168599E+04  0.00000000000E+00 0.  1.
         21    1    1    2  503  502 -0.28725769190E+02  0.99554800223E+01  0.74963249355E+01  0.31312557953E+02  0.00000000000E+00 0.  1.
         21    1    1    2  504  503  0.76006354364E+00 -0.14130179482E+03  0.62770600260E+02  0.15461863785E+03  0.00000000000E+00 0.  1.
         21    1    1    2  505  501 -0.14396225349E+02 -0.31518793237E+02 -0.67398835379E+02  0.75784488135E+02  0.00000000000E+00 0.  1.
          2    1    1    2  501    0  0.42361930995E+02  0.16286510803E+03 -0.23198451850E+04  0.23259409406E+04  0.00000000000E+00 0.  1.
<scales pt_clust_3="30.40200" pt_clust_4="167.42184" pt_clust_5="34.77226" pt_clust_6="14000.00000"></scales>
<clustering>
<clus scale="   30.402">  1  3  2 -1</clus>
<clus scale="   34.772">  1  5  2 -1</clus>
<clus scale="  167.422">  1  4  2 -1</clus>
<clus scale="   30.402">  1  3  2 -1</clus>
</clustering>
</event>
<event>
 6    0  0.1361744E+002  0.1402605E+03  0.7546771E-02  0.1212979E+00
         21   -1    0    0  505  502  0.00000000000E+00  0.00000000000E+00  0.71847025569E+03  0.71847025569E+03  0.00000000000E+00 0. -1.
         -2   -1    0    0    0  501 -0.00000000000E+00 -0.00000000000E+00 -0.29820077615E+03  0.29820077615E+03  0.00000000000E+00 0.  1.
         21    1    1    2  503  502 -0.89150526168E+02 -0.22264303083E+02 -0.15056982559E+03  0.17639384311E+03  0.00000000000E+00 0.  1.
         21    1    1    2  504  501  0.99718050733E+02  0.86280681032E+02  0.39150308133E+03  0.41311343267E+03  0.00000000000E+00 0. -1.
         21    1    1    2  505  504  0.35025580814E+02 -0.78788136777E+02  0.29214142414E+03  0.30459969387E+03  0.00000000000E+00 0. -1.
         -2    1    1    2    0  503 -0.45593105379E+02  0.14771758827E+02 -0.11280520034E+03  0.12256406219E+03  0.00000000000E+00 0.  1.
<scales pt_clust_3="30.61848" pt_clust_4="133.69957" pt_clust_5="86.22275" pt_clust_6="30.61848"></scales>
<clustering>
<clus scale="   30.618">  3  6 -1 -1</clus>
<clus scale="   86.223">  1  5  2 -1</clus>
<clus scale="  133.700">  1  4  2 -1</clus>
<clus scale="   86.223">  1  3  2 -1</clus>
</clustering>
</event>
<event>
 6    0  0.1361744E+002  0.8642875E+02  0.7546771E-02  0.1311738E+00
         -1   -1    0    0    0  501 -0.00000000000E+00  0.00000000000E+00  0.53539248070E+02  0.53539248070E+02  0.00000000000E+00 0. -1.
         21   -1    0    0  503  502  0.00000000000E+00 -0.00000000000E+00 -0.13041528835E+04  0.13041528835E+04  0.00000000000E+00 0. -1.
         21    1    1    2  503  505  0.50948564529E+02  0.71075078631E+02 -0.10788247593E+04  0.10823632866E+04  0.00000000000E+00 0. -1.
         21    1    1    2  504  501 -0.39884956325E+02 -0.81085521970E+01 -0.55500353392E+02  0.68824759980E+02  0.00000000000E+00 0.  1.
         21    1    1    2  505  504  0.51534874458E+02 -0.28986347372E+02 -0.12146279578E+03  0.13508983077E+03  0.00000000000E+00 0.  1.
         -1    1    1    2    0  502 -0.62598482663E+02 -0.33980179063E+02  0.51742730065E+01  0.71414254193E+02  0.00000000000E+00 0. -1.
<scales pt_clust_3="86.42875" pt_clust_4="40.70084" pt_clust_5="54.78918" pt_clust_6="14000.00000"></scales>
<clustering>
<clus scale="   40.701">  1  4  2 -1</clus>
<clus scale="   54.789">  1  5  2 -1</clus>
<clus scale="   86.429">  2  3  1 -1</clus>
<clus scale="   86.429">  2  3  1 -1</clus>
</clustering>
</event>
<event>
 6    0  0.1361744E+002  0.1163131E+03  0.7546771E-02  0.1249306E+00
         21   -1    0    0  501  502  0.00000000000E+00  0.00000000000E+00  0.89607325704E+02  0.89607325704E+02  0.00000000000E+00 0.  1.
          1   -1    0    0  503    0 -0.00000000000E+00 -0.00000000000E+00 -0.47466272559E+03  0.47466272559E+03  0.00000000000E+00 0.  1.
         21    1    1    2  503  504 -0.49615508475E+02  0.12964123671E+03 -0.23470944118E+03  0.27268492939E+03  0.00000000000E+00 0.  1.
         21    1    1    2  504  505 -0.24798828399E+02 -0.45312151700E+02 -0.16142935240E+02  0.54118086993E+02  0.00000000000E+00 0. -1.
         21    1    1    2  505  502 -0.30755953597E+01 -0.55941617268E+02  0.22489033528E+02  0.60371188977E+02  0.00000000000E+00 0.  1.
          1    1    1    2  501    0  0.77489932234E+02 -0.28387467741E+02 -0.15669205699E+03  0.17709584593E+03  0.00000000000E+00 0.  1.
<scales pt_clust_3="107.19391" pt_clust_4="43.34939" pt_clust_5="43.34939" pt_clust_6="82.52598"></scales>
<clustering>
<clus scale="   43.349">  4  5 -1 -1</clus>
<clus scale="   82.526">  2  6  1 -1</clus>
<clus scale="  107.194">  2  3  1 -1</clus>
<clus scale="  116.313">  1  3  2 -1</clus>
</clustering>
</event>
<event>
 6    0  0.1361744E+002  0.2499022E+03  0.7546771E-02  0.1113367E+00
         21   -1    0    0  503  502  0.00000000000E+00  0.00000000000E+00  0.15861855457E+03  0.15861855457E+03  0.00000000000E+00 0.  1.
         -1   -1    0    0    0  501 -0.00000000000E+00 -0.00000000000E+00 -0.82191604815E+03  0.82191604815E+03  0.00000000000E+00 0. -1.
         21    1    1    2  503  504  0.16687276553E+02  0.15504028644E+03 -0.79743618398E+01  0.15613950835E+03  0.00000000000E+00 0.  1.
         21    1    1    2  504  505 -0.12797646068E+02  0.95480714977E+02  0.14517030380E+02  0.97422229745E+02  0.00000000000E+00 0.  1.
         21    1    1    2  505  501 -0.43100790203E+02 -0.19901947262E+02 -0.13871503719E+03  0.14661387098E+03  0.00000000000E+00 0. -1.
         -1    1    1    2    0  502  0.39211159718E+02 -0.23061905416E+03 -0.53112512493E+03  0.58035899366E+03  0.00000000000E+00 0. -1.
<scales pt_clust_3="30.18504" pt_clust_4="30.18504" pt_clust_5="47.47384" pt_clust_6="246.93375"></scales>
<clustering>
<clus scale="   30.185">  3  4 -1 -1</clus>
<clus scale="   47.474">  2  5  1 -1</clus>
<clus scale="  246.934">  2  6  1 -1</clus>
<clus scale="  249.902">  1  3  2 -1</clus>
</clustering>
</event>
<event>
 6    0  0.1361744E+002  0.1280915E+03  0.7546771E-02  0.1230315E+00
          2   -1    0    0  503    0 -0.00000000000E+00  0.00000000000E+00  0.75256476767E+03  0.75256476767E+03  0.00000000000E+00 0.  1.
         21   -1    0    0  504  502  0.00000000000E+00 -0.00000000000E+00 -0.72798630650E+02  0.72798630650E+02  0.00000000000E+00 0.  1.
         21    1    1    2  503  502 -0.25408997649E+02  0.13719130737E+03  0.80980633555E+02  0.16132245656E+03  0.00000000000E+00 0.  1.
         21    1    1    2  504  505  0.34925723768E+02  0.28113909602E+02  0.21273368679E+02  0.49626145415E+02  0.00000000000E+00 0.  1.
         21    1    1    2  505  501 -0.37676157013E+02 -0.42546639504E+02  0.63587533741E+02  0.85282376770E+02  0.00000000000E+00 0. -1.
          2    1    1    2  501    0  0.28159430894E+02 -0.12275857747E+03  0.51392460105E+03  0.52913241958E+03  0.00000000000E+00 0.  1.
<scales pt_clust_3="128.09146" pt_clust_4="44.83523" pt_clust_5="48.67127" pt_clust_6="14000.00000"></scales>
<clustering>
<clus scale="   44.835">  2  4  1 -1</clus>
<clus scale="   48.671">  2  5  1 -1</clus>
<clus scale="  128.091">  2  3  1 -1</clus>
<clus scale="   44.835">  2  3  1 -1</clus>
</clustering>
</event>
<event>
 6    0  0.1361744E+002  0.1822124E+03  0.7546771E-02  0.1165679E+00
          2   -1    0    0  504    0 -0.00000000000E+00  0.00000000000E+00  0.44208820488E+04  0.44208820488E+04  0.00000000000E+00 0. -1.
         21   -1    0    0  503  502  0.00000000000E+00 -0.00000000000E+00 -0.78880639251E+03  0.78880639251E+03  0.00000000000E+00 0.  1.
         21    1    1    2  503  505 -0.43228103444E+02 -0.16319552922E+02  0.79672514325E+01  0.46887885753E+02  0.00000000000E+00 0.  1.
         21    1    1    2  504  502  0.21686768117E+03  0.21055951902E+00 -0.75213154501E+03  0.78277295333E+03  0.00000000000E+00 0.  1.
         21    1    1    2  505  501 -0.51357317712E+02 -0.93599865245E+01  0.87109465688E+03  0.87265748416E+03  0.00000000000E+00 0. -1.
          2    1    1    2  501    0 -0.12228226001E+03  0.25468979928E+02  0.35051452930E+04  0.35073701180E+04  0.00000000000E+00 0. -1.
<scales pt_clust_3="46.20602" pt_clust_4="174.48746" pt_clust_5="33.93566" pt_clust_6="33.93566"></scales>
<clustering>
<clus scale="   33.936">  5  6 -1 -1</clus>
<clus scale="   46.206">  2  3  1 -1</clus>
<clus scale="  174.487">  2  4  1 -1</clus>
<clus scale="   46.206">  2  3  1 -1</clus>
</clustering>
</event>
<event>
 6    0  0.1361744E+002  0.1781228E+03  0.7546771E-02  0.1169632E+00
         21   -1    0    0  505  502  0.00000000000E+00  0.00000000000E+00  0.11622212386E+03  0.11622212386E+03  0.00000000000E+00 0. -1.
          2   -1    0    0  504    0 -0.00000000000E+00 -0.00000000000E+00 -0.30745233105E+04  0.30745233105E+04  0.00000000000E+00 0. -1.
         21    1    1    2  503  502 -0.39579296317E+02  0.16168703007E+03 -0.27703224565E+03  0.32319666075E+03  0.00000000000E+00 0. -1.
         21    1    1    2  504  503 -0.36599262341E+02  0.10045219696E+02 -0.11391737553E+03  0.12007323137E+03  0.00000000000E+00 0.  1.
         21    1    1    2  505  501  0.16787118813E+03 -0.11010456217E+02  0.51665933537E+01  0.16831119878E+03  0.00000000000E+00 0. -1.
          2    1    1    2  501    0 -0.91692629469E+02 -0.16072179354E+03 -0.25725181588E+04  0.25791643434E+04  0.00000000000E+00 0. -1.
<scales pt_clust_3="178.12281" pt_clust_4="37.95277" pt_clust_5="167.20659" pt_clust_6="14000.00000"></scales>
<clustering>
<clus scale="   37.953">  2  4  1 -1</clus>
<clus scale="  167.207">  1  5  2 -1</clus>
<clus scale="  178.123">  1  3  2 -1</clus>
<clus scale="  167.207">  1  3  2 -1</clus>
</clustering>
</event>
<event>
 6    0  0.1361744E+002  0.2110671E+03  0.7546771E-02  0.1140724E+00
         21   -1    0    0  504  502  0.00000000000E+00  0.00000000000E+00  0.47998601807E+03  0.47998601807E+03  0.00000000000E+00 0. -1.
         -2   -1    0    0    0  501 -0.00000000000E+00 -0.00000000000E+00 -0.81514150746E+03  0.81514150746E+03  0.00000000000E+00 0. -1.
         21    1    1    2  503  501 -0.54981770467E+02 -0.93163379768E+02 -0.33958696039E+02  0.11338255355E+03  0.00000000000E+00 0. -1.
         21    1    1    2  504  503  0.25083249642E+02  0.11466584053E+03  0.28554487526E+02  0.12080059253E+03  0.00000000000E+00 0.  1.
         21    1    1    2  505  502 -0.19717055551E+03  0.18894194530E+02  0.31728288844E+03  0.37403428966E+03  0.00000000000E+00 0. -1.
         -2    1    1    2    0  505  0.22706907633E+03 -0.40396655296E+02 -0.64703416931E+03  0.68691008978E+03  0.00000000000E+00 0. -1.
<scales pt_clust_3="108.17768" pt_clust_4="111.00498" pt_clust_5="211.06708" pt_clust_6="14000.00000"></scales>
<clustering>
<clus scale="  108.178">  2  3  1 -1</clus>
<clus scale="  111.005">  1  4  2 -1</clus>
<clus scale="  211.067">  1  5  2 -1</clus>
<clus scale="  111.005">  1  3  2 -1</clus>
</clustering>
</event>
<event>
 6    0  0.1361744E+002  0.1952948E+03  0.7546771E-02  0.1153771E+00
         21   -1    0    0  505  502  0.00000000000E+00  0.00000000000E+00  0.25394286403E+03  0.25394286403E+03  0.00000000000E+00 0.  1.
          2   -1    0    0  504    0 -0.00000000000E+00 -0.00000000000E+00 -0.21874075626E+04  0.21874075626E+04  0.00000000000E+00 0. -1.
         21    1    1    2  503  502 -0.35903023402E+02 -0.38992615746E+01 -0.10983931098E+02  0.37747557174E+02  0.00000000000E+00 0. -1.
         21    1    1    2  504  503  0.44359910545E+02  0.85493185098E+02 -0.56250198812E+03  0.57068850786E+03  0.00000000000E+00 0. -1.
         21    1    1    2  505  501 -0.11935982266E+03 -0.12168037936E+03  0.20324026666E+03  0.26525362953E+03  0.00000000000E+00 0.  1.
          2    1    1    2  501    0  0.11090293552E+03  0.40086455837E+02 -0.15632190460E+04  0.15676607320E+04  0.00000000000E+00 0. -1.
<scales pt_clust_3="36.11414" pt_clust_4="95.97770" pt_clust_5="195.29482" pt_clust_6="14000.00000"></scales>
<clustering>
<clus scale="   36.114">  1  3  2 -1</clus>
<clus scale="   95.978">  2  4  1 -1</clus>
<clus scale="  195.295">  1  5  2 -1</clus>
<clus scale="   36.114">  1  3  2 -1</clus>
</clustering>
</event>
<event>
 6    0  0.1361744E+002  0.1493114E+03  0.7546771E-02  0.1201322E+00
         21   -1    0    0  501  502  0.00000000000E+00  0.00000000000E+00  0.22072334801E+02  0.22072334801E+02  0.00000000000E+00 0.  1.
          1   -1    0    0  503    0 -0.00000000000E+00 -0.00000000000E+00 -0.20538091789E+04  0.20538091789E+04  0.00000000000E+00 0.  1.
         21    1    1    2  503  505  0.56574595405E+02  0.27122470958E+02 -0.36937077216E+03  0.37466128784E+03  0.00000000000E+00 0.  1.
         21    1    1    2  504  502 -0.11307550161E+03 -0.10733336191E+02 -0.20905818050E+03  0.23792140804E+03  0.00000000000E+00 0.  1.
         21    1    1    2  505  504 -0.25361188681E+02 -0.36676516521E+02 -0.13252040723E+03  0.13982136850E+03  0.00000000000E+00 0. -1.
          1    1    1    2  501    0  0.81862094888E+02  0.20287381754E+02 -0.13207874842E+04  0.13234774493E+04  0.00000000000E+00 0.  1.
<scales pt_clust_3="62.74005" pt_clust_4="42.50147" pt_clust_5="42.50147" pt_clust_6="133.01361"></scales>
<clustering>
<clus scale="   42.501">  4  5 -1 -1</clus>
<clus scale="   62.740">  2  3  1 -1</clus>
<clus scale="  133.014">  2  6  1 -1</clus>
<clus scale="  149.311">  1  3  2 -1</clus>
</clustering>
</event>
<event>
 6    0  0.1361744E+002  0.2025857E+03  0.7546771E-02  0.1147576E+00
          4   -1    0    0  505    0 -0.00000000000E+00  0.00000000000E+00  0.20632266507E+04  0.20632266507E+04  0.00000000000E+00 0.  1.
         21   -1    0    0  503  502  0.00000000000E+00 -0.00000000000E+00 -0.42275103491E+02  0.42275103491E+02  0.00000000000E+00 0.  1.
         21    1    1    2  503  501 -0.92244466585E+02 -0.51763422345E+02  0.82561446490E+03  0.83236274433E+03  0.00000000000E+00 0. -1.
         21    1    1    2  504  502  0.89330362466E+02  0.49020623710E+02  0.85729552427E+02  0.13316340100E+03  0.00000000000E+00 0.  1.
         21    1    1    2  505  504  0.94023524988E+02 -0.11198895825E+01  0.15693699733E+03  0.18295053576E+03  0.00000000000E+00 0.  1.
          4    1    1    2  501    0 -0.91109420869E+02  0.38626882180E+01  0.95267053258E+03  0.95702507311E+03  0.00000000000E+00 0.  1.
<scales pt_clust_3="56.46419" pt_clust_4="68.78928" pt_clust_5="68.78928" pt_clust_6="199.02570"></scales>
<clustering>
<clus scale="   56.464">  3  6 -1 -1</clus>
<clus scale="   68.789">  4  5 -1 -1</clus>
<clus scale="  199.026">  1  3  2 -1</clus>
<clus scale="  202.586">  2  3  1 -1</clus>
</clustering>
</event>
<event>
 6    0  0.1361744E+002  0.1995390E+03  0.7546771E-02  0.1150129E+00
          1   -1    0    0  505    0 -0.00000000000E+00  0.00000000000E+00  0.90049716337E+03  0.90049716337E+03  0.00000000000E+00 0.  1.
         21   -1    0    0  503  502  0.00000000000E+00 -0.00000000000E+00 -0.70584898330E+03  0.70584898330E+03  0.00000000000E+00 0. -1.
         21    1    1    2  503  504  0.47848074823E+02  0.54561157377E+02 -0.44739912084E+03  0.45324643571E+03  0.00000000000E+00 0. -1.
         21    1    1    2  504  501  0.43888829151E+02  0.75829982261E+01 -0.19988359127E+03  0.20478569590E+03  0.00000000000E+00 0. -1.
         21    1    1    2  505  502  0.50105544887E+02  0.73981914230E+02  0.59749500350E+01  0.89552159602E+02  0.00000000000E+00 0. -1.
          1    1    1    2  501    0 -0.14184244886E+03 -0.13612606983E+03  0.83595594214E+03  0.85876185545E+03  0.00000000000E+00 0.  1.
<scales pt_clust_3="32.80845" pt_clust_4="32.80845" pt_clust_5="89.35261" pt_clust_6="195.09484"></scales>
<clustering>
<clus scale="   32.808">  3  4 -1 -1</clus>
<clus scale="   89.353">  2  5  1 -1</clus>
<clus scale="  195.095">  1  6  2 -1</clus>
<clus scale="   89.353">  2  3  1 -1</clus>
</clustering>
</event>
<event>
 6    0  0.1361744E+002  0.1018680E+03  0.7546771E-02  0.1276416E+00
          2   -1    0    0  503    0 -0.00000000000E+00  0.00000000000E+00  0.48891671831E+03  0.48891671831E+03  0.00000000000E+00 0. -1.
         21   -1    0    0  505  502  0.00000000000E+00 -0.00000000000E+00 -0.10304126968E+04  0.10304126968E+04  0.00000000000E+00 0.  1.
         21    1    1    2  503  502  0.18864375801E+02 -0.30255386724E+02  0.35917760261E+02  0.50609669060E+02  0.00000000000E+00 0. -1.
         21    1    1    2  504  501  0.88394383106E+02 -0.93616269222E+02 -0.18470737811E+03  0.22515414355E+03  0.00000000000E+00 0. -1.
         21    1    1    2  505  504 -0.46649025820E+02  0.86711081345E+02 -0.81217149372E+03  0.81811825456E+03  0.00000000000E+00 0.  1.
          2    1    1    2  501    0 -0.60609733087E+02  0.37160574601E+02  0.41946513305E+03  0.42544734797E+03  0.00000000000E+00 0. -1.
<scales pt_clust_3="35.65464" pt_clust_4="101.86801" pt_clust_5="14000.00000" pt_clust_6="43.56065"></scales>
<clustering>
<clus scale="   35.655">  1  3  2 -1</clus>
<clus scale="   43.561">  1  6  2 -1</clus>
<clus scale="  101.868">  1  4  2 -1</clus>
<clus scale="  101.868">  2  3  1 -1</clus>
</clustering>
</event>
<event>
 6    0  0.1361744E+002  0.1005136E+03  0.7546771E-02  0.1279220E+00
          2   -1    0    0  505    0 -0.00000000000E+00  0.00000000000E+00  0.27948438190E+04  0.27948438190E+04  0.00000000000E+00 0.  1.
         21   -1    0    0  504  502  0.00000000000E+00 -0.00000000000E+00 -0.15393257455E+03  0.15393257455E+03  0.00000000000E+00 0. -1.
         21    1    1    2  503  502 -0.61608748777E+02  0.81587794281E+02 -0.12249433416E+03  0.15955271230E+03  0.00000000000E+00 0. -1.
         21    1    1    2  504  501  0.52419636378E+02 -0.36817928041E+02  0.42211079187E+03  0.42694367160E+03  0.00000000000E+00 0.  1.
         21    1    1    2  505  503  0.60568037555E+02 -0.18697274188E+02  0.89095477955E+02  0.10934385866E+03  0.00000000000E+00 0.  1.
          2    1    1    2  501    0 -0.51378925155E+02 -0.26072592052E+02  0.22521993088E+04  0.22529361510E+04  0.00000000000E+00 0.  1.
<scales pt_clust_3="100.51362" pt_clust_4="14000.00000" pt_clust_5="56.29233" pt_clust_6="57.61574"></scales>
<clustering>
<clus scale="   57.616">  1  6  2 -1</clus>
<clus scale="   56.292">  1  5  2 -1</clus>
<clus scale="  100.514">  2  3  1 -1</clus>
<clus scale="  100.514">  2  3  1 -1</clus>
</clustering>
</event>
<event>
 6    0  0.1361744E+002  0.1158448E+03  0.7546771E-02  0.1250114E+00
         21   -1    0    0  503  502  0.00000000000E+00  0.00000000000E+00  0.26399700976E+03  0.26399700976E+03  0.00000000000E+00 0. -1.
          2   -1    0    0  505    0 -0.00000000000E+00 -0.00000000000E+00 -0.13075350865E+04  0.13075350865E+04  0.00000000000E+00 0.  1.
         21    1    1    2  503  504  0.37966013591E+02 -0.18768867528E+02  0.27115741811E+02  0.50288686901E+02  0.00000000000E+00 0. -1.
         21    1    1    2  504  501  0.15153660112E+02 -0.69279959862E+02 -0.41935263121E+03  0.42530691924E+03  0.00000000000E+00 0.  1.
         21    1    1    2  505  502 -0.17003500390E+02  0.13591919522E+03  0.20006297203E+03  0.24246306818E+03  0.00000000000E+00 0. -1.
          2    1    1    2  501    0 -0.36116173312E+02 -0.47870367825E+02 -0.85136415934E+03  0.85347342190E+03  0.00000000000E+00 0.  1.
<scales pt_clust_3="42.35196" pt_clust_4="115.84479" pt_clust_5="14000.00000" pt_clust_6="59.92966"></scales>
<clustering>
<clus scale="   42.352">  1  3  2 -1</clus>
<clus scale="   59.930">  2  6  1 -1</clus>
<clus scale="  115.845">  2  4  1 -1</clus>
<clus scale="   42.352">  1  3  2 -1</clus>
</clustering>
</event>
<event>
 6    0  0.1361744E+002  0.1560205E+03  0.7546771E-02  0.1193264E+00
          2   -1    0    0  504    0 -0.00000000000E+00  0.00000000000E+00  0.20115197842E+04  0.20115197842E+04  0.00000000000E+00 0.  1.
         21   -1    0    0  505  502  0.00000000000E+00 -0.00000000000E+00 -0.18887953191E+03  0.18887953191E+03  0.00000000000E+00 0. -1.
         21    1    1    2  503  502 -0.18624390701E+02 -0.96884098486E+02 -0.14972026667E+03  0.17930296908E+03  0.00000000000E+00 0. -1.
         21    1    1    2  504  503  0.33437394103E+02 -0.39990530904E+01  0.25964867061E+03  0.26182338302E+03  0.00000000000E+00 0. -1.
         21    1    1    2  505  501 -0.43904846724E+02 -0.48385945812E+02  0.33937874861E+02  0.73624823722E+02  0.00000000000E+00 0. -1.
          2    1    1    2  501    0  0.29091843321E+02  0.14926909739E+03  0.16787739735E+04  0.16856481403E+04  0.00000000000E+00 0.  1.
<scales pt_clust_3="14000.00000" pt_clust_4="33.67568" pt_clust_5="64.74257" pt_clust_6="156.02047"></scales>
<clustering>
<clus scale="   33.676">  1  4  2 -1</clus>
<clus scale="   64.743">  2  5  1 -1</clus>
<clus scale="  156.020">  1  6  2 -1</clus>
<clus scale="   64.743">  2  3  1 -1</clus>
</clustering>
</event>
<event>
 6    0  0.1361744E+002  0.9492595E+02  0.7546771E-02  0.1291343E+00
          2   -1    0    0  504    0 -0.00000000000E+00  0.00000000000E+00  0.39741400497E+03  0.39741400497E+03  0.00000000000E+00 0.  1.
         21   -1    0    0  503  502  0.00000000000E+00 -0.00000000000E+00 -0.14251587583E+03  0.14251587583E+03  0.00000000000E+00 0.  1.
         21    1    1    2  503  501  0.39257772510E+01 -0.80442632845E+02 -0.74912514539E+02  0.10999233492E+03  0.00000000000E+00 0.  1.
         21    1    1    2  504  505 -0.70656905450E+02 -0.12120292395E+02  0.13453662768E+03  0.15244475708E+03  0.00000000000E+00 0.  1.
         21    1    1    2  505  502  0.40266575450E+02 -0.10910886098E+02 -0.12774715883E+02  0.43630699052E+02  0.00000000000E+00 0.  1.
          2    1    1    2  501    0  0.26464552749E+02  0.10347381134E+03  0.20804873188E+03  0.23386208975E+03  0.00000000000E+00 0.  1.
<scales pt_clust_3="94.92595" pt_clust_4="68.73852" pt_clust_5="41.71864" pt_clust_6="14000.00000"></scales>
<clustering>
<clus scale="   41.719">  2  5  1 -1</clus>
<clus scale="   68.739">  1  4  2 -1</clus>
<clus scale="   94.926">  2  3  1 -1</clus>
<clus scale="   41.719">  2  3  1 -1</clus>
</clustering>
</event>
<event>
 6    0  0.1361744E+002  0.1241619E+03  0.7546771E-02  0.1236385E+00
         21   -1    0    0  504  502  0.00000000000E+00  0.00000000000E+00  0.11448688088E+03  0.11448688088E+03  0.00000000000E+00 0. -1.
         -1   -1    0    0    0  501 -0.00000000000E+00 -0.00000000000E+00 -0.97618748832E+03  0.97618748832E+03  0.00000000000E+00 0.  1.
         21    1    1    2  503  505 -0.19774398694E+02 -0.10111234414E+03 -0.19934300735E+03  0.22439333225E+03  0.00000000000E+00 0.  1.
         21    1    1    2  504  501 -0.29208065088E+02  0.29294799624E+02 -0.70573569876E+02  0.81804187645E+02  0.00000000000E+00 0.  1.
         21    1    1    2  505  502 -0.59788563354E+02  0.11915672551E+03  0.41931338217E+02  0.13975419374E+03  0.00000000000E+00 0. -1.
         -1    1    1    2    0  503  0.10877102714E+03 -0.47339180992E+02 -0.63371536844E+03  0.64472265556E+03  0.00000000000E+00 0.  1.
<scales pt_clust_3="124.16192" pt_clust_4="41.36782" pt_clust_5="14000.00000" pt_clust_6="91.93797"></scales>
<clustering>
<clus scale="   41.368">  2  4  1 -1</clus>
<clus scale="   91.938">  2  6  1 -1</clus>
<clus scale="  124.162">  2  3  1 -1</clus>
<clus scale="  124.162">  1  3  2 -1</clus>
</clustering>
</event>
<event>
 6    0  0.1361744E+002  0.1162261E+03  0.7546771E-02  0.1249456E+00
         21   -1    0    0  504  502  0.00000000000E+00  0.00000000000E+00  0.37789108032E+03  0.37789108032E+03  0.00000000000E+00 0.  1.
          2   -1    0    0  505    0 -0.00000000000E+00 -0.00000000000E+00 -0.18321844172E+03  0.18321844172E+03  0.00000000000E+00 0.  1.
         21    1    1    2  503  502  0.37531061205E+02 -0.31545571118E+02  0.20472658465E+02  0.53130343091E+02  0.00000000000E+00 0.  1.
         21    1    1    2  504  501 -0.10422353732E+03 -0.53536604927E+02  0.28966639704E+03  0.31246653480E+03  0.00000000000E+00 0.  1.
         21    1    1    2  505  503 -0.26606107555E+02  0.35624350722E+02 -0.86222148367E+01  0.45291521417E+02  0.00000000000E+00 0.  1.
          2    1    1    2  501    0  0.93298583669E+02  0.49457825323E+02 -0.10684420207E+03  0.15022112274E+03  0.00000000000E+00 0.  1.
<scales pt_clust_3="44.51668" pt_clust_4="14000.00000" pt_clust_5="44.46324" pt_clust_6="116.22612"></scales>
<clustering>
<clus scale="   44.463">  2  5  1 -1</clus>
<clus scale="   44.517">  2  3  1 -1</clus>
<clus scale="  116.226">  2  6  1 -1</clus>
<clus scale="  116.226">  1  3  2 -1</clus>
</clustering>
</event>
<event>
 6    0  0.1361744E+002  0.8700553E+02  0.7546771E-02  0.1310270E+00
         21   -1    0    0  503  502  0.00000000000E+00  0.00000000000E+00  0.34646044101E+03  0.34646044101E+03  0.00000000000E+00 0.  1.
          2   -1    0    0  504    0 -0.00000000000E+00 -0.00000000000E+00 -0.24690937970E+03  0.24690937970E+03  0.00000000000E+00 0.  1.
         21    1    1    2  503  501  0.31022668203E+02 -0.33391823864E+02  0.94955891126E+02  0.10532825406E+03  0.00000000000E+00 0.  1.
         21    1    1    2  504  505  0.61246505244E+02  0.25239440185E+02 -0.34780989982E+02  0.74818988295E+02  0.00000000000E+00 0.  1.
         21    1    1    2  505  502 -0.58252809455E+02 -0.55360740951E+02  0.21170170207E+03  0.22644163069E+03  0.00000000000E+00 0.  1.
          2    1    1    2  501    0 -0.34016363991E+02  0.63513124630E+02 -0.17232554191E+03  0.18678094767E+03  0.00000000000E+00 0.  1.
<scales pt_clust_3="45.57872" pt_clust_4="67.62940" pt_clust_5="87.00553" pt_clust_6="14000.00000"></scales>
<clustering>
<clus scale="   45.579">  1  3  2 -1</clus>
<clus scale="   67.629">  2  4  1 -1</clus>
<clus scale="   87.006">  1  5  2 -1</clus>
<clus scale="   45.579">  1  3  2 -1</clus>
</clustering>
</event>
<event>
 6    0  0.1361744E+002  0.7998488E+02  0.7546771E-02  0.1329094E+00
          2   -1    0    0  503    0 -0.00000000000E+00  0.00000000000E+00  0.12011003485E+04  0.12011003485E+04  0.00000000000E+00 0. -1.
         21   -1    0    0  505  502  0.00000000000E+00 -0.00000000000E+00 -0.23043704833E+03  0.23043704833E+03  0.00000000000E+00 0. -1.
         21    1    1    2  503  504 -0.32702476265E+02  0.30766347996E+02  0.27550278044E+03  0.27913760434E+03  0.00000000000E+00 0. -1.
         21    1    1    2  504  502 -0.19053135904E+02 -0.11257403134E+03 -0.15687980370E+03  0.19402888272E+03  0.00000000000E+00 0. -1.
         21    1    1    2  505  501  0.20213632834E+02  0.32484248178E+02 -0.45202133378E+02  0.59220352869E+02  0.00000000000E+00 0. -1.
          2    1    1    2  501    0  0.31541979336E+02  0.49323435162E+02  0.89724245683E+03  0.89915055695E+03  0.00000000000E+00 0. -1.
<scales pt_clust_3="44.97859" pt_clust_4="79.98488" pt_clust_5="38.25987" pt_clust_6="14000.00000"></scales>
<clustering>
<clus scale="   38.260">  2  5  1 -1</clus>
<clus scale="   44.979">  1  3  2 -1</clus>
<clus scale="   79.985">  2  4  1 -1</clus>
<clus scale="   38.260">  2  3  1 -1</clus>
</clustering>
</event>
<event>
 6    0  0.1361744E+002  0.1723101E+03  0.7546771E-02  0.1175460E+00
         21   -1    0    0  503  502  0.00000000000E+00  0.00000000000E+00  0.77670111806E+02  0.77670111806E+02  0.00000000000E+00 0. -1.
          2   -1    0    0  504    0 -0.00000000000E+00 -0.00000000000E+00 -0.15226155657E+04  0.15226155657E+04  0.00000000000E+00 0.  1.
         21    1    1    2  503  505 -0.55103937133E+02  0.65499770101E+02 -0.68235945922E+02  0.10946601339E+03  0.00000000000E+00 0. -1.
         21    1    1    2  504  502  0.76557876139E+02  0.14428965949E+03 -0.10300763039E+03  0.19310925963E+03  0.00000000000E+00 0. -1.
         21    1    1    2  505  501 -0.64808269454E+02 -0.12095603417E+03 -0.53035885369E+03  0.54782386556E+03  0.00000000000E+00 0.  1.
          2    1    1    2  501    0  0.43354330448E+02 -0.88833395417E+02 -0.74334302386E+03  0.74988653890E+03  0.00000000000E+00 0.  1.
<scales pt_clust_3="85.59593" pt_clust_4="172.31011" pt_clust_5="14000.00000" pt_clust_6="94.09440"></scales>
<clustering>
<clus scale="   85.596">  1  3  2 -1</clus>
<clus scale="   94.094">  2  6  1 -1</clus>
<clus scale="  172.310">  1  4  2 -1</clus>
<clus scale="   85.596">  1  3  2 -1</clus>
</clustering>
</event>
<event>
 6    0  0.1361744E+002  0.1171219E+03  0.7546771E-02  0.1247922E+00
          2   -1    0    0  505    0 -0.00000000000E+00  0.00000000000E+00  0.35510019016E+03  0.35510019016E+03  0.00000000000E+00 0.  1.
         21   -1    0    0  504  502  0.00000000000E+00 -0.00000000000E+00 -0.43545116562E+03  0.43545116562E+03  0.00000000000E+00 0.  1.
         21    1    1    2  503  502 -0.11534984022E+03  0.43791946067E+02  0.93340959731E+02  0.15471216805E+03  0.00000000000E+00 0.  1.
         21    1    1    2  504  501  0.44645257413E+00 -0.11746717247E+03 -0.35314797508E+03  0.37217230987E+03  0.00000000000E+00 0.  1.
         21    1    1    2  505  503  0.26126111595E+01 -0.34267490167E+02  0.16088874812E+02  0.37946521740E+02  0.00000000000E+00 0.  1.
          2    1    1    2  501    0  0.11229077648E+03  0.10794271657E+03  0.16336716508E+03  0.22572035613E+03  0.00000000000E+00 0.  1.
<scales pt_clust_3="118.44690" pt_clust_4="117.12195" pt_clust_5="34.36694" pt_clust_6="14000.00000"></scales>
<clustering>
<clus scale="   34.367">  1  5  2 -1</clus>
<clus scale="  118.447">  1  3  2 -1</clus>
<clus scale="  117.122">  2  4  1 -1</clus>
<clus scale="  117.122">  2  3  1 -1</clus>
</clustering>
</event>
<event>
 6    0  0.1361744E+002  0.9560042E+02  0.7546771E-02  0.1289829E+00
         -3   -1    0    0    0  501 -0.00000000000E+00  0.00000000000E+00  0.48351930459E+03  0.48351930459E+03  0.00000000000E+00 0.  1.
         21   -1    0    0  505  502  0.00000000000E+00 -0.00000000000E+00 -0.15529423374E+03  0.15529423374E+03  0.00000000000E+00 0.  1.
         21    1    1    2  503  504 -0.46110243407E+02  0.19049963543E+02  0.37800676170E+02  0.62593504272E+02  0.00000000000E+00 0.  1.
         21    1    1    2  504  502  0.24995455915E+02 -0.21249453780E+02 -0.41984280298E+02  0.53282191157E+02  0.00000000000E+00 0.  1.
         21    1    1    2  505  501 -0.20070534548E+02 -0.84797746891E+02 -0.68371273845E+02  0.11076152456E+03  0.00000000000E+00 0.  1.
         -3    1    1    2    0  503  0.41185322040E+02  0.86997237128E+02  0.40077994883E+03  0.41217631834E+03  0.00000000000E+00 0.  1.
<scales pt_clust_3="46.31080" pt_clust_4="32.80720" pt_clust_5="14000.00000" pt_clust_6="95.60042"></scales>
<clustering>
<clus scale="   32.807">  2  4  1 -1</clus>
<clus scale="   46.311">  2  3  1 -1</clus>
<clus scale="   95.600">  1  6  2 -1</clus>
<clus scale="   32.807">  2  3  1 -1</clus>
</clustering>
</event>
<event>
 6    0  0.1361744E+002  0.1318332E+03  0.7546771E-02  0.1224761E+00
         21   -1    0    0  505  502  0.00000000000E+00  0.00000000000E+00  0.10233449740E+03  0.10233449740E+03  0.00000000000E+00 0.  1.
          2   -1    0    0  503    0 -0.00000000000E+00 -0.00000000000E+00 -0.13354076233E+04  0.13354076233E+04  0.00000000000E+00 0. -1.
         21    1    1    2  503  504  0.50820589791E+02 -0.12916189273E+02  0.72212133093E+01  0.52931145970E+02  0.00000000000E+00 0.  1.
         21    1    1    2  504  502  0.31149267110E+02 -0.40561302362E+01  0.54691027161E+02  0.63070099777E+02  0.00000000000E+00 0.  1.
         21    1    1    2  505  501  0.52362800296E+02 -0.32306900573E+02 -0.94540366547E+02  0.11279840241E+03  0.00000000000E+00 0.  1.
          2    1    1    2  501    0 -0.13433265720E+03  0.49279220082E+02 -0.12004449998E+04  0.12089424725E+04  0.00000000000E+00 0. -1.
<scales pt_clust_3="14000.00000" pt_clust_4="31.41224" pt_clust_5="67.59831" pt_clust_6="131.83316"></scales>
<clustering>
<clus scale="   31.412">  1  4  2 -1</clus>
<clus scale="   67.598">  1  5  2 -1</clus>
<clus scale="  131.833">  2  6  1 -1</clus>
<clus scale="   31.412">  1  3  2 -1</clus>
</clustering>
</event>
<event>
 6    0  0.1361744E+002  0.2193760E+03  0.7546771E-02  0.1134349E+00
         21   -1    0    0  505  502  0.00000000000E+00  0.00000000000E+00  0.83605521809E+02  0.83605521809E+02  0.00000000000E+00 0.  1.
          2   -1    0    0  503    0 -0.00000000000E+00 -0.00000000000E+00 -0.24524318402E+04  0.24524318402E+04  0.00000000000E+00 0. -1.
         21    1    1    2  503  502 -0.64702148325E+02  0.37126573159E+01 -0.21950038119E+03  0.22886801692E+03  0.00000000000E+00 0. -1.
         21    1    1    2  504  501  0.12685351928E+03 -0.78804914539E+02 -0.49885341956E+02  0.15745023738E+03  0.00000000000E+00 0.  1.
         21    1    1    2  505  504  0.72315034561E+02 -0.13469615351E+02 -0.39495807694E+02  0.83491398279E+02  0.00000000000E+00 0.  1.
          2    1    1    2  501    0 -0.13446640552E+03  0.88561872574E+02 -0.20599447875E+04  0.20662277094E+04  0.00000000000E+00 0. -1.
<scales pt_clust_3="64.80858" pt_clust_4="30.44012" pt_clust_5="30.44012" pt_clust_6="215.04566"></scales>
<clustering>
<clus scale="   30.440">  4  5 -1 -1</clus>
<clus scale="   64.809">  2  3  1 -1</clus>
<clus scale="  215.046">  2  6  1 -1</clus>
<clus scale="  219.376">  1  3  2 -1</clus>
</clustering>
</event>
<event>
 6    0  0.1361744E+002  0.1235988E+03  0.7546771E-02  0.1237275E+00
          1   -1    0    0  505    0 -0.00000000000E+00  0.00000000000E+00  0.53355069254E+03  0.53355069254E+03  0.00000000000E+00 0.  1.
         21   -1    0    0  503  502  0.00000000000E+00 -0.00000000000E+00 -0.96583175390E+02  0.96583175390E+02  0.00000000000E+00 0.  1.
         21    1    1    2  503  504 -0.40950497772E+02 -0.18104314935E+02 -0.36181346515E+02  0.57565608853E+02  0.00000000000E+00 0.  1.
         21    1    1    2  504  501  0.71917653125E+02  0.20496365412E+01  0.26274677271E+03  0.27241919244E+03  0.00000000000E+00 0.  1.
         21    1    1    2  505  502 -0.76017550364E+02  0.51417432381E+02  0.10698298944E+02  0.92395205050E+02  0.00000000000E+00 0.  1.
          1    1    1    2  501    0  0.45050395010E+02 -0.35362753987E+02  0.19970379201E+03  0.20775386158E+03  0.00000000000E+00 0.  1.
<scales pt_clust_3="44.77398" pt_clust_4="39.03689" pt_clust_5="115.59549" pt_clust_6="39.03689"></scales>
<clustering>
<clus scale="   39.037">  4  6 -1 -1</clus>
<clus scale="   44.774">  2  3  1 -1</clus>
<clus scale="  115.595">  2  5  1 -1</clus>
<clus scale="   44.774">  2  3  1 -1</clus>
</clustering>
</event>
<event>
 6    0  0.1361744E+002  0.1031736E+03  0.7546771E-02  0.1273760E+00
         21   -1    0    0  501  502  0.00000000000E+00  0.00000000000E+00  0.13546723302E+02  0.13546723302E+02  0.00000000000E+00 0.  1.
          2   -1    0    0  504    0 -0.00000000000E+00 -0.00000000000E+00 -0.26091957957E+04  0.26091957957E+04  0.00000000000E+00 0. -1.
         21    1    1    2  503  505  0.39836702347E+02  0.69721445160E+02 -0.29531125673E+03  0.30603395420E+03  0.00000000000E+00 0.  1.
         21    1    1    2  504  503 -0.30826950157E+02  0.26349396659E+01 -0.28259100657E+03  0.28427965238E+03  0.00000000000E+00 0. -1.
         21    1    1    2  505  502  0.40142627780E+02  0.16792633017E+02 -0.72752930761E+02  0.84772708008E+02  0.00000000000E+00 0.  1.
          2    1    1    2  501    0 -0.49152379969E+02 -0.89149017843E+02 -0.19449938784E+04  0.19476562045E+04  0.00000000000E+00 0. -1.
<scales pt_clust_3="103.17359" pt_clust_4="30.93936" pt_clust_5="42.58759" pt_clust_6="14000.00000"></scales>
<clustering>
<clus scale="   30.939">  2  4  1 -1</clus>
<clus scale="   42.588">  1  5  2 -1</clus>
<clus scale="  103.174">  1  3  2 -1</clus>
<clus scale="   42.588">  1  3  2 -1</clus>
</clustering>
</event>
<event>
 6    0  0.1361744E+002  0.2610032E+03  0.7546771E-02  0.1106542E+00
         21   -1    0    0  503  502  0.00000000000E+00  0.00000000000E+00  0.35069414221E+03  0.35069414221E+03  0.00000000000E+00 0.  1.
          2   -1    0    0  505    0 -0.00000000000E+00 -0.00000000000E+00 -0.19312152887E+03  0.19312152887E+03  0.00000000000E+00 0. -1.
         21    1    1    2  503  501  0.16869826462E+03  0.55969559098E+02  0.15000373893E+02  0.17837238365E+03  0.00000000000E+00 0. -1.
         21    1    1    2  504  502 -0.10159982924E+03 -0.97869700260E+01  0.62176110614E+02  0.11951643742E+03  0.00000000000E+00 0. -1.
         21    1    1    2  505  504 -0.13566543198E+03 -0.76318282841E+02  0.39501908217E+02  0.16059262276E+03  0.00000000000E+00 0.  1.
          2    1    1    2  501    0  0.68566996597E+02  0.30135693768E+02  0.40894220615E+02  0.85334227254E+02  0.00000000000E+00 0. -1.
<scales pt_clust_3="33.78066" pt_clust_4="53.79805" pt_clust_5="53.79805" pt_clust_6="257.71490"></scales>
<clustering>
<clus scale="   33.781">  3  6 -1 -1</clus>
<clus scale="   53.798">  4  5 -1 -1</clus>
<clus scale="  257.715">  2  3  1 -1</clus>
<clus scale="  261.003">  1  3  2 -1</clus>
</clustering>
</event>
<event>
 6    0  0.1361744E+002  0.1240378E+03  0.7546771E-02  0.1236581E+00
         21   -1    0    0  505  502  0.00000000000E+00  0.00000000000E+00  0.24629004966E+03  0.24629004966E+03  0.00000000000E+00 0.  1.
          2   -1    0    0  503    0 -0.00000000000E+00 -0.00000000000E+00 -0.64538700972E+03  0.64538700972E+03  0.00000000000E+00 0. -1.
         21    1    1    2  503  504 -0.71405735956E+01  0.29480408364E+02 -0.99664701096E+02  0.10417838026E+03  0.00000000000E+00 0.  1.
         21    1    1    2  504  502 -0.42327507896E+02  0.14744554331E+02  0.38153434765E+02  0.58861739623E+02  0.00000000000E+00 0. -1.
         21    1    1    2  505  501 -0.34122051548E+02 -0.11459622279E+03  0.17088265285E+03  0.20856051813E+03  0.00000000000E+00 0.  1.
          2    1    1    2  501    0  0.83590133039E+02  0.70371260094E+02 -0.50846834658E+03  0.52007642137E+03  0.00000000000E+00 0. -1.
<scales pt_clust_3="30.33286" pt_clust_4="45.13794" pt_clust_5="124.03778" pt_clust_6="14000.00000"></scales>
<clustering>
<clus scale="   30.333">  2  3  1 -1</clus>
<clus scale="   45.138">  1  4  2 -1</clus>
<clus scale="  124.038">  1  5  2 -1</clus>
<clus scale="   45.138">  1  3  2 -1</clus>
</clustering>
</event>
<event>
 6    0  0.1361744E+002  0.1103282E+03  0.7546771E-02  0.1259963E+00
         21   -1    0    0  505  502  0.00000000000E+00  0.00000000000E+00  0.19028482097E+04  0.19028482097E+04  0.00000000000E+00 0. -1.
         -2   -1    0    0    0  501 -0.00000000000E+00 -0.00000000000E+00 -0.11565093638E+03  0.11565093638E+03  0.00000000000E+00 0. -1.
         21    1    1    2  503  502  0.66052735473E+02 -0.96788607564E+01  0.65831051648E+03  0.66168676903E+03  0.00000000000E+00 0. -1.
         21    1    1    2  504  501 -0.10280283958E+03  0.12346370322E+02 -0.92372614951E+01  0.10395279547E+03  0.00000000000E+00 0.  1.
         21    1    1    2  505  504 -0.71633209903E+02  0.64823762871E+02  0.11196973065E+04  0.11238574176E+04  0.00000000000E+00 0. -1.
         -2    1    1    2    0  503  0.10838331401E+03 -0.67491272436E+02  0.18426711922E+02  0.12900216402E+03  0.00000000000E+00 0. -1.
<scales pt_clust_3="66.75810" pt_clust_4="14000.00000" pt_clust_5="57.36025" pt_clust_6="110.32822"></scales>
<clustering>
<clus scale="   66.758">  1  3  2 -1</clus>
<clus scale="   57.360">  1  5  2 -1</clus>
<clus scale="  110.328">  1  6  2 -1</clus>
<clus scale="   66.758">  1  3  2 -1</clus>
</clustering>
</event>
<event>
 6    0  0.1361744E+002  0.1088050E+03  0.7546771E-02  0.1262799E+00
          2   -1    0    0  505    0 -0.00000000000E+00  0.00000000000E+00  0.10722679394E+03  0.10722679394E+03  0.00000000000E+00 0. -1.
         21   -1    0    0  503  502  0.00000000000E+00 -0.00000000000E+00 -0.12605756324E+04  0.12605756324E+04  0.00000000000E+00 0.  1.
         21    1    1    2  503  501 -0.83090595582E+02  0.27152641721E+02 -0.11229106763E+04  0.11263079952E+04  0.00000000000E+00 0.  1.
         21    1    1    2  504  502 -0.11514968063E+02  0.31819681600E+02 -0.80934074833E+02  0.87723492268E+02  0.00000000000E+00 0. -1.
         21    1    1    2  505  504  0.37317270147E+02  0.16361569601E+02 -0.93357189955E+01  0.41802335583E+02  0.00000000000E+00 0.  1.
          2    1    1    2  501    0  0.57288293498E+02 -0.75333892922E+02  0.59831631638E+02  0.11196860336E+03  0.00000000000E+00 0. -1.
<scales pt_clust_3="108.80496" pt_clust_4="33.83913" pt_clust_5="40.80163" pt_clust_6="14000.00000"></scales>
<clustering>
<clus scale="   33.839">  2  4  1 -1</clus>
<clus scale="   40.802">  1  5  2 -1</clus>
<clus scale="  108.805">  2  3  1 -1</clus>
<clus scale="   33.839">  2  3  1 -1</clus>
</clustering>
</event>
<event>
 6    0  0.1361744E+002  0.1233189E+03  0.7546771E-02  0.1237720E+00
         -2   -1    0    0    0  501 -0.00000000000E+00  0.00000000000E+00  0.44938753539E+03  0.44938753539E+03  0.00000000000E+00 0. -1.
         21   -1    0    0  503  502  0.00000000000E+00 -0.00000000000E+00 -0.28125853020E+03  0.28125853020E+03  0.00000000000E+00 0. -1.
         21    1    1    2  503  501  0.52852358704E+02 -0.35748242066E+02  0.16212466018E+02  0.65834281995E+02  0.00000000000E+00 0.  1.
         21    1    1    2  504  505  0.20731237726E+02  0.48229634167E+02  0.10947345581E+03  0.12140971690E+03  0.00000000000E+00 0. -1.
         21    1    1    2  505  502 -0.56957575544E+02 -0.98425439057E+02 -0.23035931390E+03  0.25689909686E+03  0.00000000000E+00 0. -1.
         -2    1    1    2    0  504 -0.16626020886E+02  0.85944046957E+02  0.27280239726E+03  0.28650296984E+03  0.00000000000E+00 0. -1.
<scales pt_clust_3="63.80681" pt_clust_4="36.63929" pt_clust_5="113.88178" pt_clust_6="36.63929"></scales>
<clustering>
<clus scale="   36.639">  4  6 -1 -1</clus>
<clus scale="   63.807">  1  3  2 -1</clus>
<clus scale="  113.882">  2  5  1 -1</clus>
<clus scale="  113.882">  2  3  1 -1</clus>
</clustering>
</event>
<event>
 6    0  0.1361744E+002  0.1239911E+03  0.7546771E-02  0.1236655E+00
          2   -1    0    0  505    0 -0.00000000000E+00  0.00000000000E+00  0.63227559578E+03  0.63227559578E+03  0.00000000000E+00 0. -1.
         21   -1    0    0  504  502  0.00000000000E+00 -0.00000000000E+00 -0.16101115524E+03  0.16101115524E+03  0.00000000000E+00 0.  1.
         21    1    1    2  503  502 -0.34067034817E+02  0.79432400706E+01 -0.13129304276E+01  0.35005452581E+02  0.00000000000E+00 0.  1.
         21    1    1    2  504  501 -0.95619370972E+02 -0.37548688630E+01 -0.10994911108E+03  0.14575997452E+03  0.00000000000E+00 0.  1.
         21    1    1    2  505  503  0.14160976501E+02 -0.40395655878E+02  0.32672214643E+03  0.32951434451E+03  0.00000000000E+00 0. -1.
          2    1    1    2  501    0  0.11552542929E+03  0.36207284671E+02  0.25580433562E+03  0.28300697941E+03  0.00000000000E+00 0. -1.
<scales pt_clust_3="34.98082" pt_clust_4="123.99109" pt_clust_5="42.62344" pt_clust_6="14000.00000"></scales>
<clustering>
<clus scale="   34.981">  2  3  1 -1</clus>
<clus scale="   42.623">  1  5  2 -1</clus>
<clus scale="  123.991">  2  4  1 -1</clus>
<clus scale="   34.981">  2  3  1 -1</clus>
</clustering>
</event>
<event>
 6    0  0.1361744E+002  0.1082902E+03  0.7546771E-02  0.1263769E+00
         21   -1    0    0  504  502  0.00000000000E+00  0.00000000000E+00  0.10728070994E+03  0.10728070994E+03  0.00000000000E+00 0. -1.
          1   -1    0    0  505    0 -0.00000000000E+00 -0.00000000000E+00 -0.86876076154E+03  0.86876076154E+03  0.00000000000E+00 0.  1.
         21    1    1    2  503  501  0.10698468102E+03  0.10518723762E+03 -0.68831965612E+01  0.15019139564E+03  0.00000000000E+00 0. -1.
         21    1    1    2  504  503 -0.30795430050E+01 -0.64811408939E+02 -0.12989776286E+02  0.66172022802E+02  0.00000000000E+00 0. -1.
         21    1    1    2  505  502 -0.39203396607E+02 -0.35532261552E+02 -0.86732354286E+02  0.10159699403E+03  0.00000000000E+00 0. -1.
          1    1    1    2  501    0 -0.64701741405E+02 -0.48435671286E+01 -0.65487472446E+03  0.65808105900E+03  0.00000000000E+00 0.  1.
<scales pt_clust_3="14000.00000" pt_clust_4="66.82066" pt_clust_5="52.90981" pt_clust_6="108.29019"></scales>
<clustering>
<clus scale="   52.910">  2  5  1 -1</clus>
<clus scale="   66.821">  1  4  2 -1</clus>
<clus scale="  108.290">  2  6  1 -1</clus>
<clus scale="   66.821">  1  3  2 -1</clus>
</clustering>
</event>
<event>
 6    0  0.1361744E+002  0.1414822E+03  0.7546771E-02  0.1211348E+00
         21   -1    0    0  501  502  0.00000000000E+00  0.00000000000E+00  0.67255123967E+02  0.67255123967E+02  0.00000000000E+00 0. -1.
          2   -1    0    0  505    0 -0.00000000000E+00 -0.00000000000E+00 -0.17318513105E+04  0.17318513105E+04  0.00000000000E+00 0. -1.
         21    1    1    2  503  502  0.50794320573E+02  0.16830114239E+02  0.16227884831E+02  0.55916544903E+02  0.00000000000E+00 0. -1.
         21    1    1    2  504  503  0.99901273443E+02  0.34244003251E+02 -0.81655216597E+02  0.13349341029E+03  0.00000000000E+00 0. -1.
         21    1    1    2  505  504 -0.11568377226E+03  0.37896512363E+01 -0.11549152487E+04  0.11607007919E+04  0.00000000000E+00 0. -1.
          2    1    1    2  501    0 -0.35011821760E+02 -0.54863768726E+02 -0.44425360612E+03  0.44899568743E+03  0.00000000000E+00 0. -1.
<scales pt_clust_3="53.50996" pt_clust_4="141.48225" pt_clust_5="14000.00000" pt_clust_6="61.98023"></scales>
<clustering>
<clus scale="   53.510">  1  3  2 -1</clus>
<clus scale="   61.980">  2  6  1 -1</clus>
<clus scale="  141.482">  1  4  2 -1</clus>
<clus scale="   53.510">  1  3  2 -1</clus>
</clustering>
</event>
<event>
 6    0  0.1361744E+002  0.1035301E+03  0.7546771E-02  0.1273043E+00
          2   -1    0    0  505    0 -0.00000000000E+00  0.00000000000E+00  0.66950171166E+03  0.66950171166E+03  0.00000000000E+00 0. -1.
         21   -1    0    0  503  502  0.00000000000E+00 -0.00000000000E+00 -0.17389760690E+03  0.17389760690E+03  0.00000000000E+00 0. -1.
         21    1    1    2  503  501 -0.12102463171E+02 -0.77522082017E+02 -0.69252005394E+02  0.10465172271E+03  0.00000000000E+00 0. -1.
         21    1    1    2  504  502  0.77001131663E+02 -0.11230764023E+02 -0.58198783093E+02  0.97172026280E+02  0.00000000000E+00 0. -1.
         21    1    1    2  505  504  0.16078915347E+02  0.25751886794E+02  0.43728050937E+02  0.53233764012E+02  0.00000000000E+00 0. -1.
          2    1    1    2  501    0 -0.80977583838E+02  0.63000959247E+02  0.57932684231E+03  0.58834180556E+03  0.00000000000E+00 0. -1.
<scales pt_clust_3="77.66597" pt_clust_4="14000.00000" pt_clust_5="30.35937" pt_clust_6="103.53008"></scales>
<clustering>
<clus scale="   30.359">  1  5  2 -1</clus>
<clus scale="   77.666">  2  3  1 -1</clus>
<clus scale="  103.530">  1  6  2 -1</clus>
<clus scale="   77.666">  2  3  1 -1</clus>
</clustering>
</event>
<event>
 6    0  0.1361744E+002  0.1243859E+03  0.7546771E-02  0.1236032E+00
         21   -1    0    0  505  502  0.00000000000E+00  0.00000000000E+00  0.70492856288E+03  0.70492856288E+03  0.00000000000E+00 0.  1.
         -4   -1    0    0    0  501 -0.00000000000E+00 -0.00000000000E+00 -0.71883109003E+03  0.71883109003E+03  0.00000000000E+00 0.  1.
         21    1    1    2  503  504  0.27493791365E+02 -0.91478980594E+02 -0.13305342186E+03  0.16379110331E+03  0.00000000000E+00 0. -1.
         21    1    1    2  504  502 -0.20014472344E+02  0.88337458480E+02  0.60801786913E+03  0.61472743135E+03  0.00000000000E+00 0.  1.
         21    1    1    2  505  501 -0.29723745889E+02  0.29604373948E+02  0.71989026247E+02  0.83320705268E+02  0.00000000000E+00 0. -1.
         -4    1    1    2    0  503  0.22244426868E+02 -0.26462851834E+02 -0.56085600066E+03  0.56192041298E+03  0.00000000000E+00 0.  1.
<scales pt_clust_3="14000.00000" pt_clust_4="124.38594" pt_clust_5="40.71234" pt_clust_6="34.57018"></scales>
<clustering>
<clus scale="   34.570">  2  6  1 -1</clus>
<clus scale="   40.712">  1  5  2 -1</clus>
<clus scale="  124.386">  1  4  2 -1</clus>
<clus scale="   40.712">  1  3  2 -1</clus>
</clustering>
</event>
<event>
 6    0  0.1361744E+002  0.1292188E+03  0.7546771E-02  0.1228620E+00
          2   -1    0    0  505    0 -0.00000000000E+00  0.00000000000E+00  0.22202527563E+03  0.22202527563E+03  0.00000000000E+00 0. -1.
         21   -1    0    0  504  502  0.00000000000E+00 -0.00000000000E+00 -0.22183584791E+04  0.22183584791E+04  0.00000000000E+00 0.  1.
         21    1    1    2  503  501  0.42796155459E+02  0.66043352984E+02 -0.38846732510E+02  0.87762771276E+02  0.00000000000E+00 0.  1.
         21    1    1    2  504  503 -0.12295707768E+02  0.41093819178E+02 -0.19997024103E+04  0.20001623975E+04  0.00000000000E+00 0.  1.
         21    1    1    2  505  502 -0.30520609655E+01  0.47856378948E+02 -0.11829629590E+03  0.12764623655E+03  0.00000000000E+00 0.  1.
          2    1    1    2  501    0 -0.27448386726E+02 -0.15499355111E+03  0.16051223522E+03  0.22481234947E+03  0.00000000000E+00 0. -1.
<scales pt_clust_3="14000.00000" pt_clust_4="42.89390" pt_clust_5="71.68899" pt_clust_6="129.21877"></scales>
<clustering>
<clus scale="   42.894">  2  4  1 -1</clus>
<clus scale="   71.689">  2  5  1 -1</clus>
<clus scale="  129.219">  1  6  2 -1</clus>
<clus scale="   42.894">  2  3  1 -1</clus>
</clustering>
</event>
<event>
 6    0  0.1361744E+002  0.1170371E+03  0.7546771E-02  0.1248066E+00
          1   -1    0    0  505    0 -0.00000000000E+00  0.00000000000E+00  0.12766099095E+04  0.12766099095E+04  0.00000000000E+00 0. -1.
         21   -1    0    0  504  502  0.00000000000E+00 -0.00000000000E+00 -0.31013243237E+02  0.31013243237E+02  0.00000000000E+00 0. -1.
         21    1    1    2  503  501  0.14040362387E+02  0.10084506447E+03  0.15497992884E+03  0.18543364621E+03  0.00000000000E+00 0. -1.
         21    1    1    2  504  503 -0.53428259586E+02 -0.31788445943E+01  0.11019160631E+03  0.12250254722E+03  0.00000000000E+00 0. -1.
         21    1    1    2  505  502  0.58573977307E+02  0.22534271244E+02  0.19403232618E+03  0.20392951675E+03  0.00000000000E+00 0. -1.
          1    1    1    2  501    0 -0.19186080109E+02 -0.12020049112E+03  0.78639280488E+03  0.79575744251E+03  0.00000000000E+00 0. -1.
<scales pt_clust_3="117.03712" pt_clust_4="53.52274" pt_clust_5="52.70383" pt_clust_6="14000.00000"></scales>
<clustering>
<clus scale="   53.523">  2  4  1 -1</clus>
<clus scale="   52.704">  2  5  1 -1</clus>
<clus scale="  117.037">  2  3  1 -1</clus>
<clus scale="   53.523">  2  3  1 -1</clus>
</clustering>
</event>
<event>
 6    0  0.1361744E+002  0.1519775E+03  0.7546771E-02  0.1198064E+00
         21   -1    0    0  501  502  0.00000000000E+00  0.00000000000E+00  0.12904522567E+04  0.12904522567E+04  0.00000000000E+00 0.  1.
         -1   -1    0    0    0  501 -0.00000000000E+00 -0.00000000000E+00 -0.34167638414E+02  0.34167638414E+02  0.00000000000E+00 0. -1.
         21    1    1    2  503  504  0.37337751944E+02 -0.20207850714E+02  0.48299524970E+02  0.64306368759E+02  0.00000000000E+00 0. -1.
         21    1    1    2  504  505 -0.41344819998E+02 -0.31772416513E+02  0.29490399196E+03  0.29947828814E+03  0.00000000000E+00 0.  1.
         21    1    1    2  505  502 -0.96057771269E+02  0.74676443315E+01  0.79092954996E+03  0.79677626354E+03  0.00000000000E+00 0.  1.
         -1    1    1    2    0  503  0.10006483932E+03  0.44512622895E+02  0.12215155140E+03  0.16405897469E+03  0.00000000000E+00 0. -1.
<scales pt_clust_3="37.49681" pt_clust_4="42.06384" pt_clust_5="150.79642" pt_clust_6="37.49681"></scales>
<clustering>
<clus scale="   37.497">  3  6 -1 -1</clus>
<clus scale="   42.064">  4  5 -1 -1</clus>
<clus scale="  150.796">  1  4  2 -1</clus>
<clus scale="  150.796">  1  3  2 -1</clus>
</clustering>
</event>
<event>
 6    0  0.1361744E+002  0.8715570E+02  0.7546771E-02  0.1309889E+00
         21   -1    0    0  504  502  0.00000000000E+00  0.00000000000E+00  0.16476711696E+02  0.16476711696E+02  0.00000000000E+00 0.  1.
          1   -1    0    0  503    0 -0.00000000000E+00 -0.00000000000E+00 -0.19628171770E+04  0.19628171770E+04  0.00000000000E+00 0.  1.
         21    1    1    2  503  505 -0.47090481159E+02  0.11048088481E+02 -0.11697831204E+04  0.11707826965E+04  0.00000000000E+00 0.  1.
         21    1    1    2  504  501  0.89900260706E+02  0.20772755630E+02 -0.19613200744E+03  0.21675176722E+03  0.00000000000E+00 0.  1.
         21    1    1    2  505  502  0.52307722550E+01  0.33647630499E+02 -0.16831210382E+03  0.17172212527E+03  0.00000000000E+00 0.  1.
          1    1    1    2  501    0 -0.48040551803E+02 -0.65468474611E+02 -0.41211323368E+03  0.42003729973E+03  0.00000000000E+00 0.  1.
<scales pt_clust_3="48.47049" pt_clust_4="14000.00000" pt_clust_5="34.05178" pt_clust_6="87.15570"></scales>
<clustering>
<clus scale="   34.052">  1  5  2 -1</clus>
<clus scale="   48.470">  2  3  1 -1</clus>
<clus scale="   87.156">  2  6  1 -1</clus>
<clus scale="   34.052">  1  3  2 -1</clus>
</clustering>
</event>
<event>
 6    0  0.1361744E+002  0.2418795E+03  0.7546771E-02  0.1118547E+00
         21   -1    0    0  504  502  0.00000000000E+00  0.00000000000E+00  0.17471371509E+04  0.17471371509E+04  0.00000000000E+00 0.  1.
          3   -1    0    0  503    0 -0.00000000000E+00 -0.00000000000E+00 -0.13816626841E+03  0.13816626841E+03  0.00000000000E+00 0. -1.
         21    1    1    2  503  502 -0.59384276449E+02 -0.50833241975E+01 -0.25847370462E+02  0.64964752244E+02  0.00000000000E+00 0. -1.
         21    1    1    2  504  505  0.62637050304E+02  0.65656815594E+02  0.47190526928E+03  0.48055051834E+03  0.00000000000E+00 0.  1.
         21    1    1    2  505  501  0.11221186640E+03  0.10299845380E+03  0.11259246696E+04  0.11361806838E+04  0.00000000000E+00 0.  1.
          3    1    1    2  501    0 -0.11546464025E+03 -0.16357194520E+03  0.36988314006E+02  0.20360746494E+03  0.00000000000E+00 0. -1.
<scales pt_clust_3="59.60145" pt_clust_4="32.21973" pt_clust_5="32.21973" pt_clust_6="238.25024"></scales>
<clustering>
<clus scale="   32.220">  4  5 -1 -1</clus>
<clus scale="   59.601">  2  3  1 -1</clus>
<clus scale="  238.250">  2  6  1 -1</clus>
<clus scale="  241.880">  1  3  2 -1</clus>
</clustering>
</event>
<event>
 6    0  0.1361744E+002  0.4301193E+03  0.7546771E-02  0.1033822E+00
         21   -1    0    0  504  502  0.00000000000E+00  0.00000000000E+00  0.28225400189E+03  0.28225400189E+03  0.00000000000E+00 0. -1.
          2   -1    0    0  503    0 -0.00000000000E+00 -0.00000000000E+00 -0.21225040167E+04  0.21225040167E+04  0.00000000000E+00 0.  1.
         21    1    1    2  503  505 -0.73925248546E+02 -0.12877905466E+03 -0.21293620920E+01  0.14850428100E+03  0.00000000000E+00 0. -1.
         21    1    1    2  504  501  0.61470567282E+02  0.17537539393E+03 -0.70941963344E+03  0.73335624069E+03  0.00000000000E+00 0.  1.
         21    1    1    2  505  502 -0.98257999560E+02 -0.25910746330E+03  0.81779554492E+02  0.28892768568E+03  0.00000000000E+00 0. -1.
          2    1    1    2  501    0  0.11071268082E+03  0.21251112404E+03 -0.12104805737E+04  0.12339698112E+04  0.00000000000E+00 0.  1.
<scales pt_clust_3="51.23860" pt_clust_4="57.42457" pt_clust_5="51.23860" pt_clust_6="429.36580"></scales>
<clustering>
<clus scale="   51.239">  3  5 -1 -1</clus>
<clus scale="   57.425">  4  6 -1 -1</clus>
<clus scale="  429.366">  2  4  1 -1</clus>
<clus scale="  430.119">  1  3  2 -1</clus>
</clustering>
</event>
<event>
 6    0  0.1361744E+002  0.7794280E+02  0.7546771E-02  0.1334993E+00
          2   -1    0    0  505    0 -0.00000000000E+00  0.00000000000E+00  0.35424615204E+03  0.35424615204E+03  0.00000000000E+00 0. -1.
         21   -1    0    0  503  502  0.00000000000E+00 -0.00000000000E+00 -0.11645604469E+03  0.11645604469E+03  0.00000000000E+00 0. -1.
         21    1    1    2  503  504  0.38094980065E+02 -0.12405447749E+02 -0.20479136060E+02  0.44994640278E+02  0.00000000000E+00 0. -1.
         21    1    1    2  504  501  0.70949026227E+02  0.37295023057E+02  0.41971827282E+02  0.90478270058E+02  0.00000000000E+00 0. -1.
         21    1    1    2  505  502 -0.31696220172E+02 -0.58311058546E+02 -0.31524161726E+02  0.73475184209E+02  0.00000000000E+00 0. -1.
          2    1    1    2  501    0 -0.77347786119E+02  0.33421483238E+02  0.24782157786E+03  0.26175410219E+03  0.00000000000E+00 0. -1.
<scales pt_clust_3="40.06398" pt_clust_4="77.94280" pt_clust_5="66.54995" pt_clust_6="14000.00000"></scales>
<clustering>
<clus scale="   40.064">  2  3  1 -1</clus>
<clus scale="   66.550">  2  5  1 -1</clus>
<clus scale="   77.943">  2  4  1 -1</clus>
<clus scale="   40.064">  2  3  1 -1</clus>
</clustering>
</event>
<event>
 6    0  0.1361744E+002  0.8554455E+02  0.7546771E-02  0.1314015E+00
         -2   -1    0    0    0  501 -0.00000000000E+00  0.00000000000E+00  0.17942145337E+04  0.17942145337E+04  0.00000000000E+00 0. -1.
         21   -1    0    0  503  502  0.00000000000E+00 -0.00000000000E+00 -0.10328878539E+03  0.10328878539E+03  0.00000000000E+00 0. -1.
         21    1    1    2  503  504 -0.24317841401E+02  0.20893714326E+02  0.19885932595E+02  0.37727377644E+02  0.00000000000E+00 0. -1.
         21    1    1    2  504  501  0.12224663184E+02 -0.12108587458E+03  0.12193268260E+04  0.12253853027E+04  0.00000000000E+00 0. -1.
         21    1    1    2  505  502  0.13856033312E+01  0.61173247147E+02 -0.80235808587E+02  0.10090525776E+03  0.00000000000E+00 0. -1.
         -2    1    1    2    0  505  0.10707574886E+02  0.39018913104E+02  0.53194879824E+03  0.53348538095E+03  0.00000000000E+00 0. -1.
<scales pt_clust_3="32.06095" pt_clust_4="14000.00000" pt_clust_5="85.54455" pt_clust_6="40.57377"></scales>
<clustering>
<clus scale="   32.061">  2  3  1 -1</clus>
<clus scale="   40.574">  1  6  2 -1</clus>
<clus scale="   85.545">  2  5  1 -1</clus>
<clus scale="   32.061">  2  3  1 -1</clus>
</clustering>
</event>
<event>
 6    0  0.1361744E+002  0.1960268E+03  0.7546771E-02  0.1153135E+00
          2   -1    0    0  504    0 -0.00000000000E+00  0.00000000000E+00  0.11698234165E+04  0.11698234165E+04  0.00000000000E+00 0.  1.
         21   -1    0    0  503  502  0.00000000000E+00 -0.00000000000E+00 -0.15763161639E+03  0.15763161639E+03  0.00000000000E+00 0.  1.
         21    1    1    2  503  501  0.24940648811E+02 -0.54667601102E+02  0.38441014890E+02  0.71332280204E+02  0.00000000000E+00 0. -1.
         21    1    1    2  504  505 -0.55640761065E+02 -0.36366294791E+01  0.18791338935E+03  0.19601163552E+03  0.00000000000E+00 0. -1.
         21    1    1    2  505  502  0.97470657740E+01 -0.14529573464E+03 -0.82915519651E+02  0.16757338450E+03  0.00000000000E+00 0.  1.
          2    1    1    2  501    0  0.20953046479E+02  0.20359996522E+03  0.86875291553E+03  0.89253773266E+03  0.00000000000E+00 0.  1.
<scales pt_clust_3="59.05008" pt_clust_4="55.75948" pt_clust_5="196.02676" pt_clust_6="14000.00000"></scales>
<clustering>
<clus scale="   55.759">  1  4  2 -1</clus>
<clus scale="   59.050">  2  3  1 -1</clus>
<clus scale="  196.027">  2  5  1 -1</clus>
<clus scale="   59.050">  2  3  1 -1</clus>
</clustering>
</event>
<event>
 6    0  0.1361744E+002  0.1766795E+03  0.7546771E-02  0.1171056E+00
         21   -1    0    0  504  502  0.00000000000E+00  0.00000000000E+00  0.23269273727E+03  0.23269273727E+03  0.00000000000E+00 0. -1.
          2   -1    0    0  502    0 -0.00000000000E+00 -0.00000000000E+00 -0.13345296291E+04  0.13345296291E+04  0.00000000000E+00 0. -1.
         21    1    1    2  503  505 -0.77328185174E+02 -0.69438885010E+02  0.89533710623E+02  0.13717759406E+03  0.00000000000E+00 0. -1.
         21    1    1    2  504  503 -0.25263094503E+02 -0.66687116714E+02  0.10096369535E+03  0.12360850803E+03  0.00000000000E+00 0. -1.
         21    1    1    2  505  501  0.47746977848E+02  0.12151311132E+03 -0.10142943404E+04  0.10226623192E+04  0.00000000000E+00 0. -1.
          2    1    1    2  501    0  0.54844301829E+02  0.14612890399E+02 -0.27803995740E+03  0.28377394511E+03  0.00000000000E+00 0. -1.
<scales pt_clust_3="42.76113" pt_clust_4="42.76113" pt_clust_5="168.96978" pt_clust_6="56.75768"></scales>
<clustering>
<clus scale="   42.761">  3  4 -1 -1</clus>
<clus scale="   56.758">  2  6  1 -1</clus>
<clus scale="  168.970">  2  5  1 -1</clus>
<clus scale="  176.680">  1  3  2 -1</clus>
</clustering>
</event>
<event>
 6    0  0.1361744E+002  0.1547645E+03  0.7546771E-02  0.1194738E+00
          2   -1    0    0  504    0 -0.00000000000E+00  0.00000000000E+00  0.19945942676E+03  0.19945942676E+03  0.00000000000E+00 0. -1.
         21   -1    0    0  501  502  0.00000000000E+00 -0.00000000000E+00 -0.94776923766E+03  0.94776923766E+03  0.00000000000E+00 0. -1.
         21    1    1    2  503  502 -0.15802534419E+02 -0.44731079177E+02 -0.34239237199E+03  0.34566331298E+03  0.00000000000E+00 0. -1.
         21    1    1    2  504  505  0.16571929368E+03  0.40629038581E+01 -0.22561185846E+02  0.16729733588E+03  0.00000000000E+00 0.  1.
         21    1    1    2  505  503 -0.81111867770E+02 -0.68901650330E+02 -0.46780921275E+03  0.47976247461E+03  0.00000000000E+00 0. -1.
          2    1    1    2  501    0 -0.68804891494E+02  0.10956982565E+03  0.84452959691E+02  0.15450554096E+03  0.00000000000E+00 0. -1.
<scales pt_clust_3="34.01958" pt_clust_4="146.13599" pt_clust_5="34.01958" pt_clust_6="129.38184"></scales>
<clustering>
<clus scale="   34.020">  3  5 -1 -1</clus>
<clus scale="  129.382">  1  6  2 -1</clus>
<clus scale="  146.136">  1  4  2 -1</clus>
<clus scale="  154.765">  2  3  1 -1</clus>
</clustering>
</event>
<event>
 6    0  0.1361744E+002  0.1039211E+03  0.7546771E-02  0.1272260E+00
          2   -1    0    0  502    0 -0.00000000000E+00  0.00000000000E+00  0.31267419394E+04  0.31267419394E+04  0.00000000000E+00 0.  1.
         21   -1    0    0  504  502  0.00000000000E+00 -0.00000000000E+00 -0.26065417761E+02  0.26065417761E+02  0.00000000000E+00 0.  1.
         21    1    1    2  503  501 -0.73760471301E+02  0.64904444950E+01  0.14722698215E+03  0.16479841403E+03  0.00000000000E+00 0.  1.
         21    1    1    2  504  505  0.57924708193E+02 -0.67629505090E+02  0.32731658983E+03  0.33921257605E+03  0.00000000000E+00 0.  1.
         21    1    1    2  505  503 -0.37341698837E+02 -0.13474008003E+02  0.26910752982E+02  0.47959774705E+02  0.00000000000E+00 0.  1.
          2    1    1    2  501    0  0.53177461945E+02  0.74613068598E+02  0.25992221967E+04  0.26008365924E+04  0.00000000000E+00 0.  1.
<scales pt_clust_3="36.97220" pt_clust_4="89.04505" pt_clust_5="36.97220" pt_clust_6="90.82934"></scales>
<clustering>
<clus scale="   36.972">  3  5 -1 -1</clus>
<clus scale="   89.045">  2  4  1 -1</clus>
<clus scale="   90.829">  1  6  2 -1</clus>
<clus scale="   89.045">  2  3  1 -1</clus>
</clustering>
</event>
<event>
 6    0  0.1361744E+002  0.1776546E+03  0.7546771E-02  0.1170092E+00
         -1   -1    0    0    0  501 -0.00000000000E+00  0.00000000000E+00  0.13613894129E+04  0.13613894129E+04  0.00000000000E+00 0.  1.
         21   -1    0    0  504  502  0.00000000000E+00 -0.00000000000E+00 -0.89333859924E+03  0.89333859924E+03  0.00000000000E+00 0. -1.
         21    1    1    2  503  502 -0.56420356119E+02  0.50423172587E+02 -0.59724349694E+01  0.75904037428E+02  0.00000000000E+00 0. -1.
         21    1    1    2  504  505 -0.12041595642E+03 -0.18775838262E+02 -0.83793385261E+03  0.84675006703E+03  0.00000000000E+00 0. -1.
         21    1    1    2  505  501  0.13718002839E+03 -0.83717913519E+02  0.10404906177E+04  0.10528284640E+04  0.00000000000E+00 0.  1.
         -1    1    1    2    0  503  0.39656284156E+02  0.52070579194E+02  0.27146648358E+03  0.27924544365E+03  0.00000000000E+00 0.  1.
<scales pt_clust_3="75.86295" pt_clust_4="14000.00000" pt_clust_5="177.65456" pt_clust_6="65.45201"></scales>
<clustering>
<clus scale="   65.452">  1  6  2 -1</clus>
<clus scale="   75.863">  2  3  1 -1</clus>
<clus scale="  177.655">  1  5  2 -1</clus>
<clus scale="   75.863">  2  3  1 -1</clus>
</clustering>
</event>
<event>
 6    0  0.1361744E+002  0.1024895E+03  0.7546771E-02  0.1275146E+00
         21   -1    0    0  504  502  0.00000000000E+00  0.00000000000E+00  0.20946875569E+03  0.20946875569E+03  0.00000000000E+00 0.  1.
          1   -1    0    0  503    0 -0.00000000000E+00 -0.00000000000E+00 -0.44456849536E+03  0.44456849536E+03  0.00000000000E+00 0. -1.
         21    1    1    2  503  505  0.57628834549E+02 -0.26819107646E+01 -0.14716500673E+03  0.15806901791E+03  0.00000000000E+00 0. -1.
         21    1    1    2  504  501 -0.14000516458E+03  0.19664645089E+02  0.13002307288E+03  0.19207848358E+03  0.00000000000E+00 0.  1.
         21    1    1    2  505  502  0.56594204377E+02  0.56205575898E+02 -0.81320544641E+01  0.80175439138E+02  0.00000000000E+00 0.  1.
          1    1    1    2  501    0  0.25782125650E+02 -0.73188310222E+02 -0.20982575136E+03  0.22371431042E+03  0.00000000000E+00 0. -1.
<scales pt_clust_3="57.69121" pt_clust_4="102.48954" pt_clust_5="85.90114" pt_clust_6="14000.00000"></scales>
<clustering>
<clus scale="   57.691">  2  3  1 -1</clus>
<clus scale="   85.901">  1  5  2 -1</clus>
<clus scale="  102.490">  1  4  2 -1</clus>
<clus scale="   85.901">  1  3  2 -1</clus>
</clustering>
</event>
<event>
 6    0  0.1361744E+002  0.2916088E+03  0.7546771E-02  0.1089512E+00
         21   -1    0    0  505  502  0.00000000000E+00  0.00000000000E+00  0.41713225239E+03  0.41713225239E+03  0.00000000000E+00 0. -1.
          1   -1    0    0  502    0 -0.00000000000E+00 -0.00000000000E+00 -0.30390527140E+03  0.30390527140E+03  0.00000000000E+00 0. -1.
         21    1    1    2  503  501  0.43808057810E+02  0.19267961850E+03 -0.60462066342E+02  0.20664037064E+03  0.00000000000E+00 0. -1.
         21    1    1    2  504  503  0.15016620504E+02 -0.25970349549E+03  0.19741916171E+03  0.32656657801E+03  0.00000000000E+00 0. -1.
         21    1    1    2  505  504 -0.33094591321E+02 -0.23607159255E+02  0.52670091329E+02  0.66533363536E+02  0.00000000000E+00 0. -1.
          1    1    1    2  501    0 -0.25730086994E+02  0.90631036253E+02 -0.76400205713E+02  0.12129721160E+03  0.00000000000E+00 0. -1.
<scales pt_clust_3="63.31759" pt_clust_4="277.15635" pt_clust_5="40.65157" pt_clust_6="63.31759"></scales>
<clustering>
<clus scale="   40.652">  1  5  2 -1</clus>
<clus scale="   63.318">  3  6 -1 -1</clus>
<clus scale="  277.156">  1  4  2 -1</clus>
<clus scale="   40.652">  1  3  2 -1</clus>
</clustering>
</event>
<event>
 6    0  0.1361744E+002  0.7135364E+02  0.7546771E-02  0.1355550E+00
         -1   -1    0    0    0  501 -0.00000000000E+00  0.00000000000E+00  0.72822141130E+03  0.72822141130E+03  0.00000000000E+00 0.  1.
         21   -1    0    0  503  502  0.00000000000E+00 -0.00000000000E+00 -0.12829325301E+03  0.12829325301E+03  0.00000000000E+00 0.  1.
         21    1    1    2  503  505  0.15958408536E+02  0.64986661362E+02 -0.65338645673E+02  0.93525801661E+02  0.00000000000E+00 0.  1.
         21    1    1    2  504  501  0.13283818786E+02 -0.41819225200E+02  0.51854969976E+03  0.52040282336E+03  0.00000000000E+00 0.  1.
         21    1    1    2  505  504 -0.29067788168E+01 -0.88233652993E+02  0.99278788602E+01  0.88837996726E+02  0.00000000000E+00 0.  1.
         -1    1    1    2    0  502 -0.26335448506E+02  0.65066216831E+02  0.13678922535E+03  0.15374804257E+03  0.00000000000E+00 0.  1.
<scales pt_clust_3="71.35364" pt_clust_4="43.87833" pt_clust_5="14000.00000" pt_clust_6="39.81818"></scales>
<clustering>
<clus scale="   43.878">  1  4  2 -1</clus>
<clus scale="   39.818">  1  6  2 -1</clus>
<clus scale="   71.354">  2  3  1 -1</clus>
<clus scale="   71.354">  2  3  1 -1</clus>
</clustering>
</event>
<event>
 6    0  0.1361744E+002  0.1497492E+03  0.7546771E-02  0.1200781E+00
          2   -1    0    0  503    0 -0.00000000000E+00  0.00000000000E+00  0.29606883770E+04  0.29606883770E+04  0.00000000000E+00 0. -1.
         21   -1    0    0  505  502  0.00000000000E+00 -0.00000000000E+00 -0.27199868323E+03  0.27199868323E+03  0.00000000000E+00 0.  1.
         21    1    1    2  503  504 -0.12413101604E+03 -0.18265234221E+03  0.15969034258E+04  0.16121014046E+04  0.00000000000E+00 0. -1.
         21    1    1    2  504  502  0.54546228719E+02 -0.32242940310E+02 -0.62916690026E+02  0.89293942410E+02  0.00000000000E+00 0.  1.
         21    1    1    2  505  501  0.48368305018E+02  0.13913223906E+03 -0.15812768348E+03  0.21610561575E+03  0.00000000000E+00 0.  1.
          2    1    1    2  501    0  0.21216482302E+02  0.75763043465E+02  0.13128306415E+04  0.13151860975E+04  0.00000000000E+00 0. -1.
<scales pt_clust_3="149.74922" pt_clust_4="63.36322" pt_clust_5="14000.00000" pt_clust_6="78.58031"></scales>
<clustering>
<clus scale="   63.363">  2  4  1 -1</clus>
<clus scale="   78.580">  1  6  2 -1</clus>
<clus scale="  149.749">  1  3  2 -1</clus>
<clus scale="   63.363">  2  3  1 -1</clus>
</clustering>
</event>
<event>
 6    0  0.1361744E+002  0.8958151E+02  0.7546771E-02  0.1303868E+00
         21   -1    0    0  503  502  0.00000000000E+00  0.00000000000E+00  0.16669280013E+03  0.16669280013E+03  0.00000000000E+00 0.  1.
          2   -1    0    0  504    0 -0.00000000000E+00 -0.00000000000E+00 -0.14763025841E+04  0.14763025841E+04  0.00000000000E+00 0.  1.
         21    1    1    2  503  501 -0.29153836259E+02 -0.43179931450E+02  0.49269560546E+02  0.71707337456E+02  0.00000000000E+00 0.  1.
         21    1    1    2  504  505  0.82159507235E+02 -0.17945546628E+02 -0.10102269862E+04  0.10137212590E+04  0.00000000000E+00 0.  1.
         21    1    1    2  505  502  0.48479505868E+02 -0.12943712023E+02  0.89036402255E+02  0.10220216777E+03  0.00000000000E+00 0.  1.
          2    1    1    2  501    0 -0.10148517684E+03  0.74069190101E+02 -0.43768876056E+03  0.45536462001E+03  0.00000000000E+00 0.  1.
<scales pt_clust_3="55.53145" pt_clust_4="89.58151" pt_clust_5="50.17771" pt_clust_6="14000.00000"></scales>
<clustering>
<clus scale="   50.178">  1  5  2 -1</clus>
<clus scale="   55.531">  1  3  2 -1</clus>
<clus scale="   89.582">  2  4  1 -1</clus>
<clus scale="   50.178">  1  3  2 -1</clus>
</clustering>
</event>
<event>
 6    0  0.1361744E+002  0.2827790E+03  0.7546771E-02  0.1094181E+00
         21   -1    0    0  503  502  0.00000000000E+00  0.00000000000E+00  0.44011400771E+03  0.44011400771E+03  0.00000000000E+00 0. -1.
          2   -1    0    0  505    0 -0.00000000000E+00 -0.00000000000E+00 -0.61738392859E+03  0.61738392859E+03  0.00000000000E+00 0. -1.
         21    1    1    2  503  504  0.14270618174E+03 -0.11229944572E+03  0.25239768304E+03  0.31093537949E+03  0.00000000000E+00 0. -1.
         21    1    1    2  504  501 -0.29968995804E+02  0.10301782040E+03 -0.10972207052E+03  0.15345926101E+03  0.00000000000E+00 0.  1.
         21    1    1    2  505  502 -0.15865568267E+02 -0.13369289232E+03  0.80599149177E+02  0.15691312425E+03  0.00000000000E+00 0. -1.
          2    1    1    2  501    0 -0.96871617670E+02  0.14297451764E+03 -0.40054468259E+03  0.43619017155E+03  0.00000000000E+00 0. -1.
<scales pt_clust_3="263.15479" pt_clust_4="81.58203" pt_clust_5="134.63100" pt_clust_6="81.58203"></scales>
<clustering>
<clus scale="   81.582">  4  6 -1 -1</clus>
<clus scale="  134.631">  1  5  2 -1</clus>
<clus scale="  263.155">  1  3  2 -1</clus>
<clus scale="  134.631">  1  3  2 -1</clus>
</clustering>
</event>
<event>
 6    0  0.1361744E+002  0.8171280E+02  0.7546771E-02  0.1324260E+00
         21   -1    0    0  504  502  0.00000000000E+00  0.00000000000E+00  0.75978779201E+02  0.75978779201E+02  0.00000000000E+00 0.  1.
          2   -1    0    0  503    0 -0.00000000000E+00 -0.00000000000E+00 -0.16243414301E+04  0.16243414301E+04  0.00000000000E+00 0.  1.
         21    1    1    2  503  502  0.68716110349E+02  0.42964362392E+02  0.35118885238E+02  0.88324268226E+02  0.00000000000E+00 0.  1.
         21    1    1    2  504  505 -0.28163847088E+02 -0.25100673791E+02 -0.41310331292E+02  0.55944522332E+02  0.00000000000E+00 0. -1.
         21    1    1    2  505  501  0.48437898163E+02 -0.27058765455E+02 -0.13388221224E+03  0.14492361271E+03  0.00000000000E+00 0. -1.
          2    1    1    2  501    0 -0.88990161424E+02  0.91950768543E+01 -0.14082889926E+04  0.14111278060E+04  0.00000000000E+00 0.  1.
<scales pt_clust_3="47.95480" pt_clust_4="37.72593" pt_clust_5="14000.00000" pt_clust_6="81.71280"></scales>
<clustering>
<clus scale="   37.726">  1  4  2 -1</clus>
<clus scale="   47.955">  1  3  2 -1</clus>
<clus scale="   81.713">  2  6  1 -1</clus>
<clus scale="   37.726">  1  3  2 -1</clus>
</clustering>
</event>
<event>
 6    0  0.1361744E+002  0.1925578E+03  0.7546771E-02  0.1156174E+00
         -1   -1    0    0    0  501 -0.00000000000E+00  0.00000000000E+00  0.19422916860E+02  0.19422916860E+02  0.00000000000E+00 0. -1.
         21   -1    0    0  505  502  0.00000000000E+00 -0.00000000000E+00 -0.18269619948E+04  0.18269619948E+04  0.00000000000E+00 0. -1.
         21    1    1    2  503  502  0.92140739619E+02  0.72883658760E+02 -0.64907331376E+03  0.65961967090E+03  0.00000000000E+00 0. -1.
         21    1    1    2  504  501 -0.68449142163E+02 -0.61702522072E+02 -0.39466267456E+03  0.40527905569E+03  0.00000000000E+00 0. -1.
         21    1    1    2  505  504 -0.32809005820E+02 -0.84897567970E+02 -0.42473797936E+03  0.43438045423E+03  0.00000000000E+00 0.  1.
         -1    1    1    2    0  503  0.91174083638E+01  0.73716431283E+02 -0.33906511031E+03  0.34710573088E+03  0.00000000000E+00 0. -1.
<scales pt_clust_3="58.07100" pt_clust_4="183.33211" pt_clust_5="42.92808" pt_clust_6="58.07100"></scales>
<clustering>
<clus scale="   42.928">  4  5 -1 -1</clus>
<clus scale="   58.071">  3  6 -1 -1</clus>
<clus scale="  183.332">  1  4  2 -1</clus>
<clus scale="  192.558">  2  3  1 -1</clus>
</clustering>
</event>
<event>
 6    0  0.1361744E+002  0.1077292E+03  0.7546771E-02  0.1264834E+00
          2   -1    0    0  505    0 -0.00000000000E+00  0.00000000000E+00  0.94478115483E+03  0.94478115483E+03  0.00000000000E+00 0.  1.
         21   -1    0    0  503  502  0.00000000000E+00 -0.00000000000E+00 -0.19024582393E+03  0.19024582393E+03  0.00000000000E+00 0.  1.
         21    1    1    2  503  501  0.64208480429E+02 -0.15670613853E+02 -0.10280019940E+03  0.12221365756E+03  0.00000000000E+00 0.  1.
         21    1    1    2  504  502  0.41974145703E+02  0.43820101390E+02 -0.32333269955E+02  0.68756603605E+02  0.00000000000E+00 0.  1.
         21    1    1    2  505  504 -0.16538839797E+03 -0.10477249914E+03  0.40537363834E+03  0.45017594941E+03  0.00000000000E+00 0.  1.
          2    1    1    2  501    0  0.59205771843E+02  0.76623011600E+02  0.48429516192E+03  0.49388076819E+03  0.00000000000E+00 0.  1.
<scales pt_clust_3="107.72915" pt_clust_4="60.67973" pt_clust_5="14000.00000" pt_clust_6="98.90219"></scales>
<clustering>
<clus scale="   60.680">  2  4  1 -1</clus>
<clus scale="   98.902">  1  6  2 -1</clus>
<clus scale="  107.729">  2  3  1 -1</clus>
<clus scale="   60.680">  2  3  1 -1</clus>
</clustering>
</event>
<event>
 6    0  0.1361744E+002  0.1449469E+03  0.7546771E-02  0.1206823E+00
         -3   -1    0    0    0  501 -0.00000000000E+00  0.00000000000E+00  0.23113383971E+03  0.23113383971E+03  0.00000000000E+00 0.  1.
         21   -1    0    0  501  502  0.00000000000E+00 -0.00000000000E+00 -0.28790236379E+03  0.28790236379E+03  0.00000000000E+00 0. -1.
         21    1    1    2  503  502 -0.22584590150E+02 -0.26095348070E+02 -0.11281470449E+03  0.11797537223E+03  0.00000000000E+00 0. -1.
         21    1    1    2  504  505  0.61138696392E+02  0.44133943184E+02  0.12689421258E+03  0.14760720281E+03  0.00000000000E+00 0. -1.
         21    1    1    2  505  503 -0.95856264573E+02 -0.33816278060E+02 -0.13304140675E+03  0.16742753665E+03  0.00000000000E+00 0. -1.
         -3    1    1    2    0  504  0.57302158331E+02  0.15777682947E+02  0.62193374584E+02  0.86026091802E+02  0.00000000000E+00 0.  1.
<scales pt_clust_3="33.93595" pt_clust_4="30.91794" pt_clust_5="33.93595" pt_clust_6="137.22391"></scales>
<clustering>
<clus scale="   30.918">  4  6 -1 -1</clus>
<clus scale="   33.936">  3  5 -1 -1</clus>
<clus scale="  137.224">  1  4  2 -1</clus>
<clus scale="  144.947">  2  3  1 -1</clus>
</clustering>
</event>
<event>
 6    0  0.1361744E+002  0.2681156E+03  0.7546771E-02  0.1102363E+00
          1   -1    0    0  502    0 -0.00000000000E+00  0.00000000000E+00  0.43541580361E+03  0.43541580361E+03  0.00000000000E+00 0. -1.
         21   -1    0    0  504  502  0.00000000000E+00 -0.00000000000E+00 -0.51291218462E+03  0.51291218462E+03  0.00000000000E+00 0. -1.
         21    1    1    2  503  501 -0.69080335890E+02  0.74886855674E+02  0.13459496857E+03  0.16880740364E+03  0.00000000000E+00 0. -1.
         21    1    1    2  504  505  0.19861184582E+03 -0.11802388880E+03 -0.38541833860E+03  0.44935909845E+03  0.00000000000E+00 0. -1.
         21    1    1    2  505  503  0.45195969298E+01 -0.36150761353E+02 -0.47546593850E+02  0.59899773702E+02  0.00000000000E+00 0.  1.
          1    1    1    2  501    0 -0.13405110686E+03  0.79287794483E+02  0.22087358286E+03  0.27026171244E+03  0.00000000000E+00 0. -1.
<scales pt_clust_3="30.17177" pt_clust_4="32.87532" pt_clust_5="32.87532" pt_clust_6="257.72815"></scales>
<clustering>
<clus scale="   30.172">  3  6 -1 -1</clus>
<clus scale="   32.875">  4  5 -1 -1</clus>
<clus scale="  257.728">  1  3  2 -1</clus>
<clus scale="  268.116">  2  3  1 -1</clus>
</clustering>
</event>
<event>
 6    0  0.1361744E+002  0.1981250E+03  0.7546771E-02  0.1151331E+00
         21   -1    0    0  501  502  0.00000000000E+00  0.00000000000E+00  0.10568044597E+03  0.10568044597E+03  0.00000000000E+00 0.  1.
         -4   -1    0    0    0  501 -0.00000000000E+00 -0.00000000000E+00 -0.96195441552E+03  0.96195441552E+03  0.00000000000E+00 0.  1.
         21    1    1    2  503  504 -0.96762088721E+02 -0.37952367166E+02 -0.29787420448E+02  0.10812295965E+03  0.00000000000E+00 0.  1.
         21    1    1    2  504  502 -0.83204842566E+02 -0.59088051321E+01  0.23563122157E+02  0.86678604801E+02  0.00000000000E+00 0. -1.
         21    1    1    2  505  503  0.47553418778E+02 -0.12852744782E+02 -0.31062085614E+03  0.31450252297E+03  0.00000000000E+00 0.  1.
         -4    1    1    2    0  505  0.13241351251E+03  0.56713917080E+02 -0.53942881512E+03  0.55833077406E+03  0.00000000000E+00 0.  1.
<scales pt_clust_3="194.70210" pt_clust_4="53.72820" pt_clust_5="41.10809" pt_clust_6="41.10809"></scales>
<clustering>
<clus scale="   41.108">  5  6 -1 -1</clus>
<clus scale="   53.728">  3  4 -1 -1</clus>
<clus scale="  194.702">  1  3  2 -1</clus>
<clus scale="  194.702">  1  3  2 -1</clus>
</clustering>
</event>
<event>
 6    0  0.1361744E+002  0.1517812E+03  0.7546771E-02  0.1198301E+00
          2   -1    0    0  504    0 -0.00000000000E+00  0.00000000000E+00  0.19847918277E+04  0.19847918277E+04  0.00000000000E+00 0. -1.
         21   -1    0    0  503  502  0.00000000000E+00 -0.00000000000E+00 -0.21668528227E+02  0.21668528227E+02  0.00000000000E+00 0. -1.
         21    1    1    2  503  501  0.39624669423E+01 -0.86931488939E+02  0.75678070504E+03  0.76176756326E+03  0.00000000000E+00 0. -1.
         21    1    1    2  504  505 -0.10830625386E+02  0.79502679737E+02  0.20304189022E+03  0.21832083665E+03  0.00000000000E+00 0. -1.
         21    1    1    2  505  502 -0.17064885754E+02  0.61020686397E+02  0.84090452121E+02  0.10528978408E+03  0.00000000000E+00 0. -1.
          2    1    1    2  501    0  0.23933044198E+02 -0.53591877195E+02  0.91921025206E+03  0.92108217191E+03  0.00000000000E+00 0. -1.
<scales pt_clust_3="41.16598" pt_clust_4="149.26102" pt_clust_5="37.21571" pt_clust_6="41.16598"></scales>
<clustering>
<clus scale="   37.216">  4  5 -1 -1</clus>
<clus scale="   41.166">  3  6 -1 -1</clus>
<clus scale="  149.261">  2  4  1 -1</clus>
<clus scale="  149.261">  2  3  1 -1</clus>
</clustering>
</event>
<event>
 6    0  0.1361744E+002  0.1059560E+03  0.7546771E-02  0.1268247E+00
          2   -1    0    0  504    0 -0.00000000000E+00  0.00000000000E+00  0.60895197912E+02  0.60895197912E+02  0.00000000000E+00 0.  1.
         21   -1    0    0  501  502  0.00000000000E+00 -0.00000000000E+00 -0.87134766173E+03  0.87134766173E+03  0.00000000000E+00 0.  1.
         21    1    1    2  503  502  0.26944969139E+02 -0.14178281439E+02 -0.14554349035E+03  0.14869419158E+03  0.00000000000E+00 0.  1.
         21    1    1    2  504  505 -0.95209651135E+01  0.13951277271E+03 -0.84239854506E+02  0.16325077523E+03  0.00000000000E+00 0.  1.
         21    1    1    2  505  503  0.10211661422E+01 -0.87572290993E+02 -0.57033473591E+03  0.57701963564E+03  0.00000000000E+00 0.  1.
          2    1    1    2  501    0 -0.18445170168E+02 -0.37762200279E+02 -0.10334383053E+02  0.43278257191E+02  0.00000000000E+00 0.  1.
<scales pt_clust_3="30.44758" pt_clust_4="14000.00000" pt_clust_5="105.95605" pt_clust_6="42.07518"></scales>
<clustering>
<clus scale="   30.448">  2  3  1 -1</clus>
<clus scale="   42.075">  1  6  2 -1</clus>
<clus scale="  105.956">  2  5  1 -1</clus>
<clus scale="   30.448">  2  3  1 -1</clus>
</clustering>
</event>
<event>
 6    0  0.1361744E+002  0.8839897E+02  0.7546771E-02  0.1306776E+00
          2   -1    0    0  505    0 -0.00000000000E+00  0.00000000000E+00  0.78019336648E+03  0.78019336648E+03  0.00000000000E+00 0. -1.
         21   -1    0    0  503  502  0.00000000000E+00 -0.00000000000E+00 -0.78649436581E+03  0.78649436581E+03  0.00000000000E+00 0.  1.
         21    1    1    2  503  504  0.80642902100E+02  0.58030154823E+02 -0.69197813400E+03  0.69907404076E+03  0.00000000000E+00 0.  1.
         21    1    1    2  504  501 -0.21537738628E+02 -0.58551128185E+02 -0.74290144898E+02  0.97011001571E+02  0.00000000000E+00 0. -1.
         21    1    1    2  505  502 -0.30429100740E+02 -0.54362321187E+02  0.46896377720E+03  0.47308373092E+03  0.00000000000E+00 0.  1.
          2    1    1    2  501    0 -0.28676062732E+02  0.54883294549E+02  0.29100350237E+03  0.29751895904E+03  0.00000000000E+00 0. -1.
<scales pt_clust_3="14000.00000" pt_clust_4="88.39897" pt_clust_5="58.23699" pt_clust_6="61.92328"></scales>
<clustering>
<clus scale="   61.923">  1  6  2 -1</clus>
<clus scale="   58.237">  1  5  2 -1</clus>
<clus scale="   88.399">  1  4  2 -1</clus>
<clus scale="   88.399">  2  3  1 -1</clus>
</clustering>
</event>
<event>
 6    0  0.1361744E+002  0.1801011E+03  0.7546771E-02  0.1167705E+00
         21   -1    0    0  504  502  0.00000000000E+00  0.00000000000E+00  0.49644462349E+02  0.49644462349E+02  0.00000000000E+00 0. -1.
          1   -1    0    0  503    0 -0.00000000000E+00 -0.00000000000E+00 -0.13472530509E+04  0.13472530509E+04  0.00000000000E+00 0. -1.
         21    1    1    2  503  502 -0.13470190365E+03 -0.14014215931E+02 -0.43390322544E+03  0.45454703843E+03  0.00000000000E+00 0. -1.
         21    1    1    2  504  505  0.59661611347E+02 -0.25179330203E+02 -0.89250769988E+02  0.11026879197E+03  0.00000000000E+00 0. -1.
         21    1    1    2  505  501  0.13978408424E+03  0.71127412938E+01 -0.15666596268E+03  0.21008190107E+03  0.00000000000E+00 0. -1.
          1    1    1    2  501    0 -0.64743791943E+02  0.32080804840E+02 -0.61778863045E+03  0.62199978179E+03  0.00000000000E+00 0. -1.
<scales pt_clust_3="174.33263" pt_clust_4="30.75619" pt_clust_5="30.75619" pt_clust_6="72.25605"></scales>
<clustering>
<clus scale="   30.756">  4  5 -1 -1</clus>
<clus scale="   72.256">  2  6  1 -1</clus>
<clus scale="  174.333">  2  3  1 -1</clus>
<clus scale="  180.101">  1  3  2 -1</clus>
</clustering>
</event>
<event>
 6    0  0.1361744E+002  0.1316165E+03  0.7546771E-02  0.1225077E+00
         21   -1    0    0  501  502  0.00000000000E+00  0.00000000000E+00  0.51683782978E+02  0.51683782978E+02  0.00000000000E+00 0.  1.
          1   -1    0    0  505    0 -0.00000000000E+00 -0.00000000000E+00 -0.88390095643E+03  0.88390095643E+03  0.00000000000E+00 0. -1.
         21    1    1    2  503  502  0.53508392347E+02 -0.22405819404E+02 -0.14557789167E+02  0.59808845668E+02  0.00000000000E+00 0.  1.
         21    1    1    2  504  503  0.46256489739E+02 -0.46499638474E+02 -0.49308395131E+02  0.82056060420E+02  0.00000000000E+00 0.  1.
         21    1    1    2  505  504  0.27884959523E+02 -0.26658331311E+02 -0.12003879011E+03  0.12608548182E+03  0.00000000000E+00 0.  1.
          1    1    1    2  501    0 -0.12764984161E+03  0.95563789189E+02 -0.64831219905E+03  0.66763435150E+03  0.00000000000E+00 0. -1.
<scales pt_clust_3="34.50025" pt_clust_4="34.50025" pt_clust_5="38.57768" pt_clust_6="126.40069"></scales>
<clustering>
<clus scale="   34.500">  3  4 -1 -1</clus>
<clus scale="   38.578">  2  5  1 -1</clus>
<clus scale="  126.401">  2  6  1 -1</clus>
<clus scale="  131.616">  1  3  2 -1</clus>
</clustering>
</event>
<event>
 6    0  0.1361744E+002  0.7258812E+02  0.7546771E-02  0.1351507E+00
         21   -1    0    0  503  502  0.00000000000E+00  0.00000000000E+00  0.72292841430E+03  0.72292841430E+03  0.00000000000E+00 0.  1.
          2   -1    0    0  505    0 -0.00000000000E+00 -0.00000000000E+00 -0.22800836781E+03  0.22800836781E+03  0.00000000000E+00 0.  1.
         21    1    1    2  503  501  0.11076043173E+02 -0.11052104666E+03  0.64598363759E+03  0.65546353104E+03  0.00000000000E+00 0.  1.
         21    1    1    2  504  502  0.15180349323E+02  0.42850916985E+02  0.50694558463E+02  0.68092454427E+02  0.00000000000E+00 0.  1.
         21    1    1    2  505  504  0.26694201920E+02  0.20750716783E+02 -0.57377294138E+02  0.66598247317E+02  0.00000000000E+00 0.  1.
          2    1    1    2  501    0 -0.52950594416E+02  0.46919412893E+02 -0.14438085543E+03  0.16078254933E+03  0.00000000000E+00 0.  1.
<scales pt_clust_3="14000.00000" pt_clust_4="46.96199" pt_clust_5="33.81084" pt_clust_6="72.58812"></scales>
<clustering>
<clus scale="   33.811">  2  5  1 -1</clus>
<clus scale="   46.962">  1  4  2 -1</clus>
<clus scale="   72.588">  2  6  1 -1</clus>
<clus scale="   46.962">  1  3  2 -1</clus>
</clustering>
</event>
<event>
 6    0  0.1361744E+002  0.2910227E+03  0.7546771E-02  0.1089816E+00
         -2   -1    0    0    0  501 -0.00000000000E+00  0.00000000000E+00  0.10284115264E+03  0.10284115264E+03  0.00000000000E+00 0.  1.
         21   -1    0    0  503  502  0.00000000000E+00 -0.00000000000E+00 -0.14806420019E+04  0.14806420019E+04  0.00000000000E+00 0.  1.
         21    1    1    2  503  504  0.28434773450E+02 -0.20914531680E+03 -0.10514752748E+04  0.10724507231E+04  0.00000000000E+00 0.  1.
         21    1    1    2  504  505  0.30898653748E+02 -0.60139802348E+02 -0.14758630283E+03  0.16233680856E+03  0.00000000000E+00 0.  1.
         21    1    1    2  505  501  0.31158158561E+02  0.28962215506E+02 -0.27981571293E+02  0.50917669860E+02  0.00000000000E+00 0. -1.
         -2    1    1    2    0  502 -0.90491585760E+02  0.24032290364E+03 -0.15075770029E+03  0.29777795302E+03  0.00000000000E+00 0.  1.
<scales pt_clust_3="59.15328" pt_clust_4="59.15328" pt_clust_5="42.53987" pt_clust_6="271.62024"></scales>
<clustering>
<clus scale="   42.540">  1  5  2 -1</clus>
<clus scale="   59.153">  3  4 -1 -1</clus>
<clus scale="  271.620">  1  6  2 -1</clus>
<clus scale="  291.023">  2  3  1 -1</clus>
</clustering>
</event>
<event>
 6    0  0.1361744E+002  0.1047197E+03  0.7546771E-02  0.1270673E+00
         21   -1    0    0  503  502  0.00000000000E+00  0.00000000000E+00  0.82151235993E+03  0.82151235993E+03  0.00000000000E+00 0.  1.
          1   -1    0    0  505    0 -0.00000000000E+00 -0.00000000000E+00 -0.17393427455E+04  0.17393427455E+04  0.00000000000E+00 0.  1.
         21    1    1    2  503  501  0.84566660847E+02 -0.10350998913E+03  0.78097862360E+02  0.15480669908E+03  0.00000000000E+00 0. -1.
         21    1    1    2  504  502 -0.57535747163E+02  0.84189136246E+02  0.69941256155E+03  0.70680697798E+03  0.00000000000E+00 0.  1.
         21    1    1    2  505  504  0.49126634704E+01 -0.36895126385E+02 -0.28513034348E+03  0.28754946945E+03  0.00000000000E+00 0.  1.
          1    1    1    2  501    0 -0.31943577153E+02  0.56215979267E+02 -0.14102104660E+04  0.14116919589E+04  0.00000000000E+00 0.  1.
<scales pt_clust_3="14000.00000" pt_clust_4="104.71966" pt_clust_5="37.22076" pt_clust_6="33.97166"></scales>
<clustering>
<clus scale="   37.221">  2  5  1 -1</clus>
<clus scale="   33.972">  2  6  1 -1</clus>
<clus scale="  104.720">  1  4  2 -1</clus>
<clus scale="  104.720">  1  3  2 -1</clus>
</clustering>
</event>
<event>
 6    0  0.1361744E+002  0.1272956E+03  0.7546771E-02  0.1231525E+00
          2   -1    0    0  503    0 -0.00000000000E+00  0.00000000000E+00  0.89174267027E+03  0.89174267027E+03  0.00000000000E+00 0. -1.
         21   -1    0    0  504  502  0.00000000000E+00 -0.00000000000E+00 -0.29909174342E+03  0.29909174342E+03  0.00000000000E+00 0.  1.
         21    1    1    2  503  502 -0.60766093798E+02  0.11030274100E+03 -0.92832381137E+02  0.15645147431E+03  0.00000000000E+00 0.  1.
         21    1    1    2  504  505 -0.15143002011E+02 -0.13930474008E+03 -0.14359363430E+03  0.20063462545E+03  0.00000000000E+00 0.  1.
         21    1    1    2  505  501  0.43283706336E+02  0.83273101904E+00  0.33300126238E+03  0.33580353396E+03  0.00000000000E+00 0.  1.
          2    1    1    2  501    0  0.32625389473E+02  0.28169268059E+02  0.49607567991E+03  0.49794477997E+03  0.00000000000E+00 0. -1.
<scales pt_clust_3="14000.00000" pt_clust_4="127.29562" pt_clust_5="34.04863" pt_clust_6="88.13441"></scales>
<clustering>
<clus scale="   34.049">  5  6 -1 -1</clus>
<clus scale="   88.134">  1  5  2 -1</clus>
<clus scale="  127.296">  2  4  1 -1</clus>
<clus scale="  127.296">  2  3  1 -1</clus>
</clustering>
</event>
<event>
 6    0  0.1776236E+002  0.1176265E+03  0.7546771E-02  0.1247065E+00
         21   -1    0    0  505  502  0.00000000000E+00  0.00000000000E+00  0.11175551877E+04  0.11175551877E+04  0.00000000000E+00 0.  1.
         -2   -1    0    0    0  501 -0.00000000000E+00 -0.00000000000E+00 -0.41276062860E+03  0.41276062860E+03  0.00000000000E+00 0. -1.
         21    1    1    2  503  501 -0.26907525247E+02 -0.35023251673E+02  0.15459653655E+01  0.44193133874E+02  0.00000000000E+00 0.  1.
         21    1    1    2  504  502  0.77972423303E+01 -0.43580131150E+02  0.55175916779E+02  0.70741830704E+02  0.00000000000E+00 0.  1.
         21    1    1    2  505  503  0.90547015051E+02  0.10952430701E+03  0.10228147543E+04  0.10326395099E+04  0.00000000000E+00 0.  1.
         -2    1    1    2    0  504 -0.71436732134E+02 -0.30920924184E+02 -0.37474207732E+03  0.38274134186E+03  0.00000000000E+00 0. -1.
<scales pt_clust_3="44.16609" pt_clust_4="44.86812" pt_clust_5="117.62654" pt_clust_6="14000.00000"></scales>
<clustering>
<clus scale="   44.166">  2  3  1 -1</clus>
<clus scale="   44.868">  1  4  2 -1</clus>
<clus scale="  117.627">  1  5  2 -1</clus>
<clus scale="   44.868">  1  3  2 -1</clus>
</clustering>
</event>
<event>
 6    0  0.1361744E+002  0.1462812E+03  0.7546771E-02  0.1205119E+00
         21   -1    0    0  504  502  0.00000000000E+00  0.00000000000E+00  0.37116777628E+03  0.37116777628E+03  0.00000000000E+00 0.  1.
         -1   -1    0    0    0  501 -0.00000000000E+00 -0.00000000000E+00 -0.17697335586E+03  0.17697335586E+03  0.00000000000E+00 0. -1.
         21    1    1    2  503  502 -0.13250195534E+03  0.47735584482E+02  0.28344122243E+03  0.31650336613E+03  0.00000000000E+00 0.  1.
         21    1    1    2  504  505  0.79460335992E+02 -0.41449905401E+02 -0.33677877915E+02  0.95740477932E+02  0.00000000000E+00 0. -1.
         21    1    1    2  505  501  0.50975705130E+02 -0.53493741355E+02 -0.47811280404E+02  0.88011484543E+02  0.00000000000E+00 0. -1.
         -1    1    1    2    0  503  0.20659142165E+01  0.47208062273E+02 -0.77576436892E+01  0.47885803541E+02  0.00000000000E+00 0. -1.
<scales pt_clust_3="142.48415" pt_clust_4="30.06678" pt_clust_5="30.06678" pt_clust_6="47.25324"></scales>
<clustering>
<clus scale="   30.067">  4  5 -1 -1</clus>
<clus scale="   47.253">  2  6  1 -1</clus>
<clus scale="  142.484">  1  3  2 -1</clus>
<clus scale="  142.484">  1  3  2 -1</clus>
</clustering>
</event>
<event>
 6    0  0.1361744E+002  0.9308019E+02  0.7546771E-02  0.1295559E+00
          1   -1    0    0  503    0 -0.00000000000E+00  0.00000000000E+00  0.45873743724E+03  0.45873743724E+03  0.00000000000E+00 0. -1.
         21   -1    0    0  505  502  0.00000000000E+00 -0.00000000000E+00 -0.11360322487E+04  0.11360322487E+04  0.00000000000E+00 0. -1.
         21    1    1    2  503  502  0.85252989476E+02 -0.10656045485E+03 -0.99319948014E+03  0.10025310021E+04  0.00000000000E+00 0. -1.
         21    1    1    2  504  501 -0.24575637894E+02  0.47894632711E+02  0.52829576892E+02  0.75424280009E+02  0.00000000000E+00 0. -1.
         21    1    1    2  505  504 -0.35092565782E+02  0.24315350063E+02 -0.12205681262E+03  0.12930812012E+03  0.00000000000E+00 0.  1.
          1    1    1    2  501    0 -0.25584785800E+02  0.34350472078E+02  0.38513190438E+03  0.38750628377E+03  0.00000000000E+00 0. -1.
<scales pt_clust_3="14000.00000" pt_clust_4="93.08019" pt_clust_5="42.69338" pt_clust_6="42.87903"></scales>
<clustering>
<clus scale="   42.693">  2  5  1 -1</clus>
<clus scale="   42.879">  1  6  2 -1</clus>
<clus scale="   93.080">  1  4  2 -1</clus>
<clus scale="   42.693">  2  3  1 -1</clus>
</clustering>
</event>
<event>
 6    0  0.1361744E+002  0.7937052E+02  0.7546771E-02  0.1330847E+00
          2   -1    0    0  504    0 -0.00000000000E+00  0.00000000000E+00  0.78660359191E+03  0.78660359191E+03  0.00000000000E+00 0.  1.
         21   -1    0    0  505  502  0.00000000000E+00 -0.00000000000E+00 -0.12481732381E+03  0.12481732381E+03  0.00000000000E+00 0. -1.
         21    1    1    2  503  502  0.60485405337E+01  0.92776086578E+02  0.15367322904E+02  0.94234503747E+02  0.00000000000E+00 0. -1.
         21    1    1    2  504  503 -0.26795161002E+02 -0.41235248154E+02  0.29822512014E+03  0.30225245843E+03  0.00000000000E+00 0.  1.
         21    1    1    2  505  501  0.58525638986E+02 -0.58744243735E+02 -0.61625301311E+02  0.10331415369E+03  0.00000000000E+00 0.  1.
          2    1    1    2  501    0 -0.37779018517E+02  0.72034053121E+01  0.40981912637E+03  0.41161979985E+03  0.00000000000E+00 0.  1.
<scales pt_clust_3="14000.00000" pt_clust_4="67.11680" pt_clust_5="79.37052" pt_clust_6="38.45963"></scales>
<clustering>
<clus scale="   38.460">  1  6  2 -1</clus>
<clus scale="   67.117">  1  4  2 -1</clus>
<clus scale="   79.371">  2  5  1 -1</clus>
<clus scale="   79.371">  2  3  1 -1</clus>
</clustering>
</event>
<event>
 6    0  0.1361744E+002  0.1185054E+03  0.7546771E-02  0.1245583E+00
         21   -1    0    0  505  502  0.00000000000E+00  0.00000000000E+00  0.61920100463E+03  0.61920100463E+03  0.00000000000E+00 0.  1.
          1   -1    0    0  504    0 -0.00000000000E+00 -0.00000000000E+00 -0.59059175565E+03  0.59059175565E+03  0.00000000000E+00 0. -1.
         21    1    1    2  503  501 -0.46655955798E+02 -0.57141351881E+02  0.13344554506E+03  0.15247827977E+03  0.00000000000E+00 0.  1.
         21    1    1    2  504  502  0.40582214604E+02  0.22789321722E+02 -0.13105258489E+03  0.13907210120E+03  0.00000000000E+00 0. -1.
         21    1    1    2  505  503 -0.11206995104E+02 -0.52464929775E+02  0.46628392800E+03  0.46936006126E+03  0.00000000000E+00 0.  1.
          1    1    1    2  501    0  0.17280736298E+02  0.86816959934E+02 -0.44006763920E+03  0.44888231804E+03  0.00000000000E+00 0. -1.
<scales pt_clust_3="14000.00000" pt_clust_4="46.54320" pt_clust_5="53.54479" pt_clust_6="118.50542"></scales>
<clustering>
<clus scale="   46.543">  2  4  1 -1</clus>
<clus scale="   53.545">  1  5  2 -1</clus>
<clus scale="  118.505">  2  6  1 -1</clus>
<clus scale="   53.545">  1  3  2 -1</clus>
</clustering>
</event>
<event>
 6    0  0.1361744E+002  0.1082650E+03  0.7546771E-02  0.1263817E+00
          2   -1    0    0  503    0 -0.00000000000E+00  0.00000000000E+00  0.11097373665E+04  0.11097373665E+04  0.00000000000E+00 0. -1.
         21   -1    0    0  504  502  0.00000000000E+00 -0.00000000000E+00 -0.30578959645E+03  0.30578959645E+03  0.00000000000E+00 0.  1.
         21    1    1    2  503  505  0.10453427288E+02 -0.93978194310E+02  0.97051632640E+02  0.13549979537E+03  0.00000000000E+00 0. -1.
         21    1    1    2  504  501 -0.90328567196E+01 -0.10795354421E+03 -0.23536859849E+03  0.25910217553E+03  0.00000000000E+00 0.  1.
         21    1    1    2  505  502  0.37326817707E+02  0.10458682606E+03  0.48731725896E+02  0.12127026270E+03  0.00000000000E+00 0. -1.
          2    1    1    2  501    0 -0.38747388275E+02  0.97344912459E+02  0.89353300996E+03  0.89965472931E+03  0.00000000000E+00 0. -1.
<scales pt_clust_3="94.55779" pt_clust_4="14000.00000" pt_clust_5="108.26502" pt_clust_6="31.87896"></scales>
<clustering>
<clus scale="   94.558">  1  3  2 -1</clus>
<clus scale="   31.879">  1  6  2 -1</clus>
<clus scale="  108.265">  1  5  2 -1</clus>
<clus scale="  108.265">  2  3  1 -1</clus>
</clustering>
</event>
<event>
 6    0  0.1361744E+002  0.1429596E+03  0.7546771E-02  0.1209401E+00
         21   -1    0    0  504  502  0.00000000000E+00  0.00000000000E+00  0.57826140494E+02  0.57826140494E+02  0.00000000000E+00 0. -1.
          1   -1    0    0  505    0 -0.00000000000E+00 -0.00000000000E+00 -0.21040895223E+04  0.21040895223E+04  0.00000000000E+00 0. -1.
         21    1    1    2  503  502 -0.61668410378E+02  0.27845947403E+02 -0.13567314668E+03  0.15161000084E+03  0.00000000000E+00 0. -1.
         21    1    1    2  504  501  0.34469544091E+02 -0.45121087907E+01 -0.93914653693E+02  0.10014225269E+03  0.00000000000E+00 0. -1.
         21    1    1    2  505  503 -0.11328959384E+03  0.12448588793E+02 -0.30321159153E+02  0.11793588142E+03  0.00000000000E+00 0. -1.
          1    1    1    2  501    0  0.14048846012E+03 -0.35782427406E+02 -0.17863544223E+04  0.17922275279E+04  0.00000000000E+00 0. -1.
<scales pt_clust_3="62.83508" pt_clust_4="34.76361" pt_clust_5="142.95961" pt_clust_6="14000.00000"></scales>
<clustering>
<clus scale="   34.764">  1  4  2 -1</clus>
<clus scale="   62.835">  1  3  2 -1</clus>
<clus scale="  142.960">  1  5  2 -1</clus>
<clus scale="   34.764">  1  3  2 -1</clus>
</clustering>
</event>
<event>
 6    0  0.1361744E+002  0.1177957E+03  0.7546771E-02  0.1246778E+00
         21   -1    0    0  503  502  0.00000000000E+00  0.00000000000E+00  0.16238438284E+03  0.16238438284E+03  0.00000000000E+00 0. -1.
          2   -1    0    0  502    0 -0.00000000000E+00 -0.00000000000E+00 -0.15330942118E+04  0.15330942118E+04  0.00000000000E+00 0. -1.
         21    1    1    2  503  505  0.12256243868E+03 -0.48503605864E+01  0.10562287241E+03  0.16186805908E+03  0.00000000000E+00 0. -1.
         21    1    1    2  504  501 -0.69303730006E+02  0.25710408669E+02 -0.34240249250E+03  0.35029059219E+03  0.00000000000E+00 0. -1.
         21    1    1    2  505  504 -0.99942208783E+02 -0.13481271326E+02 -0.81052552283E+02  0.12938201577E+03  0.00000000000E+00 0. -1.
          2    1    1    2  501    0  0.46683500105E+02 -0.73787767568E+01 -0.10528776566E+04  0.10539379276E+04  0.00000000000E+00 0. -1.
<scales pt_clust_3="14000.00000" pt_clust_4="41.01952" pt_clust_5="117.79574" pt_clust_6="47.26305"></scales>
<clustering>
<clus scale="   47.263">  2  6  1 -1</clus>
<clus scale="   41.020">  2  4  1 -1</clus>
<clus scale="  117.796">  2  5  1 -1</clus>
<clus scale="  117.796">  1  3  2 -1</clus>
</clustering>
</event>
<event>
 6    0  0.1361744E+002  0.1027049E+03  0.7546771E-02  0.1274709E+00
         -4   -1    0    0    0  501 -0.00000000000E+00  0.00000000000E+00  0.14736499717E+04  0.14736499717E+04  0.00000000000E+00 0. -1.
         21   -1    0    0  504  502  0.00000000000E+00 -0.00000000000E+00 -0.12341146164E+03  0.12341146164E+03  0.00000000000E+00 0. -1.
         21    1    1    2  503  501 -0.30512517749E+02  0.30755816788E+02  0.33227713809E+03  0.33508958578E+03  0.00000000000E+00 0. -1.
         21    1    1    2  504  503  0.68070392400E+02  0.64088162626E+02 -0.44202881623E+01  0.93597061160E+02  0.00000000000E+00 0. -1.
         21    1    1    2  505  502  0.36605507350E+02 -0.90645389112E+02 -0.38375336709E+02  0.10502007524E+03  0.00000000000E+00 0. -1.
         -4    1    1    2    0  505 -0.74163382001E+02 -0.41985903021E+01  0.10607569968E+04  0.10633547111E+04  0.00000000000E+00 0. -1.
<scales pt_clust_3="43.32360" pt_clust_4="93.46367" pt_clust_5="102.70493" pt_clust_6="14000.00000"></scales>
<clustering>
<clus scale="   43.324">  1  3  2 -1</clus>
<clus scale="   93.464">  2  4  1 -1</clus>
<clus scale="  102.705">  2  5  1 -1</clus>
<clus scale="   93.464">  2  3  1 -1</clus>
</clustering>
</event>
<event>
 6    0  0.1361744E+002  0.2899187E+03  0.7546771E-02  0.1090392E+00
         21   -1    0    0  503  502  0.00000000000E+00  0.00000000000E+00  0.31977575066E+03  0.31977575066E+03  0.00000000000E+00 0. -1.
          2   -1    0    0  505    0 -0.00000000000E+00 -0.00000000000E+00 -0.41191655713E+04  0.41191655713E+04  0.00000000000E+00 0.  1.
         21    1    1    2  503  501 -0.23052180238E+02 -0.34805785450E+02 -0.12119001143E+04  0.12126189561E+04  0.00000000000E+00 0. -1.
         21    1    1    2  504  502  0.15801563549E+03  0.16843034686E+03  0.20148764414E+03  0.30648816216E+03  0.00000000000E+00 0. -1.
         21    1    1    2  505  504  0.56296545809E+02  0.14709599283E+01  0.47521244706E+02  0.73686725341E+02  0.00000000000E+00 0. -1.
          2    1    1    2  501    0 -0.19126000106E+03 -0.13509552134E+03 -0.28364985952E+04  0.28461474784E+04  0.00000000000E+00 0.  1.
<scales pt_clust_3="40.62429" pt_clust_4="287.27603" pt_clust_5="43.41943" pt_clust_6="40.62429"></scales>
<clustering>
<clus scale="   40.624">  3  6 -1 -1</clus>
<clus scale="   43.419">  4  5 -1 -1</clus>
<clus scale="  287.276">  1  4  2 -1</clus>
<clus scale="  287.276">  1  3  2 -1</clus>
</clustering>
</event>
<event>
 6    0  0.1361744E+002  0.1319225E+03  0.7546771E-02  0.1224631E+00
          1   -1    0    0  505    0 -0.00000000000E+00  0.00000000000E+00  0.96842294490E+03  0.96842294490E+03  0.00000000000E+00 0.  1.
         21   -1    0    0  504  502  0.00000000000E+00 -0.00000000000E+00 -0.71151329612E+02  0.71151329612E+02  0.00000000000E+00 0.  1.
         21    1    1    2  503  501  0.36328725234E+02  0.22397657019E+02 -0.21273554458E+02  0.47686428220E+02  0.00000000000E+00 0.  1.
         21    1    1    2  504  503  0.72943681242E+02  0.39414932638E+02  0.24663121909E+02  0.86501948708E+02  0.00000000000E+00 0.  1.
         21    1    1    2  505  502 -0.37110757245E+02  0.76094069867E+01  0.14619417291E+03  0.15102267237E+03  0.00000000000E+00 0. -1.
          1    1    1    2  501    0 -0.72161649231E+02 -0.69421996643E+02  0.74768787493E+03  0.75436322521E+03  0.00000000000E+00 0.  1.
<scales pt_clust_3="33.90905" pt_clust_4="33.90905" pt_clust_5="37.88286" pt_clust_6="123.16561"></scales>
<clustering>
<clus scale="   33.909">  3  4 -1 -1</clus>
<clus scale="   37.883">  1  5  2 -1</clus>
<clus scale="  123.166">  1  6  2 -1</clus>
<clus scale="  131.922">  2  3  1 -1</clus>
</clustering>
</event>
<event>
 6    0  0.1361744E+002  0.6893607E+02  0.7546771E-02  0.1363749E+00
         21   -1    0    0  504  502  0.00000000000E+00  0.00000000000E+00  0.23152239641E+03  0.23152239641E+03  0.00000000000E+00 0.  1.
          2   -1    0    0  503    0 -0.00000000000E+00 -0.00000000000E+00 -0.22081452966E+04  0.22081452966E+04  0.00000000000E+00 0.  1.
         21    1    1    2  503  502  0.68262345188E+02  0.31857678724E+02  0.17138443451E+03  0.18720919811E+03  0.00000000000E+00 0.  1.
         21    1    1    2  504  505 -0.19708185223E+02 -0.64323862446E+02  0.23349194347E+02  0.71212054607E+02  0.00000000000E+00 0. -1.
         21    1    1    2  505  501 -0.17853876273E+01  0.66036662188E+02 -0.23703305617E+03  0.24606645053E+03  0.00000000000E+00 0. -1.
          2    1    1    2  501    0 -0.46768772338E+02 -0.33570478466E+02 -0.19343234729E+04  0.19351799898E+04  0.00000000000E+00 0.  1.
<scales pt_clust_3="14000.00000" pt_clust_4="68.93607" pt_clust_5="56.40414" pt_clust_6="57.56991"></scales>
<clustering>
<clus scale="   57.570">  2  6  1 -1</clus>
<clus scale="   56.404">  2  5  1 -1</clus>
<clus scale="   68.936">  2  4  1 -1</clus>
<clus scale="   68.936">  1  3  2 -1</clus>
</clustering>
</event>
<event>
 6    0  0.1361744E+002  0.8748901E+02  0.7546771E-02  0.1309049E+00
         21   -1    0    0  505  502  0.00000000000E+00  0.00000000000E+00  0.76153742201E+03  0.76153742201E+03  0.00000000000E+00 0. -1.
          2   -1    0    0  503    0 -0.00000000000E+00 -0.00000000000E+00 -0.17581244713E+04  0.17581244713E+04  0.00000000000E+00 0.  1.
         21    1    1    2  503  504  0.83297591367E+02 -0.75420680944E+02 -0.65000222183E+03  0.65964358272E+03  0.00000000000E+00 0.  1.
         21    1    1    2  504  502 -0.29698175493E+02 -0.23758271714E+02  0.42768822105E+03  0.42937588606E+03  0.00000000000E+00 0.  1.
         21    1    1    2  505  501 -0.25086602927E+02  0.21852217438E+02  0.32579607141E+03  0.32749036199E+03  0.00000000000E+00 0. -1.
          2    1    1    2  501    0 -0.28512812947E+02  0.77326735219E+02 -0.11000691199E+04  0.11031520625E+04  0.00000000000E+00 0.  1.
<scales pt_clust_3="87.48901" pt_clust_4="54.46328" pt_clust_5="33.26946" pt_clust_6="14000.00000"></scales>
<clustering>
<clus scale="   33.269">  1  5  2 -1</clus>
<clus scale="   54.463">  1  4  2 -1</clus>
<clus scale="   87.489">  1  3  2 -1</clus>
<clus scale="   33.269">  1  3  2 -1</clus>
</clustering>
</event>
<event>
 6    0  0.1361744E+002  0.1634366E+03  0.7546771E-02  0.1184871E+00
         21   -1    0    0  501  502  0.00000000000E+00  0.00000000000E+00  0.22538966466E+03  0.22538966466E+03  0.00000000000E+00 0.  1.
          1   -1    0    0  504    0 -0.00000000000E+00 -0.00000000000E+00 -0.43948439488E+03  0.43948439488E+03  0.00000000000E+00 0.  1.
         21    1    1    2  503  505  0.68824251876E+02  0.29378219181E+02  0.56462653699E+02  0.93743739371E+02  0.00000000000E+00 0.  1.
         21    1    1    2  504  503  0.26162786056E+01  0.57992916795E+02 -0.83967891303E+02  0.10208148746E+03  0.00000000000E+00 0.  1.
         21    1    1    2  505  502  0.62864425798E+02  0.55395736675E+02  0.94544154475E+02  0.12632980970E+03  0.00000000000E+00 0. -1.
          1    1    1    2  501    0 -0.13430495628E+03 -0.14276687265E+03 -0.28113364709E+03  0.34271902301E+03  0.00000000000E+00 0.  1.
<scales pt_clust_3="31.35454" pt_clust_4="58.05190" pt_clust_5="31.35454" pt_clust_6="160.03362"></scales>
<clustering>
<clus scale="   31.355">  3  5 -1 -1</clus>
<clus scale="   58.052">  2  4  1 -1</clus>
<clus scale="  160.034">  2  6  1 -1</clus>
<clus scale="  163.437">  1  3  2 -1</clus>
</clustering>
</event>
<event>
 6    0  0.1361744E+002  0.8711179E+02  0.7546771E-02  0.1310001E+00
          2   -1    0    0  505    0 -0.00000000000E+00  0.00000000000E+00  0.25823681065E+03  0.25823681065E+03  0.00000000000E+00 0. -1.
         21   -1    0    0  503  502  0.00000000000E+00 -0.00000000000E+00 -0.16719791365E+03  0.16719791365E+03  0.00000000000E+00 0. -1.
         21    1    1    2  503  501 -0.27401014606E+02  0.14050807685E+02 -0.14318104599E+02  0.33959518803E+02  0.00000000000E+00 0.  1.
         21    1    1    2  504  502 -0.33076910305E+02  0.23405878499E+02 -0.10285936979E+03  0.11055300582E+03  0.00000000000E+00 0. -1.
         21    1    1    2  505  504  0.20056668774E+02  0.66203507507E+02  0.42073029210E+02  0.80964894587E+02  0.00000000000E+00 0. -1.
          2    1    1    2  501    0  0.40421256137E+02 -0.10366019369E+03  0.16614334218E+03  0.19995730508E+03  0.00000000000E+00 0. -1.
<scales pt_clust_3="30.79352" pt_clust_4="63.34140" pt_clust_5="14000.00000" pt_clust_6="87.11179"></scales>
<clustering>
<clus scale="   30.794">  2  3  1 -1</clus>
<clus scale="   63.341">  2  4  1 -1</clus>
<clus scale="   87.112">  1  6  2 -1</clus>
<clus scale="   30.794">  2  3  1 -1</clus>
</clustering>
</event>
<event>
 6    0  0.1361744E+002  0.1394665E+03  0.7546771E-02  0.1214049E+00
         21   -1    0    0  501  502  0.00000000000E+00  0.00000000000E+00  0.26376086192E+03  0.26376086192E+03  0.00000000000E+00 0. -1.
          4   -1    0    0  505    0 -0.00000000000E+00 -0.00000000000E+00 -0.32573852632E+03  0.32573852632E+03  0.00000000000E+00 0.  1.
         21    1    1    2  503  502 -0.76593053320E+02  0.15485466864E+02  0.14787741005E+03  0.16725436886E+03  0.00000000000E+00 0. -1.
         21    1    1    2  504  503 -0.49749279399E+02  0.33372885253E+02  0.70115751735E+02  0.92222334129E+02  0.00000000000E+00 0. -1.
         21    1    1    2  505  504  0.90977034872E+01 -0.30856993519E+02 -0.77644108974E+01  0.33093931987E+02  0.00000000000E+00 0. -1.
          4    1    1    2  501    0  0.11724462923E+03 -0.18001358597E+02 -0.27220641528E+03  0.29692875327E+03  0.00000000000E+00 0.  1.
<scales pt_clust_3="33.27922" pt_clust_4="33.27922" pt_clust_5="32.17021" pt_clust_6="134.13902"></scales>
<clustering>
<clus scale="   32.170">  2  5  1 -1</clus>
<clus scale="   33.279">  3  4 -1 -1</clus>
<clus scale="  134.139">  2  6  1 -1</clus>
<clus scale="  139.466">  1  3  2 -1</clus>
</clustering>
</event>
<event>
 6    0  0.1361744E+002  0.1491173E+03  0.7546771E-02  0.1201562E+00
         21   -1    0    0  501  502  0.00000000000E+00  0.00000000000E+00  0.21729932404E+03  0.21729932404E+03  0.00000000000E+00 0.  1.
          2   -1    0    0  505    0 -0.00000000000E+00 -0.00000000000E+00 -0.10407308147E+04  0.10407308147E+04  0.00000000000E+00 0.  1.
         21    1    1    2  503  504  0.45271002903E+02  0.41602319485E+02  0.42317334991E+02  0.74638954515E+02  0.00000000000E+00 0.  1.
         21    1    1    2  504  502  0.27417687091E+02  0.74322487508E+02  0.14149259660E+03  0.16215954060E+03  0.00000000000E+00 0.  1.
         21    1    1    2  505  503 -0.30781907248E+02  0.11754826494E+02 -0.15529877375E+03  0.15875582158E+03  0.00000000000E+00 0.  1.
          2    1    1    2  501    0 -0.41906782746E+02 -0.12767963349E+03 -0.85194264853E+03  0.86247582205E+03  0.00000000000E+00 0.  1.
<scales pt_clust_3="52.48695" pt_clust_4="52.48695" pt_clust_5="32.94999" pt_clust_6="136.64087"></scales>
<clustering>
<clus scale="   32.950">  2  5  1 -1</clus>
<clus scale="   52.487">  3  4 -1 -1</clus>
<clus scale="  136.641">  2  6  1 -1</clus>
<clus scale="  149.117">  1  3  2 -1</clus>
</clustering>
</event>
<event>
 6    0  0.1361744E+002  0.1866978E+03  0.7546771E-02  0.1161474E+00
          1   -1    0    0  503    0 -0.00000000000E+00  0.00000000000E+00  0.10482386030E+04  0.10482386030E+04  0.00000000000E+00 0.  1.
         21   -1    0    0  505  502  0.00000000000E+00 -0.00000000000E+00 -0.55755082946E+02  0.55755082946E+02  0.00000000000E+00 0.  1.
         21    1    1    2  503  504 -0.15418331122E+03 -0.41980324262E+02  0.26995224941E+03  0.31370218049E+03  0.00000000000E+00 0.  1.
         21    1    1    2  504  502 -0.35018164788E+02 -0.14901604746E+02  0.21326000758E+02  0.43624855271E+02  0.00000000000E+00 0. -1.
         21    1    1    2  505  501  0.15793449340E+03 -0.30479810500E+02  0.38838712924E+03  0.42037707503E+03  0.00000000000E+00 0.  1.
          1    1    1    2  501    0  0.31266982610E+02  0.87361739508E+02  0.31281814060E+03  0.32628957510E+03  0.00000000000E+00 0.  1.
<scales pt_clust_3="30.11035" pt_clust_4="30.11035" pt_clust_5="176.20796" pt_clust_6="92.78846"></scales>
<clustering>
<clus scale="   30.110">  3  4 -1 -1</clus>
<clus scale="   92.788">  1  6  2 -1</clus>
<clus scale="  176.208">  1  5  2 -1</clus>
<clus scale="  186.698">  2  3  1 -1</clus>
</clustering>
</event>
<event>
 6    0  0.1361744E+002  0.1261630E+03  0.7546771E-02  0.1233263E+00
          1   -1    0    0  503    0 -0.00000000000E+00  0.00000000000E+00  0.62369640851E+02  0.62369640851E+02  0.00000000000E+00 0. -1.
         21   -1    0    0  501  502  0.00000000000E+00 -0.00000000000E+00 -0.97829789790E+03  0.97829789790E+03  0.00000000000E+00 0.  1.
         21    1    1    2  503  505  0.85860599894E+01 -0.37565854852E+02 -0.36255257445E+02  0.52908955473E+02  0.00000000000E+00 0. -1.
         21    1    1    2  504  502 -0.78947242850E+02 -0.31427394832E+02 -0.73266522495E+03  0.73757621989E+03  0.00000000000E+00 0.  1.
         21    1    1    2  505  504 -0.32559620381E+02  0.27596661645E+01 -0.12063489841E+03  0.12498209212E+03  0.00000000000E+00 0.  1.
          1    1    1    2  501    0  0.10292080324E+03  0.66233583520E+02 -0.26372876257E+02  0.12520027128E+03  0.00000000000E+00 0. -1.
<scales pt_clust_3="38.53458" pt_clust_4="31.80279" pt_clust_5="31.80279" pt_clust_6="115.26921"></scales>
<clustering>
<clus scale="   31.803">  4  5 -1 -1</clus>
<clus scale="   38.535">  1  3  2 -1</clus>
<clus scale="  115.269">  1  6  2 -1</clus>
<clus scale="  126.163">  2  3  1 -1</clus>
</clustering>
</event>
<event>
 6    0  0.1361744E+002  0.1846266E+03  0.7546771E-02  0.1163399E+00
          2   -1    0    0  504    0 -0.00000000000E+00  0.00000000000E+00  0.14411244118E+04  0.14411244118E+04  0.00000000000E+00 0.  1.
         21   -1    0    0  505  502  0.00000000000E+00 -0.00000000000E+00 -0.78093219324E+02  0.78093219324E+02  0.00000000000E+00 0. -1.
         21    1    1    2  503  501  0.50780468021E+02 -0.36113800393E+02  0.23274543386E+03  0.24094252322E+03  0.00000000000E+00 0.  1.
         21    1    1    2  504  502 -0.50133289915E+02  0.14877718429E+03  0.59138709635E+02  0.16776586154E+03  0.00000000000E+00 0. -1.
         21    1    1    2  505  503 -0.64347312914E+02 -0.25383951645E+02  0.54306606754E+02  0.87943898126E+02  0.00000000000E+00 0. -1.
          2    1    1    2  501    0  0.63700134808E+02 -0.87279432250E+02  0.10168404422E+04  0.10225653482E+04  0.00000000000E+00 0.  1.
<scales pt_clust_3="61.95309" pt_clust_4="165.62423" pt_clust_5="69.17313" pt_clust_6="61.95309"></scales>
<clustering>
<clus scale="   61.953">  3  6 -1 -1</clus>
<clus scale="   69.173">  2  5  1 -1</clus>
<clus scale="  165.624">  2  4  1 -1</clus>
<clus scale="   69.173">  2  3  1 -1</clus>
</clustering>
</event>
<event>
 6    0  0.1361744E+002  0.1733891E+03  0.7546771E-02  0.1174359E+00
          2   -1    0    0  505    0 -0.00000000000E+00  0.00000000000E+00  0.34068894066E+04  0.34068894066E+04  0.00000000000E+00 0. -1.
         21   -1    0    0  503  502  0.00000000000E+00 -0.00000000000E+00 -0.18515696749E+03  0.18515696749E+03  0.00000000000E+00 0.  1.
         21    1    1    2  503  501  0.72389767856E+02 -0.18306755837E+02 -0.15338234191E+03  0.17059178940E+03  0.00000000000E+00 0.  1.
         21    1    1    2  504  502  0.40223384614E+02 -0.11767165089E+02  0.27306461918E+02  0.50020292947E+02  0.00000000000E+00 0.  1.
         21    1    1    2  505  504  0.10847576697E+03  0.10907392299E+03  0.17064380759E+04  0.17133578201E+04  0.00000000000E+00 0. -1.
          2    1    1    2  501    0 -0.22108891944E+03 -0.79000002065E+02  0.16413702432E+04  0.16580764717E+04  0.00000000000E+00 0. -1.
<scales pt_clust_3="113.71199" pt_clust_4="41.90927" pt_clust_5="173.38907" pt_clust_6="14000.00000"></scales>
<clustering>
<clus scale="   41.909">  2  4  1 -1</clus>
<clus scale="  113.712">  2  3  1 -1</clus>
<clus scale="  173.389">  1  5  2 -1</clus>
<clus scale="   41.909">  2  3  1 -1</clus>
</clustering>
</event>
<event>
 6    0  0.1361744E+002  0.1449489E+03  0.7546771E-02  0.1206821E+00
         -1   -1    0    0    0  501 -0.00000000000E+00  0.00000000000E+00  0.79242039521E+03  0.79242039521E+03  0.00000000000E+00 0.  1.
         21   -1    0    0  505  502  0.00000000000E+00 -0.00000000000E+00 -0.72587630105E+02  0.72587630105E+02  0.00000000000E+00 0.  1.
         21    1    1    2  503  502  0.15003744014E+03  0.71855503373E+02  0.70126932947E+02  0.18053319233E+03  0.00000000000E+00 0.  1.
         21    1    1    2  504  503 -0.33424839464E+02 -0.34467926639E+02  0.13651381146E+03  0.14471101747E+03  0.00000000000E+00 0.  1.
         21    1    1    2  505  501 -0.41497124254E+02  0.66531211041E+01  0.37997994336E+02  0.56657946621E+02  0.00000000000E+00 0.  1.
         -1    1    1    2    0  504 -0.75115476419E+02 -0.44040697838E+02  0.47519402637E+03  0.48310586889E+03  0.00000000000E+00 0.  1.
<scales pt_clust_3="137.79417" pt_clust_4="33.39864" pt_clust_5="42.02708" pt_clust_6="33.39864"></scales>
<clustering>
<clus scale="   33.399">  4  6 -1 -1</clus>
<clus scale="   42.027">  2  5  1 -1</clus>
<clus scale="  137.794">  2  3  1 -1</clus>
<clus scale="   42.027">  2  3  1 -1</clus>
</clustering>
</event>
<event>
 6    0  0.1361744E+002  0.8856405E+02  0.7546771E-02  0.1306367E+00
          2   -1    0    0  503    0 -0.00000000000E+00  0.00000000000E+00  0.37702874187E+03  0.37702874187E+03  0.00000000000E+00 0. -1.
         21   -1    0    0  504  502  0.00000000000E+00 -0.00000000000E+00 -0.54509504630E+03  0.54509504630E+03  0.00000000000E+00 0. -1.
         21    1    1    2  503  505  0.15482563065E+01 -0.51315256869E+02  0.16964609741E+03  0.17724404377E+03  0.00000000000E+00 0. -1.
         21    1    1    2  504  501  0.41293807233E+02  0.60501032360E+02 -0.13381190666E+03  0.15254894230E+03  0.00000000000E+00 0. -1.
         21    1    1    2  505  502 -0.95280183476E+02 -0.44586332679E+02 -0.38572526211E+03  0.39981274649E+03  0.00000000000E+00 0. -1.
          2    1    1    2  501    0  0.52438119936E+02  0.35400557188E+02  0.18182476692E+03  0.19251805561E+03  0.00000000000E+00 0. -1.
<scales pt_clust_3="51.33861" pt_clust_4="88.56405" pt_clust_5="14000.00000" pt_clust_6="55.13425"></scales>
<clustering>
<clus scale="   51.339">  1  3  2 -1</clus>
<clus scale="   55.134">  1  6  2 -1</clus>
<clus scale="   88.564">  1  4  2 -1</clus>
<clus scale="   88.564">  2  3  1 -1</clus>
</clustering>
</event>
<event>
 6    0  0.1361744E+002  0.7135374E+02  0.7546771E-02  0.1355549E+00
          2   -1    0    0  503    0 -0.00000000000E+00  0.00000000000E+00  0.47118496189E+03  0.47118496189E+03  0.00000000000E+00 0.  1.
         21   -1    0    0  505  502  0.00000000000E+00 -0.00000000000E+00 -0.61305043687E+02  0.61305043687E+02  0.00000000000E+00 0.  1.
         21    1    1    2  503  504  0.33988025198E+02  0.55658694327E+02  0.20142279903E+03  0.21171731171E+03  0.00000000000E+00 0.  1.
         21    1    1    2  504  502 -0.79131824553E+01  0.71654669439E+02  0.38040877634E+02  0.81511462262E+02  0.00000000000E+00 0.  1.
         21    1    1    2  505  501  0.15669799744E+02 -0.69213597746E+02  0.21662354775E+02  0.74197859479E+02  0.00000000000E+00 0.  1.
          2    1    1    2  501    0 -0.41744642487E+02 -0.58099766020E+02  0.14875388677E+03  0.16506337212E+03  0.00000000000E+00 0.  1.
<scales pt_clust_3="65.21561" pt_clust_4="71.35374" pt_clust_5="14000.00000" pt_clust_6="33.10533"></scales>
<clustering>
<clus scale="   65.216">  1  3  2 -1</clus>
<clus scale="   33.105">  1  6  2 -1</clus>
<clus scale="   71.354">  1  4  2 -1</clus>
<clus scale="   71.354">  2  3  1 -1</clus>
</clustering>
</event>
<event>
 6    0  0.1361744E+002  0.1317938E+03  0.7546771E-02  0.1224818E+00
         -2   -1    0    0    0  501 -0.00000000000E+00  0.00000000000E+00  0.34752096590E+03  0.34752096590E+03  0.00000000000E+00 0. -1.
         21   -1    0    0  503  502  0.00000000000E+00 -0.00000000000E+00 -0.47066964105E+02  0.47066964105E+02  0.00000000000E+00 0. -1.
         21    1    1    2  503  505  0.27547309169E+02 -0.37179021673E+02  0.37570895780E+02  0.59604581239E+02  0.00000000000E+00 0. -1.
         21    1    1    2  504  502 -0.38411857810E+02  0.36435011810E+02  0.51933346322E+02  0.74162344664E+02  0.00000000000E+00 0.  1.
         21    1    1    2  505  501 -0.14878661018E+01 -0.75765413381E+02  0.99410433463E+02  0.12500018357E+03  0.00000000000E+00 0. -1.
         -2    1    1    2    0  504  0.12352414743E+02  0.76509423244E+02  0.11153932623E+03  0.13582082054E+03  0.00000000000E+00 0. -1.
<scales pt_clust_3="33.87694" pt_clust_4="51.84120" pt_clust_5="123.75393" pt_clust_6="51.84120"></scales>
<clustering>
<clus scale="   33.877">  3  5 -1 -1</clus>
<clus scale="   51.841">  4  6 -1 -1</clus>
<clus scale="  123.754">  2  3  1 -1</clus>
<clus scale="  123.754">  2  3  1 -1</clus>
</clustering>
</event>
<event>
 6    0  0.1361744E+002  0.2078746E+03  0.7546771E-02  0.1143260E+00
         -1   -1    0    0    0  501 -0.00000000000E+00  0.00000000000E+00  0.62895150385E+03  0.62895150385E+03  0.00000000000E+00 0. -1.
         21   -1    0    0  505  502  0.00000000000E+00 -0.00000000000E+00 -0.32655534787E+03  0.32655534787E+03  0.00000000000E+00 0.  1.
         21    1    1    2  503  502  0.28287191155E+02 -0.12972773581E+02 -0.91737742448E+02  0.96872449268E+02  0.00000000000E+00 0.  1.
         21    1    1    2  504  503  0.82146997876E+02 -0.15946550383E+03 -0.12915343694E+03  0.22103842753E+03  0.00000000000E+00 0.  1.
         21    1    1    2  505  501  0.52930319903E+02 -0.60070041813E+02  0.11052397368E+03  0.13647555622E+03  0.00000000000E+00 0.  1.
         -1    1    1    2    0  504 -0.16336450893E+03  0.23250831922E+03  0.41276336169E+03  0.50112041870E+03  0.00000000000E+00 0. -1.
<scales pt_clust_3="31.12006" pt_clust_4="207.87457" pt_clust_5="81.65433" pt_clust_6="14000.00000"></scales>
<clustering>
<clus scale="   31.120">  2  3  1 -1</clus>
<clus scale="   81.654">  1  5  2 -1</clus>
<clus scale="  207.875">  2  4  1 -1</clus>
<clus scale="   31.120">  2  3  1 -1</clus>
</clustering>
</event>
<event>
 6    0  0.1361744E+002  0.1516884E+03  0.7546771E-02  0.1198414E+00
          2   -1    0    0  503    0 -0.00000000000E+00  0.00000000000E+00  0.19712126052E+04  0.19712126052E+04  0.00000000000E+00 0. -1.
         21   -1    0    0  504  502  0.00000000000E+00 -0.00000000000E+00 -0.61819074921E+02  0.61819074921E+02  0.00000000000E+00 0.  1.
         21    1    1    2  503  502  0.64082595648E+02  0.61932014117E+01  0.93282334375E+02  0.11334252827E+03  0.00000000000E+00 0.  1.
         21    1    1    2  504  505  0.30930685373E+02 -0.11060907588E+03  0.19496771523E+02  0.11649548946E+03  0.00000000000E+00 0.  1.
         21    1    1    2  505  501 -0.23857565419E+02  0.26943414083E+02  0.20719459668E+03  0.21029677097E+03  0.00000000000E+00 0. -1.
          2    1    1    2  501    0 -0.71155715601E+02  0.77472460385E+02  0.15894198277E+04  0.15928968914E+04  0.00000000000E+00 0. -1.
<scales pt_clust_3="64.38117" pt_clust_4="138.76444" pt_clust_5="35.83643" pt_clust_6="35.83643"></scales>
<clustering>
<clus scale="   35.836">  5  6 -1 -1</clus>
<clus scale="   64.381">  2  3  1 -1</clus>
<clus scale="  138.764">  2  4  1 -1</clus>
<clus scale="   64.381">  2  3  1 -1</clus>
</clustering>
</event>
<event>
 6    0  0.1361744E+002  0.1669003E+03  0.7546771E-02  0.1181119E+00
          1   -1    0    0  503    0 -0.00000000000E+00  0.00000000000E+00  0.31412769058E+03  0.31412769058E+03  0.00000000000E+00 0. -1.
         21   -1    0    0  505  502  0.00000000000E+00 -0.00000000000E+00 -0.45224726792E+03  0.45224726792E+03  0.00000000000E+00 0.  1.
         21    1    1    2  503  504 -0.66694309029E+02  0.11485813277E+01  0.15420762664E+02  0.68463494046E+02  0.00000000000E+00 0.  1.
         21    1    1    2  504  502  0.14174427728E+03  0.76958706039E+02 -0.39563614755E+03  0.42724939301E+03  0.00000000000E+00 0.  1.
         21    1    1    2  505  501 -0.49251546573E+02 -0.12993292163E+02  0.10586967030E+03  0.11748586115E+03  0.00000000000E+00 0. -1.
          1    1    1    2  501    0 -0.25798421675E+02 -0.65113995203E+02  0.13622613724E+03  0.15317621029E+03  0.00000000000E+00 0. -1.
<scales pt_clust_3="66.70420" pt_clust_4="157.92835" pt_clust_5="46.03797" pt_clust_6="46.03797"></scales>
<clustering>
<clus scale="   46.038">  5  6 -1 -1</clus>
<clus scale="   66.704">  1  3  2 -1</clus>
<clus scale="  157.928">  2  4  1 -1</clus>
<clus scale="  157.928">  2  3  1 -1</clus>
</clustering>
</event>
<event>
 6    0  0.1361744E+002  0.1473174E+03  0.7546771E-02  0.1203809E+00
         -2   -1    0    0    0  501 -0.00000000000E+00  0.00000000000E+00  0.18293123590E+03  0.18293123590E+03  0.00000000000E+00 0.  1.
         21   -1    0    0  505  502  0.00000000000E+00 -0.00000000000E+00 -0.72617459536E+03  0.72617459536E+03  0.00000000000E+00 0. -1.
         21    1    1    2  503  501 -0.37917639120E+02 -0.25199812525E+02 -0.24693867415E+02  0.51793484104E+02  0.00000000000E+00 0. -1.
         21    1    1    2  504  503  0.71044904105E+02 -0.19701611204E+02 -0.23923206305E+03  0.25033479957E+03  0.00000000000E+00 0. -1.
         21    1    1    2  505  504  0.67691356396E+02  0.73045855418E+01 -0.42245542474E+03  0.42790660498E+03  0.00000000000E+00 0. -1.
         -2    1    1    2    0  502 -0.10081862138E+03  0.37596838188E+02  0.14313799574E+03  0.17907094260E+03  0.00000000000E+00 0.  1.
<scales pt_clust_3="45.52777" pt_clust_4="50.75706" pt_clust_5="50.75706" pt_clust_6="137.56015"></scales>
<clustering>
<clus scale="   45.528">  1  3  2 -1</clus>
<clus scale="   50.757">  4  5 -1 -1</clus>
<clus scale="  137.560">  1  6  2 -1</clus>
<clus scale="  147.317">  2  3  1 -1</clus>
</clustering>
</event>
<event>
 6    0  0.1361744E+002  0.1422146E+03  0.7546771E-02  0.1210380E+00
         21   -1    0    0  504  502  0.00000000000E+00  0.00000000000E+00  0.50903193061E+02  0.50903193061E+02  0.00000000000E+00 0.  1.
         -2   -1    0    0    0  501 -0.00000000000E+00 -0.00000000000E+00 -0.63431335027E+03  0.63431335027E+03  0.00000000000E+00 0. -1.
         21    1    1    2  503  502  0.14437197097E+02  0.61981627588E+02 -0.18723315745E+03  0.19775340722E+03  0.00000000000E+00 0. -1.
         21    1    1    2  504  505 -0.12864853584E+02 -0.50865462951E+02 -0.17423815719E+02  0.55284619319E+02  0.00000000000E+00 0.  1.
         21    1    1    2  505  501  0.38752179139E+02 -0.76321354393E+02 -0.60493549609E+02  0.10481483706E+03  0.00000000000E+00 0.  1.
         -2    1    1    2    0  503 -0.40324522652E+02  0.65205189756E+02 -0.31825963443E+03  0.32736367973E+03  0.00000000000E+00 0. -1.
<scales pt_clust_3="52.95622" pt_clust_4="40.78760" pt_clust_5="139.85964" pt_clust_6="52.95622"></scales>
<clustering>
<clus scale="   40.788">  4  5 -1 -1</clus>
<clus scale="   52.956">  3  6 -1 -1</clus>
<clus scale="  139.860">  1  4  2 -1</clus>
<clus scale="  139.860">  1  3  2 -1</clus>
</clustering>
</event>
<event>
 6    0  0.1361744E+002  0.1894640E+03  0.7546771E-02  0.1158946E+00
         21   -1    0    0  505  502  0.00000000000E+00  0.00000000000E+00  0.15140546466E+03  0.15140546466E+03  0.00000000000E+00 0.  1.
          2   -1    0    0  504    0 -0.00000000000E+00 -0.00000000000E+00 -0.10305429776E+04  0.10305429776E+04  0.00000000000E+00 0. -1.
         21    1    1    2  503  501 -0.20171557982E+02  0.35354517306E+02 -0.58359602282E+01  0.41120458134E+02  0.00000000000E+00 0.  1.
         21    1    1    2  504  502 -0.46613310457E+02 -0.88864137098E+01 -0.34966885398E+02  0.58944483498E+02  0.00000000000E+00 0.  1.
         21    1    1    2  505  503 -0.38560531113E+02  0.12292399088E+03  0.75917939768E+02  0.14953513190E+03  0.00000000000E+00 0.  1.
          2    1    1    2  501    0  0.10534539955E+03 -0.14939209448E+03 -0.91425260705E+03  0.93234836869E+03  0.00000000000E+00 0. -1.
<scales pt_clust_3="30.45985" pt_clust_4="47.45281" pt_clust_5="30.45985" pt_clust_6="181.54912"></scales>
<clustering>
<clus scale="   30.460">  3  5 -1 -1</clus>
<clus scale="   47.453">  1  4  2 -1</clus>
<clus scale="  181.549">  2  6  1 -1</clus>
<clus scale="   47.453">  1  3  2 -1</clus>
</clustering>
</event>
<event>
 6    0  0.1361744E+002  0.1301640E+03  0.7546771E-02  0.1227213E+00
         21   -1    0    0  503  502  0.00000000000E+00  0.00000000000E+00  0.50833048633E+03  0.50833048633E+03  0.00000000000E+00 0. -1.
         -4   -1    0    0    0  501 -0.00000000000E+00 -0.00000000000E+00 -0.12758058020E+03  0.12758058020E+03  0.00000000000E+00 0.  1.
         21    1    1    2  503  501  0.44653612388E+02 -0.24915854068E+02  0.25164509303E+03  0.25678784576E+03  0.00000000000E+00 0.  1.
         21    1    1    2  504  502  0.26342445245E+02 -0.84471597756E+02  0.20448015847E+03  0.22280374875E+03  0.00000000000E+00 0. -1.
         21    1    1    2  505  504 -0.19340494250E+02  0.41432068410E+02 -0.55901891699E+01  0.46064316184E+02  0.00000000000E+00 0. -1.
         -4    1    1    2    0  505 -0.51655563382E+02  0.67955383414E+02 -0.69785156197E+02  0.11025515584E+03  0.00000000000E+00 0.  1.
<scales pt_clust_3="51.13458" pt_clust_4="123.26553" pt_clust_5="30.60209" pt_clust_6="30.60209"></scales>
<clustering>
<clus scale="   30.602">  5  6 -1 -1</clus>
<clus scale="   51.135">  1  3  2 -1</clus>
<clus scale="  123.266">  1  4  2 -1</clus>
<clus scale="   51.135">  1  3  2 -1</clus>
</clustering>
</event>
<event>
 6    0  0.1361744E+002  0.1215204E+03  0.7546771E-02  0.1240610E+00
         21   -1    0    0  501  502  0.00000000000E+00  0.00000000000E+00  0.50256794838E+03  0.50256794838E+03  0.00000000000E+00 0.  1.
          1   -1    0    0  504    0 -0.00000000000E+00 -0.00000000000E+00 -0.10531521122E+03  0.10531521122E+03  0.00000000000E+00 0.  1.
         21    1    1    2  503  502  0.35992399716E+02 -0.25102207740E+02  0.20018357594E+03  0.20493666765E+03  0.00000000000E+00 0.  1.
         21    1    1    2  504  505  0.77249682749E+02  0.82428279313E+02  0.12335221321E+03  0.16726536766E+03  0.00000000000E+00 0.  1.
         21    1    1    2  505  503  0.16310269027E+02 -0.34714749086E+02  0.95007952322E+02  0.10245803865E+03  0.00000000000E+00 0.  1.
          1    1    1    2  501    0 -0.12955235149E+03 -0.22611322487E+02 -0.21291004307E+02  0.13322308563E+03  0.00000000000E+00 0.  1.
<scales pt_clust_3="85.75236" pt_clust_4="121.52035" pt_clust_5="30.14772" pt_clust_6="14000.00000"></scales>
<clustering>
<clus scale="   30.148">  3  5 -1 -1</clus>
<clus scale="   85.752">  1  3  2 -1</clus>
<clus scale="  121.520">  1  4  2 -1</clus>
<clus scale="   85.752">  1  3  2 -1</clus>
</clustering>
</event>
<event>
 6    0  0.1361744E+002  0.1213699E+03  0.7546771E-02  0.1240854E+00
         21   -1    0    0  503  502  0.00000000000E+00  0.00000000000E+00  0.11595377065E+04  0.11595377065E+04  0.00000000000E+00 0. -1.
         -3   -1    0    0    0  501 -0.00000000000E+00 -0.00000000000E+00 -0.81352878380E+03  0.81352878380E+03  0.00000000000E+00 0.  1.
         21    1    1    2  503  505 -0.10472780277E+03  0.64246881680E+02  0.10616317134E+04  0.10687176752E+04  0.00000000000E+00 0. -1.
         21    1    1    2  504  502  0.62048392133E+02  0.29742706295E+02  0.64679680322E+02  0.94435653175E+02  0.00000000000E+00 0.  1.
         21    1    1    2  505  501  0.60052085138E+02 -0.48290223259E+02 -0.92576868645E+02  0.12045196221E+03  0.00000000000E+00 0. -1.
         -3    1    1    2    0  504 -0.17372674500E+02 -0.45699364716E+02 -0.68772560235E+03  0.68946119970E+03  0.00000000000E+00 0.  1.
<scales pt_clust_3="121.36994" pt_clust_4="64.71527" pt_clust_5="14000.00000" pt_clust_6="48.89010"></scales>
<clustering>
<clus scale="   48.890">  2  6  1 -1</clus>
<clus scale="   64.715">  2  4  1 -1</clus>
<clus scale="  121.370">  1  3  2 -1</clus>
<clus scale="  121.370">  1  3  2 -1</clus>
</clustering>
</event>
<event>
 6    0  0.1361744E+002  0.1552930E+03  0.7546771E-02  0.1194116E+00
          1   -1    0    0  505    0 -0.00000000000E+00  0.00000000000E+00  0.27054193779E+04  0.27054193779E+04  0.00000000000E+00 0.  1.
         21   -1    0    0  503  502  0.00000000000E+00 -0.00000000000E+00 -0.15780019380E+03  0.15780019380E+03  0.00000000000E+00 0.  1.
         21    1    1    2  503  501 -0.34737219464E+02  0.23404151348E+02 -0.41521611186E+02  0.58978580110E+02  0.00000000000E+00 0.  1.
         21    1    1    2  504  502  0.29849025120E+02 -0.62370750075E+02 -0.85881037036E+02  0.11025709632E+03  0.00000000000E+00 0.  1.
         21    1    1    2  505  504  0.10611392466E+03  0.13932413137E+03  0.13482271989E+04  0.13595543234E+04  0.00000000000E+00 0.  1.
          1    1    1    2  501    0 -0.10122573031E+03 -0.10035753264E+03  0.13267946335E+04  0.13344295718E+04  0.00000000000E+00 0.  1.
<scales pt_clust_3="41.88590" pt_clust_4="41.07039" pt_clust_5="14000.00000" pt_clust_6="155.29304"></scales>
<clustering>
<clus scale="   41.886">  2  3  1 -1</clus>
<clus scale="   41.070">  2  4  1 -1</clus>
<clus scale="  155.293">  1  6  2 -1</clus>
<clus scale="   41.886">  2  3  1 -1</clus>
</clustering>
</event>
<event>
 6    0  0.1361744E+002  0.9505559E+02  0.7546771E-02  0.1291051E+00
         21   -1    0    0  501  502  0.00000000000E+00  0.00000000000E+00  0.11325499457E+03  0.11325499457E+03  0.00000000000E+00 0.  1.
          1   -1    0    0  505    0 -0.00000000000E+00 -0.00000000000E+00 -0.93162635632E+03  0.93162635632E+03  0.00000000000E+00 0.  1.
         21    1    1    2  503  504  0.36809541015E+02 -0.58638958747E+02  0.47294690597E+01  0.69396236715E+02  0.00000000000E+00 0.  1.
         21    1    1    2  504  502  0.51563343043E+02  0.69109241549E+01  0.59588179118E+02  0.79103036029E+02  0.00000000000E+00 0. -1.
         21    1    1    2  505  503 -0.37878658561E+02 -0.31344765363E+02 -0.16594316377E+03  0.17307345462E+03  0.00000000000E+00 0. -1.
          1    1    1    2  501    0 -0.50494225497E+02  0.83072799955E+02 -0.71674584615E+03  0.72330862354E+03  0.00000000000E+00 0.  1.
<scales pt_clust_3="14000.00000" pt_clust_4="51.49151" pt_clust_5="49.16591" pt_clust_6="95.05559"></scales>
<clustering>
<clus scale="   49.166">  2  5  1 -1</clus>
<clus scale="   51.492">  1  4  2 -1</clus>
<clus scale="   95.056">  2  6  1 -1</clus>
<clus scale="   51.492">  1  3  2 -1</clus>
</clustering>
</event>
<event>
 6    0  0.1361744E+002  0.1447096E+03  0.7546771E-02  0.1207129E+00
         21   -1    0    0  504  502  0.00000000000E+00  0.00000000000E+00  0.23600672728E+03  0.23600672728E+03  0.00000000000E+00 0.  1.
          4   -1    0    0  505    0 -0.00000000000E+00 -0.00000000000E+00 -0.13742585046E+04  0.13742585046E+04  0.00000000000E+00 0.  1.
         21    1    1    2  503  501 -0.99629274730E+02 -0.46185666144E+02  0.78168604044E+02  0.13479406069E+03  0.00000000000E+00 0.  1.
         21    1    1    2  504  503 -0.25388111620E+02 -0.33784314765E+02  0.11617402120E+03  0.12362175916E+03  0.00000000000E+00 0.  1.
         21    1    1    2  505  502  0.42215351520E+02 -0.47012752716E+02 -0.21730859109E+03  0.22630810543E+03  0.00000000000E+00 0. -1.
          4    1    1    2  501    0  0.82802034829E+02  0.12698273363E+03 -0.11152858115E+04  0.11255413066E+04  0.00000000000E+00 0.  1.
<scales pt_clust_3="14000.00000" pt_clust_4="42.26034" pt_clust_5="63.52206" pt_clust_6="144.70957"></scales>
<clustering>
<clus scale="   42.260">  1  4  2 -1</clus>
<clus scale="   63.522">  2  5  1 -1</clus>
<clus scale="  144.710">  2  6  1 -1</clus>
<clus scale="   42.260">  1  3  2 -1</clus>
</clustering>
</event>
<event>
 6    0  0.1361744E+002  0.2171410E+03  0.7546771E-02  0.1136033E+00
          2   -1    0    0  503    0 -0.00000000000E+00  0.00000000000E+00  0.25223682950E+04  0.25223682950E+04  0.00000000000E+00 0.  1.
         21   -1    0    0  501  502  0.00000000000E+00 -0.00000000000E+00 -0.15648775263E+03  0.15648775263E+03  0.00000000000E+00 0. -1.
         21    1    1    2  503  504  0.26460732231E+02 -0.78812638405E+02  0.29753552741E+03  0.30893201905E+03  0.00000000000E+00 0. -1.
         21    1    1    2  504  505  0.23282583859E+02  0.15222973797E+03 -0.43022757347E+02  0.15989662124E+03  0.00000000000E+00 0. -1.
         21    1    1    2  505  502  0.45206772311E+02  0.47134726928E+02 -0.23681549480E+02  0.69470501157E+02  0.00000000000E+00 0. -1.
          2    1    1    2  501    0 -0.94950088400E+02 -0.12055182649E+03  0.21350493218E+04  0.21405569062E+04  0.00000000000E+00 0.  1.
<scales pt_clust_3="83.13605" pt_clust_4="39.73422" pt_clust_5="39.73422" pt_clust_6="208.39238"></scales>
<clustering>
<clus scale="   39.734">  4  5 -1 -1</clus>
<clus scale="   83.136">  1  3  2 -1</clus>
<clus scale="  208.392">  1  6  2 -1</clus>
<clus scale="  217.141">  2  3  1 -1</clus>
</clustering>
</event>
<event>
 6    0  0.1361744E+002  0.1862262E+03  0.7546771E-02  0.1161910E+00
          4   -1    0    0  504    0 -0.00000000000E+00  0.00000000000E+00  0.13280066062E+03  0.13280066062E+03  0.00000000000E+00 0.  1.
         21   -1    0    0  505  502  0.00000000000E+00 -0.00000000000E+00 -0.42851183706E+03  0.42851183706E+03  0.00000000000E+00 0.  1.
         21    1    1    2  503  501 -0.31945509856E+02  0.84629214987E+02  0.19872808823E+02  0.92615053636E+02  0.00000000000E+00 0.  1.
         21    1    1    2  504  502  0.41729218483E+02 -0.18536000384E+03 -0.26176876167E+03  0.32345408219E+03  0.00000000000E+00 0.  1.
         21    1    1    2  505  503  0.29900809724E+02  0.18642848349E+02 -0.39527965028E+02  0.52953510138E+02  0.00000000000E+00 0.  1.
          4    1    1    2  501    0 -0.39684518351E+02  0.82087940501E+02 -0.14287258567E+02  0.92289851716E+02  0.00000000000E+00 0.  1.
<scales pt_clust_3="34.97749" pt_clust_4="182.88534" pt_clust_5="35.23655" pt_clust_6="34.97749"></scales>
<clustering>
<clus scale="   34.977">  3  6 -1 -1</clus>
<clus scale="   35.237">  2  5  1 -1</clus>
<clus scale="  182.885">  2  4  1 -1</clus>
<clus scale="   35.237">  2  3  1 -1</clus>
</clustering>
</event>
<event>
 6    0  0.1361744E+002  0.1121550E+03  0.7546771E-02  0.1256630E+00
         -1   -1    0    0    0  501 -0.00000000000E+00  0.00000000000E+00  0.30349774055E+03  0.30349774055E+03  0.00000000000E+00 0.  1.
         21   -1    0    0  503  502  0.00000000000E+00 -0.00000000000E+00 -0.72463774844E+02  0.72463774844E+02  0.00000000000E+00 0. -1.
         21    1    1    2  503  505 -0.72746657457E+02  0.62972958066E+02  0.25749278808E+02  0.99602685595E+02  0.00000000000E+00 0. -1.
         21    1    1    2  504  502  0.49177250492E+02 -0.16662687726E+02  0.29968767800E+02  0.59951431773E+02  0.00000000000E+00 0. -1.
         21    1    1    2  505  501 -0.46501591249E+02 -0.19268141015E+02  0.54855441310E+02  0.74449840081E+02  0.00000000000E+00 0. -1.
         -1    1    1    2    0  504  0.70070998213E+02 -0.27042129325E+02  0.12046047779E+03  0.14195755795E+03  0.00000000000E+00 0.  1.
<scales pt_clust_3="102.81405" pt_clust_4="37.25832" pt_clust_5="50.33547" pt_clust_6="37.25832"></scales>
<clustering>
<clus scale="   37.258">  4  6 -1 -1</clus>
<clus scale="   50.335">  1  5  2 -1</clus>
<clus scale="  102.814">  2  3  1 -1</clus>
<clus scale="  102.814">  2  3  1 -1</clus>
</clustering>
</event>
<event>
 6    0  0.1361744E+002  0.2690487E+03  0.7546771E-02  0.1101825E+00
         21   -1    0    0  503  502  0.00000000000E+00  0.00000000000E+00  0.28310242385E+03  0.28310242385E+03  0.00000000000E+00 0.  1.
         -1   -1    0    0    0  501 -0.00000000000E+00 -0.00000000000E+00 -0.60331392723E+03  0.60331392723E+03  0.00000000000E+00 0. -1.
         21    1    1    2  503  501  0.19007075192E+02  0.24090503539E+03  0.15271468193E+03  0.28586409194E+03  0.00000000000E+00 0.  1.
         21    1    1    2  504  502 -0.30227301732E+02  0.19206417147E+02  0.17515007859E+02  0.39866674428E+02  0.00000000000E+00 0. -1.
         21    1    1    2  505  504 -0.95192212709E+01 -0.11257850233E+03 -0.14007930446E+03  0.17996318039E+03  0.00000000000E+00 0. -1.
         -1    1    1    2    0  505  0.20739447811E+02 -0.14753295020E+03 -0.35036188871E+03  0.38072240432E+03  0.00000000000E+00 0. -1.
<scales pt_clust_3="257.55639" pt_clust_4="35.81307" pt_clust_5="67.67590" pt_clust_6="67.67590"></scales>
<clustering>
<clus scale="   35.813">  1  4  2 -1</clus>
<clus scale="   67.676">  5  6 -1 -1</clus>
<clus scale="  257.556">  1  3  2 -1</clus>
<clus scale="   35.813">  1  3  2 -1</clus>
</clustering>
</event>
<event>
 6    0  0.1361744E+002  0.8580545E+02  0.7546771E-02  0.1313340E+00
          3   -1    0    0  503    0 -0.00000000000E+00  0.00000000000E+00  0.28562429250E+03  0.28562429250E+03  0.00000000000E+00 0.  1.
         21   -1    0    0  504  502  0.00000000000E+00 -0.00000000000E+00 -0.49260255424E+03  0.49260255424E+03  0.00000000000E+00 0. -1.
         21    1    1    2  503  502  0.66204668835E+02 -0.14197070526E+02  0.12604972105E+02  0.68873073903E+02  0.00000000000E+00 0. -1.
         21    1    1    2  504  505  0.11040631112E+01  0.46208333192E+02 -0.38607664396E+03  0.38883364569E+03  0.00000000000E+00 0. -1.
         21    1    1    2  505  501 -0.24493900011E+02  0.50321973299E+02 -0.56169796742E+02  0.79292485145E+02  0.00000000000E+00 0. -1.
          3    1    1    2  501    0 -0.42814831935E+02 -0.82333235965E+02  0.22266320686E+03  0.24122764201E+03  0.00000000000E+00 0.  1.
<scales pt_clust_3="66.52534" pt_clust_4="46.22152" pt_clust_5="85.80545" pt_clust_6="14000.00000"></scales>
<clustering>
<clus scale="   46.222">  2  4  1 -1</clus>
<clus scale="   66.525">  2  3  1 -1</clus>
<clus scale="   85.805">  2  5  1 -1</clus>
<clus scale="   46.222">  2  3  1 -1</clus>
</clustering>
</event>
<event>
 6    0  0.1361744E+002  0.1144611E+03  0.7546771E-02  0.1252525E+00
          1   -1    0    0  505    0 -0.00000000000E+00  0.00000000000E+00  0.75275082036E+03  0.75275082036E+03  0.00000000000E+00 0.  1.
         21   -1    0    0  504  502  0.00000000000E+00 -0.00000000000E+00 -0.11867905830E+03  0.11867905830E+03  0.00000000000E+00 0.  1.
         21    1    1    2  503  501  0.82775225135E+02  0.42256025861E+02  0.36897114593E+03  0.38049575050E+03  0.00000000000E+00 0.  1.
         21    1    1    2  504  503 -0.92358054104E+02  0.27731068653E+02 -0.56163789125E+02  0.11159477378E+03  0.00000000000E+00 0.  1.
         21    1    1    2  505  502 -0.30458446305E+02 -0.26751790193E+02 -0.10907900130E+02  0.41980442055E+02  0.00000000000E+00 0.  1.
          1    1    1    2  501    0  0.40041275274E+02 -0.43235304321E+02  0.33217230539E+03  0.33735891233E+03  0.00000000000E+00 0.  1.
<scales pt_clust_3="14000.00000" pt_clust_4="114.46105" pt_clust_5="40.53856" pt_clust_6="58.90970"></scales>
<clustering>
<clus scale="   40.539">  2  5  1 -1</clus>
<clus scale="   58.910">  1  6  2 -1</clus>
<clus scale="  114.461">  2  4  1 -1</clus>
<clus scale="   40.539">  2  3  1 -1</clus>
</clustering>
</event>
<event>
 6    0  0.1361744E+002  0.1369169E+03  0.7546771E-02  0.1217539E+00
          2   -1    0    0  503    0 -0.00000000000E+00  0.00000000000E+00  0.28051328949E+04  0.28051328949E+04  0.00000000000E+00 0.  1.
         21   -1    0    0  505  502  0.00000000000E+00 -0.00000000000E+00 -0.46711767424E+02  0.46711767424E+02  0.00000000000E+00 0. -1.
         21    1    1    2  503  504 -0.17673871341E+02  0.27375691764E+02  0.34851314618E+03  0.35003315169E+03  0.00000000000E+00 0.  1.
         21    1    1    2  504  502  0.11880807046E+03 -0.89206526036E+02  0.18739303030E+03  0.23914286462E+03  0.00000000000E+00 0. -1.
         21    1    1    2  505  501 -0.74965480705E+02  0.10454686562E+03  0.18952978484E+03  0.22906638721E+03  0.00000000000E+00 0. -1.
          2    1    1    2  501    0 -0.26168718415E+02 -0.42716031347E+02  0.20329851661E+04  0.20336022588E+04  0.00000000000E+00 0.  1.
<scales pt_clust_3="32.58518" pt_clust_4="136.91693" pt_clust_5="14000.00000" pt_clust_6="45.46205"></scales>
<clustering>
<clus scale="   32.585">  1  3  2 -1</clus>
<clus scale="   45.462">  1  6  2 -1</clus>
<clus scale="  136.917">  1  4  2 -1</clus>
<clus scale="  136.917">  2  3  1 -1</clus>
</clustering>
</event>
<event>
 6    0  0.1361744E+002  0.1161826E+03  0.7546771E-02  0.1249531E+00
         -1   -1    0    0    0  501 -0.00000000000E+00  0.00000000000E+00  0.34914040151E+03  0.34914040151E+03  0.00000000000E+00 0. -1.
         21   -1    0    0  503  502  0.00000000000E+00 -0.00000000000E+00 -0.25517515784E+04  0.25517515784E+04  0.00000000000E+00 0. -1.
         21    1    1    2  503  505 -0.54369969702E+02 -0.15422415723E+02 -0.20266647256E+04  0.20274525530E+04  0.00000000000E+00 0. -1.
         21    1    1    2  504  501  0.37874779164E+02 -0.51311457894E+01  0.38909267706E+02  0.54541348235E+02  0.00000000000E+00 0. -1.
         21    1    1    2  505  504 -0.47225136913E+02 -0.45646944319E+02 -0.50772373135E+03  0.51195433826E+03  0.00000000000E+00 0.  1.
         -1    1    1    2    0  502  0.63720327452E+02  0.66200505831E+02  0.29286801239E+03  0.30694374042E+03  0.00000000000E+00 0. -1.
<scales pt_clust_3="56.46936" pt_clust_4="38.22077" pt_clust_5="116.18257" pt_clust_6="14000.00000"></scales>
<clustering>
<clus scale="   38.221">  1  4  2 -1</clus>
<clus scale="   56.469">  2  3  1 -1</clus>
<clus scale="  116.183">  2  5  1 -1</clus>
<clus scale="   56.469">  2  3  1 -1</clus>
</clustering>
</event>
<event>
 6    0  0.1361744E+002  0.2692705E+03  0.7546771E-02  0.1101698E+00
          1   -1    0    0  505    0 -0.00000000000E+00  0.00000000000E+00  0.17796119513E+04  0.17796119513E+04  0.00000000000E+00 0. -1.
         21   -1    0    0  503  502  0.00000000000E+00 -0.00000000000E+00 -0.38550486499E+03  0.38550486499E+03  0.00000000000E+00 0.  1.
         21    1    1    2  503  501  0.23578074725E+03 -0.10127047593E+03 -0.29989479213E+03  0.39469628377E+03  0.00000000000E+00 0.  1.
         21    1    1    2  504  502  0.37162916935E+02  0.61084749249E+01 -0.37199926906E+01  0.37844870282E+02  0.00000000000E+00 0. -1.
         21    1    1    2  505  504 -0.12945525817E+03  0.94227741392E+02  0.47061363968E+03  0.49710635579E+03  0.00000000000E+00 0.  1.
          1    1    1    2  501    0 -0.14348840602E+03  0.93425961577E+00  0.12271082314E+04  0.12354693064E+04  0.00000000000E+00 0. -1.
<scales pt_clust_3="14000.00000" pt_clust_4="37.66160" pt_clust_5="269.27054" pt_clust_6="143.06596"></scales>
<clustering>
<clus scale="   37.662">  2  4  1 -1</clus>
<clus scale="  143.066">  1  6  2 -1</clus>
<clus scale="  269.271">  1  5  2 -1</clus>
<clus scale="   37.662">  2  3  1 -1</clus>
</clustering>
</event>
<event>
 6    0  0.1361744E+002  0.1943393E+03  0.7546771E-02  0.1154605E+00
         21   -1    0    0  505  502  0.00000000000E+00  0.00000000000E+00  0.22124144966E+03  0.22124144966E+03  0.00000000000E+00 0.  1.
          2   -1    0    0  504    0 -0.00000000000E+00 -0.00000000000E+00 -0.25265024519E+04  0.25265024519E+04  0.00000000000E+00 0.  1.
         21    1    1    2  503  502  0.98683682998E+02 -0.75461007681E+01 -0.10181638147E+03  0.14199291695E+03  0.00000000000E+00 0.  1.
         21    1    1    2  504  503  0.29087581661E+00 -0.63147620410E+02 -0.21810492457E+03  0.22706268891E+03  0.00000000000E+00 0.  1.
         21    1    1    2  505  501  0.42189188319E+02  0.14963455824E+03  0.16242733463E+03  0.22484009355E+03  0.00000000000E+00 0.  1.
          2    1    1    2  501    0 -0.14116374713E+03 -0.78940837067E+02 -0.21477670308E+04  0.21538482022E+04  0.00000000000E+00 0.  1.
<scales pt_clust_3="99.29774" pt_clust_4="63.14829" pt_clust_5="14000.00000" pt_clust_6="194.33925"></scales>
<clustering>
<clus scale="   63.148">  2  4  1 -1</clus>
<clus scale="   99.298">  1  3  2 -1</clus>
<clus scale="  194.339">  2  6  1 -1</clus>
<clus scale="   99.298">  1  3  2 -1</clus>
</clustering>
</event>
<event>
 6    0  0.1361744E+002  0.2295316E+03  0.7546771E-02  0.1126970E+00
         21   -1    0    0  503  502  0.00000000000E+00  0.00000000000E+00  0.33435534278E+03  0.33435534278E+03  0.00000000000E+00 0.  1.
          1   -1    0    0  504    0 -0.00000000000E+00 -0.00000000000E+00 -0.16940823411E+04  0.16940823411E+04  0.00000000000E+00 0.  1.
         21    1    1    2  503  505  0.25625565932E+02 -0.51875507809E+02  0.15410826012E+03  0.16461194907E+03  0.00000000000E+00 0.  1.
         21    1    1    2  504  502  0.21113787094E+03 -0.19875510327E+02  0.90032716735E+02  0.23039124666E+03  0.00000000000E+00 0.  1.
         21    1    1    2  505  501 -0.15724361450E+03  0.41213306222E+02 -0.48886716571E+03  0.51518462382E+03  0.00000000000E+00 0.  1.
          1    1    1    2  501    0 -0.79519822371E+02  0.30537711914E+02 -0.11150008094E+04  0.11182498643E+04  0.00000000000E+00 0.  1.
<scales pt_clust_3="57.85964" pt_clust_4="14000.00000" pt_clust_5="229.53162" pt_clust_6="84.78795"></scales>
<clustering>
<clus scale="   57.860">  1  3  2 -1</clus>
<clus scale="   84.788">  2  6  1 -1</clus>
<clus scale="  229.532">  2  5  1 -1</clus>
<clus scale="   57.860">  1  3  2 -1</clus>
</clustering>
</event>
<event>
 6    0  0.1361744E+002  0.1496930E+03  0.7546771E-02  0.1200851E+00
         21   -1    0    0  503  502  0.00000000000E+00  0.00000000000E+00  0.22887785789E+02  0.22887785789E+02  0.00000000000E+00 0.  1.
          2   -1    0    0  504    0 -0.00000000000E+00 -0.00000000000E+00 -0.14972754000E+04  0.14972754000E+04  0.00000000000E+00 0. -1.
         21    1    1    2  503  501  0.45614754989E+02 -0.56512305506E+01 -0.23594704156E+03  0.24038229698E+03  0.00000000000E+00 0.  1.
         21    1    1    2  504  505  0.27826843550E+01  0.30408512538E+02 -0.14194466788E+03  0.14519197535E+03  0.00000000000E+00 0.  1.
         21    1    1    2  505  502 -0.12903882782E+03 -0.64712961926E+02 -0.29892247327E+03  0.33195395999E+03  0.00000000000E+00 0.  1.
          2    1    1    2  501    0  0.80641388480E+02  0.39955679939E+02 -0.79757343148E+03  0.80263495345E+03  0.00000000000E+00 0. -1.
<scales pt_clust_3="34.53393" pt_clust_4="30.53557" pt_clust_5="140.73022" pt_clust_6="34.53393"></scales>
<clustering>
<clus scale="   30.536">  2  4  1 -1</clus>
<clus scale="   34.534">  3  6 -1 -1</clus>
<clus scale="  140.730">  1  5  2 -1</clus>
<clus scale="  140.730">  1  3  2 -1</clus>
</clustering>
</event>
<event>
 6    0  0.1361744E+002  0.1462481E+03  0.7546771E-02  0.1205161E+00
         -1   -1    0    0    0  501 -0.00000000000E+00  0.00000000000E+00  0.22141888297E+03  0.22141888297E+03  0.00000000000E+00 0.  1.
         21   -1    0    0  505  502  0.00000000000E+00 -0.00000000000E+00 -0.49489589016E+03  0.49489589016E+03  0.00000000000E+00 0.  1.
         21    1    1    2  503  504 -0.42264386756E+02 -0.12319722269E+03  0.11727486062E+03  0.17526330762E+03  0.00000000000E+00 0.  1.
         21    1    1    2  504  502 -0.44553315711E+02  0.24501742606E+02 -0.15267474892E+03  0.16091896187E+03  0.00000000000E+00 0.  1.
         21    1    1    2  505  501  0.12862640912E+03  0.98533822669E+02 -0.27835419855E+03  0.32207875929E+03  0.00000000000E+00 0.  1.
         -1    1    1    2    0  503 -0.41808706657E+02  0.16165741635E+00  0.40277079670E+02  0.58053744343E+02  0.00000000000E+00 0.  1.
<scales pt_clust_3="14000.00000" pt_clust_4="51.72693" pt_clust_5="146.24813" pt_clust_6="41.80902"></scales>
<clustering>
<clus scale="   41.809">  1  6  2 -1</clus>
<clus scale="   51.727">  2  4  1 -1</clus>
<clus scale="  146.248">  2  5  1 -1</clus>
<clus scale="   51.727">  2  3  1 -1</clus>
</clustering>
</event>
<event>
 6    0  0.1361744E+002  0.1407852E+03  0.7546771E-02  0.1212276E+00
         21   -1    0    0  504  502  0.00000000000E+00  0.00000000000E+00  0.34576502200E+03  0.34576502200E+03  0.00000000000E+00 0. -1.
          2   -1    0    0  503    0 -0.00000000000E+00 -0.00000000000E+00 -0.21692973919E+04  0.21692973919E+04  0.00000000000E+00 0.  1.
         21    1    1    2  503  502 -0.89825175087E+02 -0.18362473763E+02 -0.67617081129E+02  0.11392020094E+03  0.00000000000E+00 0.  1.
         21    1    1    2  504  505  0.28912877744E+02 -0.27869286581E+02  0.49137002032E+02  0.63459409095E+02  0.00000000000E+00 0.  1.
         21    1    1    2  505  501 -0.81271499765E+02  0.11831084322E+02  0.25733045455E+03  0.27011848154E+03  0.00000000000E+00 0. -1.
          2    1    1    2  501    0  0.14218379711E+03  0.34400676021E+02 -0.20623827453E+04  0.20675643223E+04  0.00000000000E+00 0.  1.
<scales pt_clust_3="14000.00000" pt_clust_4="40.15783" pt_clust_5="56.57876" pt_clust_6="140.78520"></scales>
<clustering>
<clus scale="   40.158">  1  4  2 -1</clus>
<clus scale="   56.579">  1  5  2 -1</clus>
<clus scale="  140.785">  2  6  1 -1</clus>
<clus scale="   40.158">  1  3  2 -1</clus>
</clustering>
</event>
<event>
 6    0  0.1361744E+002  0.8402140E+02  0.7546771E-02  0.1318012E+00
          1   -1    0    0  505    0 -0.00000000000E+00  0.00000000000E+00  0.22947206423E+03  0.22947206423E+03  0.00000000000E+00 0. -1.
         21   -1    0    0  504  502  0.00000000000E+00 -0.00000000000E+00 -0.45739645416E+03  0.45739645416E+03  0.00000000000E+00 0.  1.
         21    1    1    2  503  502 -0.35253401367E+02 -0.26940787726E+02 -0.46356412350E+02  0.64167946182E+02  0.00000000000E+00 0. -1.
         21    1    1    2  504  501  0.11452147874E+03  0.62900530194E+02 -0.37611247309E+03  0.39816107068E+03  0.00000000000E+00 0.  1.
         21    1    1    2  505  503 -0.26698213786E+02 -0.50786388809E+02  0.10486954178E+03  0.11953941903E+03  0.00000000000E+00 0.  1.
          1    1    1    2  501    0 -0.52569863584E+02  0.14826646342E+02  0.89674953730E+02  0.10500008250E+03  0.00000000000E+00 0. -1.
<scales pt_clust_3="44.36900" pt_clust_4="14000.00000" pt_clust_5="84.02140" pt_clust_6="55.13202"></scales>
<clustering>
<clus scale="   44.369">  2  3  1 -1</clus>
<clus scale="   55.132">  1  6  2 -1</clus>
<clus scale="   84.021">  1  5  2 -1</clus>
<clus scale="   44.369">  2  3  1 -1</clus>
</clustering>
</event>
<event>
 6    0  0.1361744E+002  0.9488302E+02  0.7546771E-02  0.1291440E+00
         21   -1    0    0  504  502  0.00000000000E+00  0.00000000000E+00  0.10255379531E+04  0.10255379531E+04  0.00000000000E+00 0.  1.
          2   -1    0    0  505    0 -0.00000000000E+00 -0.00000000000E+00 -0.53983146257E+03  0.53983146257E+03  0.00000000000E+00 0.  1.
         21    1    1    2  503  502  0.21111853635E+02  0.35258651400E+02  0.27056494839E+03  0.27366818258E+03  0.00000000000E+00 0.  1.
         21    1    1    2  504  501 -0.43011147039E+02 -0.35486435959E+01  0.71335362187E+03  0.71465791920E+03  0.00000000000E+00 0.  1.
         21    1    1    2  505  503  0.24233046065E+02 -0.12254923175E+03 -0.78347509262E+02  0.14745808534E+03  0.00000000000E+00 0.  1.
          2    1    1    2  501    0 -0.23337526606E+01  0.90839223950E+02 -0.41986457049E+03  0.42958522852E+03  0.00000000000E+00 0.  1.
<scales pt_clust_3="41.09602" pt_clust_4="37.69771" pt_clust_5="94.88302" pt_clust_6="14000.00000"></scales>
<clustering>
<clus scale="   41.096">  1  3  2 -1</clus>
<clus scale="   37.698">  1  4  2 -1</clus>
<clus scale="   94.883">  1  5  2 -1</clus>
<clus scale="   41.096">  1  3  2 -1</clus>
</clustering>
</event>
<event>
 6    0  0.1361744E+002  0.1019698E+03  0.7546771E-02  0.1276208E+00
          2   -1    0    0  505    0 -0.00000000000E+00  0.00000000000E+00  0.12398785566E+04  0.12398785566E+04  0.00000000000E+00 0. -1.
         21   -1    0    0  501  502  0.00000000000E+00 -0.00000000000E+00 -0.34323926858E+02  0.34323926858E+02  0.00000000000E+00 0. -1.
         21    1    1    2  503  504  0.36303202891E+02  0.25163577886E+02  0.61780059993E+02  0.75946718198E+02  0.00000000000E+00 0. -1.
         21    1    1    2  504  502  0.40420487672E+02  0.21997899966E+02  0.20998531621E+02  0.50583216157E+02  0.00000000000E+00 0. -1.
         21    1    1    2  505  503  0.77652175226E+02 -0.24400357528E+02  0.35744710338E+03  0.36659742154E+03  0.00000000000E+00 0. -1.
          2    1    1    2  501    0 -0.15437586579E+03 -0.22761120325E+02  0.76532893479E+03  0.78107512761E+03  0.00000000000E+00 0. -1.
<scales pt_clust_3="31.69829" pt_clust_4="31.69829" pt_clust_5="81.39556" pt_clust_6="96.70073"></scales>
<clustering>
<clus scale="   31.698">  3  4 -1 -1</clus>
<clus scale="   81.396">  1  5  2 -1</clus>
<clus scale="   96.701">  1  6  2 -1</clus>
<clus scale="  101.970">  2  3  1 -1</clus>
</clustering>
</event>
<event>
 6    0  0.1361744E+002  0.1183076E+03  0.7546771E-02  0.1245915E+00
         21   -1    0    0  504  502  0.00000000000E+00  0.00000000000E+00  0.30019549046E+03  0.30019549046E+03  0.00000000000E+00 0.  1.
          1   -1    0    0  503    0 -0.00000000000E+00 -0.00000000000E+00 -0.18742910825E+03  0.18742910825E+03  0.00000000000E+00 0.  1.
         21    1    1    2  503  505 -0.33765559131E+01  0.33900280460E+02 -0.33049388178E+02  0.47464641619E+02  0.00000000000E+00 0.  1.
         21    1    1    2  504  501  0.34093256015E+02 -0.73765576722E+02  0.15652005163E+03  0.17635826314E+03  0.00000000000E+00 0. -1.
         21    1    1    2  505  502  0.75058160151E+02 -0.50529760758E+01  0.85533893049E+02  0.11390920434E+03  0.00000000000E+00 0.  1.
          1    1    1    2  501    0 -0.10577486025E+03  0.44918272338E+02 -0.96238174292E+02  0.14989248961E+03  0.00000000000E+00 0.  1.
<scales pt_clust_3="34.06802" pt_clust_4="118.30763" pt_clust_5="74.75397" pt_clust_6="14000.00000"></scales>
<clustering>
<clus scale="   34.068">  2  3  1 -1</clus>
<clus scale="   74.754">  1  5  2 -1</clus>
<clus scale="  118.308">  1  4  2 -1</clus>
<clus scale="   74.754">  1  3  2 -1</clus>
</clustering>
</event>
<event>
 6    0  0.1361744E+002  0.3254722E+03  0.7546771E-02  0.1073158E+00
          1   -1    0    0  503    0 -0.00000000000E+00  0.00000000000E+00  0.53312524912E+03  0.53312524912E+03  0.00000000000E+00 0. -1.
         21   -1    0    0  504  502  0.00000000000E+00 -0.00000000000E+00 -0.17879492304E+04  0.17879492304E+04  0.00000000000E+00 0.  1.
         21    1    1    2  503  502 -0.42222163302E+02  0.78972004547E+01  0.61808797520E+02  0.75268880022E+02  0.00000000000E+00 0. -1.
         21    1    1    2  504  505  0.27539922245E+01  0.53434429409E+02 -0.51030798509E+03  0.51310531314E+03  0.00000000000E+00 0.  1.
         21    1    1    2  505  501  0.10327839736E+02  0.25981177630E+03 -0.11976968532E+04  0.12255964162E+04  0.00000000000E+00 0.  1.
          1    1    1    2  501    0  0.29140331341E+02 -0.32114340617E+03  0.39137205942E+03  0.50710387016E+03  0.00000000000E+00 0. -1.
<scales pt_clust_3="42.95436" pt_clust_4="39.30834" pt_clust_5="39.30834" pt_clust_6="313.72486"></scales>
<clustering>
<clus scale="   39.308">  4  5 -1 -1</clus>
<clus scale="   42.954">  1  3  2 -1</clus>
<clus scale="  313.725">  1  6  2 -1</clus>
<clus scale="  325.472">  2  3  1 -1</clus>
</clustering>
</event>
<event>
 6    0  0.1361744E+002  0.1052431E+03  0.7546771E-02  0.1269641E+00
          2   -1    0    0  505    0 -0.00000000000E+00  0.00000000000E+00  0.87692986463E+03  0.87692986463E+03  0.00000000000E+00 0. -1.
         21   -1    0    0  503  502  0.00000000000E+00 -0.00000000000E+00 -0.21667596618E+03  0.21667596618E+03  0.00000000000E+00 0. -1.
         21    1    1    2  503  501 -0.37648539716E+02  0.50680425448E+02  0.19534841948E+03  0.20529715794E+03  0.00000000000E+00 0.  1.
         21    1    1    2  504  502  0.41076958871E+02 -0.17941644082E+02 -0.33371798491E+00  0.44825556440E+02  0.00000000000E+00 0. -1.
         21    1    1    2  505  504 -0.24062643847E+01 -0.90894456782E+02 -0.17680190045E+03  0.19881273698E+03  0.00000000000E+00 0. -1.
          2    1    1    2  501    0 -0.10221547705E+01  0.58155675416E+02  0.64204109741E+03  0.64467037945E+03  0.00000000000E+00 0. -1.
<scales pt_clust_3="105.24312" pt_clust_4="44.82431" pt_clust_5="14000.00000" pt_clust_6="58.03892"></scales>
<clustering>
<clus scale="   44.824">  2  4  1 -1</clus>
<clus scale="   58.039">  1  6  2 -1</clus>
<clus scale="  105.243">  1  3  2 -1</clus>
<clus scale="   44.824">  2  3  1 -1</clus>
</clustering>
</event>
<event>
 6    0  0.1361744E+002  0.1652514E+03  0.7546771E-02  0.1182892E+00
          2   -1    0    0  503    0 -0.00000000000E+00  0.00000000000E+00  0.15981077993E+04  0.15981077993E+04  0.00000000000E+00 0. -1.
         21   -1    0    0  504  502  0.00000000000E+00 -0.00000000000E+00 -0.59286386135E+02  0.59286386135E+02  0.00000000000E+00 0. -1.
         21    1    1    2  503  505  0.38716869229E+02  0.19366695700E+02  0.91122901726E+02  0.10088333898E+03  0.00000000000E+00 0.  1.
         21    1    1    2  504  501 -0.84252112695E+00 -0.16946458839E+03  0.16007196261E+03  0.23311368423E+03  0.00000000000E+00 0. -1.
         21    1    1    2  505  502  0.36149434411E+02  0.44315675451E+00  0.13833310702E+02  0.38708377402E+02  0.00000000000E+00 0. -1.
          2    1    1    2  501    0 -0.74023782512E+02  0.14965473593E+03  0.12737932381E+04  0.12846887849E+04  0.00000000000E+00 0. -1.
<scales pt_clust_3="46.70787" pt_clust_4="165.25141" pt_clust_5="36.15215" pt_clust_6="14000.00000"></scales>
<clustering>
<clus scale="   36.152">  2  5  1 -1</clus>
<clus scale="   46.708">  2  3  1 -1</clus>
<clus scale="  165.251">  2  4  1 -1</clus>
<clus scale="   36.152">  2  3  1 -1</clus>
</clustering>
</event>
<event>
 6    0  0.1361744E+002  0.9422727E+02  0.7546771E-02  0.1292926E+00
          2   -1    0    0  505    0 -0.00000000000E+00  0.00000000000E+00  0.12667465234E+03  0.12667465234E+03  0.00000000000E+00 0. -1.
         21   -1    0    0  501  502  0.00000000000E+00 -0.00000000000E+00 -0.89813844808E+03  0.89813844808E+03  0.00000000000E+00 0.  1.
         21    1    1    2  503  504  0.43774330273E+02  0.33345703151E+01 -0.38719264252E+03  0.38967352204E+03  0.00000000000E+00 0.  1.
         21    1    1    2  504  502  0.36596581085E+02 -0.33163792416E+02 -0.42750681170E+03  0.43035011436E+03  0.00000000000E+00 0.  1.
         21    1    1    2  505  503  0.12567609379E+01 -0.65970304083E+02  0.43315897348E+02  0.78929889344E+02  0.00000000000E+00 0.  1.
          2    1    1    2  501    0 -0.81627672296E+02  0.95799526184E+02 -0.80238855266E-01  0.12585957469E+03  0.00000000000E+00 0. -1.
<scales pt_clust_3="34.69649" pt_clust_4="34.69649" pt_clust_5="65.98227" pt_clust_6="86.74376"></scales>
<clustering>
<clus scale="   34.696">  3  4 -1 -1</clus>
<clus scale="   65.982">  1  5  2 -1</clus>
<clus scale="   86.744">  1  6  2 -1</clus>
<clus scale="   94.227">  2  3  1 -1</clus>
</clustering>
</event>
<event>
 6    0  0.1361744E+002  0.1442095E+03  0.7546771E-02  0.1207774E+00
          2   -1    0    0  504    0 -0.00000000000E+00  0.00000000000E+00  0.26179425261E+04  0.26179425261E+04  0.00000000000E+00 0. -1.
         21   -1    0    0  501  502  0.00000000000E+00 -0.00000000000E+00 -0.65763642407E+03  0.65763642407E+03  0.00000000000E+00 0. -1.
         21    1    1    2  503  502 -0.28343767117E+02  0.13915094020E+02 -0.94584051604E+02  0.99715303709E+02  0.00000000000E+00 0. -1.
         21    1    1    2  504  505  0.60190126300E+02 -0.32592937871E+02  0.63097707538E+02  0.93093885941E+02  0.00000000000E+00 0.  1.
         21    1    1    2  505  503  0.42701784125E+02  0.13003402714E+03 -0.53510012411E+03  0.55232638305E+03  0.00000000000E+00 0. -1.
          2    1    1    2  501    0 -0.74548143307E+02 -0.11135618329E+03  0.25268925702E+04  0.25304433774E+04  0.00000000000E+00 0. -1.
<scales pt_clust_3="31.57529" pt_clust_4="67.60392" pt_clust_5="144.20953" pt_clust_6="14000.00000"></scales>
<clustering>
<clus scale="   31.575">  2  3  1 -1</clus>
<clus scale="   67.604">  1  4  2 -1</clus>
<clus scale="  144.210">  2  5  1 -1</clus>
<clus scale="   31.575">  2  3  1 -1</clus>
</clustering>
</event>
<event>
 6    0  0.1361744E+002  0.1171994E+03  0.7546771E-02  0.1247790E+00
         21   -1    0    0  505  502  0.00000000000E+00  0.00000000000E+00  0.32904097031E+02  0.32904097031E+02  0.00000000000E+00 0. -1.
          1   -1    0    0  504    0 -0.00000000000E+00 -0.00000000000E+00 -0.24769859858E+04  0.24769859858E+04  0.00000000000E+00 0. -1.
         21    1    1    2  503  501  0.77633752138E+02 -0.11299088850E+03 -0.17926321047E+03  0.22567507390E+03  0.00000000000E+00 0. -1.
         21    1    1    2  504  502 -0.51767088421E+02  0.96544300695E+01 -0.38660429949E+03  0.39017422243E+03  0.00000000000E+00 0. -1.
         21    1    1    2  505  503 -0.42601621220E+02 -0.23348749935E+00 -0.64529397033E+02  0.77323966068E+02  0.00000000000E+00 0. -1.
          1    1    1    2  501    0  0.16734957504E+02  0.10356994593E+03 -0.18136849818E+04  0.18167168204E+04  0.00000000000E+00 0. -1.
<scales pt_clust_3="117.19941" pt_clust_4="55.47957" pt_clust_5="42.60226" pt_clust_6="14000.00000"></scales>
<clustering>
<clus scale="   42.602">  1  5  2 -1</clus>
<clus scale="   55.480">  2  4  1 -1</clus>
<clus scale="  117.199">  1  3  2 -1</clus>
<clus scale="   42.602">  1  3  2 -1</clus>
</clustering>
</event>
<event>
 6    0  0.1361744E+002  0.9035521E+02  0.7546771E-02  0.1301994E+00
          2   -1    0    0  505    0 -0.00000000000E+00  0.00000000000E+00  0.20265354208E+04  0.20265354208E+04  0.00000000000E+00 0.  1.
         21   -1    0    0  501  502  0.00000000000E+00 -0.00000000000E+00 -0.62557616807E+03  0.62557616807E+03  0.00000000000E+00 0. -1.
         21    1    1    2  503  502 -0.50012075644E+02 -0.80838038780E+02 -0.49644095836E+03  0.50545981182E+03  0.00000000000E+00 0. -1.
         21    1    1    2  504  503  0.98416877483E+02  0.13361279956E+02 -0.10034886307E+03  0.14118888021E+03  0.00000000000E+00 0. -1.
         21    1    1    2  505  504 -0.53711316531E+02  0.24318603598E+02  0.23861246159E+03  0.24578894774E+03  0.00000000000E+00 0.  1.
          2    1    1    2  501    0  0.53065146920E+01  0.43158155226E+02  0.17591366126E+04  0.17596739491E+04  0.00000000000E+00 0.  1.
<scales pt_clust_3="14000.00000" pt_clust_4="90.35521" pt_clust_5="80.10618" pt_clust_6="43.48316"></scales>
<clustering>
<clus scale="   43.483">  1  6  2 -1</clus>
<clus scale="   80.106">  1  5  2 -1</clus>
<clus scale="   90.355">  1  4  2 -1</clus>
<clus scale="   90.355">  2  3  1 -1</clus>
</clustering>
</event>
<event>
 6    0  0.1361744E+002  0.3433165E+03  0.7546771E-02  0.1065392E+00
          1   -1    0    0  505    0 -0.00000000000E+00  0.00000000000E+00  0.34521208605E+03  0.34521208605E+03  0.00000000000E+00 0.  1.
         21   -1    0    0  503  502  0.00000000000E+00 -0.00000000000E+00 -0.12394078858E+04  0.12394078858E+04  0.00000000000E+00 0.  1.
         21    1    1    2  503  504 -0.61726927885E+02  0.10692037602E+03 -0.45087702904E+03  0.46747435839E+03  0.00000000000E+00 0.  1.
         21    1    1    2  504  501 -0.49923002545E+02  0.21827960276E+03 -0.61033023810E+03  0.65010867608E+03  0.00000000000E+00 0.  1.
         21    1    1    2  505  502  0.79970413178E+02 -0.59737312275E+02 -0.59869067390E+02  0.11639638608E+03  0.00000000000E+00 0.  1.
          1    1    1    2  501    0  0.31679517252E+02 -0.26546266651E+03  0.22688053481E+03  0.35064055128E+03  0.00000000000E+00 0.  1.
<scales pt_clust_3="50.41749" pt_clust_4="50.41749" pt_clust_5="99.81890" pt_clust_6="336.53525"></scales>
<clustering>
<clus scale="   50.417">  3  4 -1 -1</clus>
<clus scale="   99.819">  1  5  2 -1</clus>
<clus scale="  336.535">  1  6  2 -1</clus>
<clus scale="  343.317">  2  3  1 -1</clus>
</clustering>
</event>
<event>
 6    0  0.1361744E+002  0.1118267E+03  0.7546771E-02  0.1257224E+00
         21   -1    0    0  504  502  0.00000000000E+00  0.00000000000E+00  0.49578473165E+03  0.49578473165E+03  0.00000000000E+00 0. -1.
          2   -1    0    0  505    0 -0.00000000000E+00 -0.00000000000E+00 -0.26443626932E+03  0.26443626932E+03  0.00000000000E+00 0. -1.
         21    1    1    2  503  502  0.92191538616E+01 -0.83911443033E+02  0.37150672120E+03  0.38097685884E+03  0.00000000000E+00 0. -1.
         21    1    1    2  504  501 -0.50046358119E+02 -0.24080682912E+02  0.90083148132E+02  0.10582764680E+03  0.00000000000E+00 0. -1.
         21    1    1    2  505  503 -0.14753930022E+02  0.27883100736E+02 -0.10892623533E+02  0.33373567462E+02  0.00000000000E+00 0. -1.
          2    1    1    2  501    0  0.55581134279E+02  0.80109025210E+02 -0.21934878348E+03  0.24004292787E+03  0.00000000000E+00 0. -1.
<scales pt_clust_3="111.82667" pt_clust_4="55.58702" pt_clust_5="31.54593" pt_clust_6="14000.00000"></scales>
<clustering>
<clus scale="   31.546">  2  5  1 -1</clus>
<clus scale="   55.587">  1  4  2 -1</clus>
<clus scale="  111.827">  1  3  2 -1</clus>
<clus scale="   55.587">  1  3  2 -1</clus>
</clustering>
</event>
<event>
 6    0  0.1361744E+002  0.1001346E+03  0.7546771E-02  0.1280013E+00
         21   -1    0    0  501  502  0.00000000000E+00  0.00000000000E+00  0.24153498443E+03  0.24153498443E+03  0.00000000000E+00 0.  1.
          3   -1    0    0  503    0 -0.00000000000E+00 -0.00000000000E+00 -0.83498693786E+03  0.83498693786E+03  0.00000000000E+00 0.  1.
         21    1    1    2  503  504 -0.17107443619E+02  0.31713841960E+02 -0.56147825798E+02  0.66715895714E+02  0.00000000000E+00 0.  1.
         21    1    1    2  504  505  0.26284114463E+02 -0.10113885453E+03  0.25585814128E+02  0.10758511260E+03  0.00000000000E+00 0. -1.
         21    1    1    2  505  502  0.22713909030E+02  0.99153128989E+02  0.15369662928E+03  0.18430930118E+03  0.00000000000E+00 0.  1.
          3    1    1    2  501    0 -0.31890579874E+02 -0.29728116420E+02 -0.71658657104E+03  0.71791161279E+03  0.00000000000E+00 0.  1.
<scales pt_clust_3="36.03377" pt_clust_4="100.13457" pt_clust_5="14000.00000" pt_clust_6="47.75389"></scales>
<clustering>
<clus scale="   36.034">  2  3  1 -1</clus>
<clus scale="   47.754">  2  6  1 -1</clus>
<clus scale="  100.135">  2  4  1 -1</clus>
<clus scale="  100.135">  1  3  2 -1</clus>
</clustering>
</event>
<event>
 6    0  0.1361744E+002  0.1346179E+03  0.7546771E-02  0.1220760E+00
         21   -1    0    0  503  502  0.00000000000E+00  0.00000000000E+00  0.18454624852E+04  0.18454624852E+04  0.00000000000E+00 0. -1.
          2   -1    0    0  504    0 -0.00000000000E+00 -0.00000000000E+00 -0.37146948238E+03  0.37146948238E+03  0.00000000000E+00 0. -1.
         21    1    1    2  503  505 -0.52217154946E+02 -0.37704801469E+02  0.28929998250E+03  0.29638279842E+03  0.00000000000E+00 0. -1.
         21    1    1    2  504  502  0.69515628175E+02  0.28731583483E+02 -0.13336779727E+02  0.76392382758E+02  0.00000000000E+00 0. -1.
         21    1    1    2  505  501 -0.63509741931E+02  0.10947904487E+03  0.15088961013E+04  0.15141950314E+04  0.00000000000E+00 0. -1.
          2    1    1    2  501    0  0.46211268702E+02 -0.10050582688E+03 -0.31086630119E+03  0.32996175507E+03  0.00000000000E+00 0. -1.
<scales pt_clust_3="64.40717" pt_clust_4="73.94743" pt_clust_5="134.61788" pt_clust_6="14000.00000"></scales>
<clustering>
<clus scale="   64.407">  1  3  2 -1</clus>
<clus scale="   73.947">  2  4  1 -1</clus>
<clus scale="  134.618">  1  5  2 -1</clus>
<clus scale="   64.407">  1  3  2 -1</clus>
</clustering>
</event>
<event>
 6    0  0.1361744E+002  0.7717260E+02  0.7546771E-02  0.1337272E+00
         21   -1    0    0  504  502  0.00000000000E+00  0.00000000000E+00  0.13334240289E+03  0.13334240289E+03  0.00000000000E+00 0. -1.
          2   -1    0    0  505    0 -0.00000000000E+00 -0.00000000000E+00 -0.39994620188E+03  0.39994620188E+03  0.00000000000E+00 0. -1.
         21    1    1    2  503  502 -0.31799970651E+02 -0.57336937771E+02 -0.81693048336E+01  0.66071931316E+02  0.00000000000E+00 0. -1.
         21    1    1    2  504  501  0.10665042721E+03  0.81151001353E+02  0.47696503198E+02  0.14224891937E+03  0.00000000000E+00 0. -1.
         21    1    1    2  505  503 -0.36310334196E+02  0.10715785342E+02 -0.45223102359E+02  0.58977940045E+02  0.00000000000E+00 0. -1.
          2    1    1    2  501    0 -0.38540122364E+02 -0.34529848923E+02 -0.26090789500E+03  0.26598981403E+03  0.00000000000E+00 0. -1.
<scales pt_clust_3="66.56120" pt_clust_4="14000.00000" pt_clust_5="37.85853" pt_clust_6="77.17260"></scales>
<clustering>
<clus scale="   37.859">  2  5  1 -1</clus>
<clus scale="   66.561">  1  3  2 -1</clus>
<clus scale="   77.173">  2  6  1 -1</clus>
<clus scale="   66.561">  1  3  2 -1</clus>
</clustering>
</event>
<event>
 6    0  0.1361744E+002  0.1428715E+03  0.7546771E-02  0.1209517E+00
          1   -1    0    0  505    0 -0.00000000000E+00  0.00000000000E+00  0.50335564041E+03  0.50335564041E+03  0.00000000000E+00 0.  1.
         21   -1    0    0  503  502  0.00000000000E+00 -0.00000000000E+00 -0.40943401461E+03  0.40943401461E+03  0.00000000000E+00 0.  1.
         21    1    1    2  503  501 -0.36451642190E+02  0.70854106483E+02  0.20100543842E+03  0.21622260034E+03  0.00000000000E+00 0.  1.
         21    1    1    2  504  502 -0.25799594160E+01 -0.54405415871E+02 -0.20436037799E+03  0.21149413599E+03  0.00000000000E+00 0.  1.
         21    1    1    2  505  504  0.62167139748E+02 -0.56529097889E+02 -0.18280627166E+03  0.20119250764E+03  0.00000000000E+00 0.  1.
          1    1    1    2  501    0 -0.23135538143E+02  0.40080407278E+02  0.28008283704E+03  0.28388041104E+03  0.00000000000E+00 0.  1.
<scales pt_clust_3="40.32655" pt_clust_4="54.33889" pt_clust_5="54.33889" pt_clust_6="136.59097"></scales>
<clustering>
<clus scale="   40.327">  3  6 -1 -1</clus>
<clus scale="   54.339">  4  5 -1 -1</clus>
<clus scale="  136.591">  1  3  2 -1</clus>
<clus scale="  142.871">  2  3  1 -1</clus>
</clustering>
</event>
<event>
 6    0  0.1361744E+002  0.2417218E+03  0.7546771E-02  0.1118651E+00
         21   -1    0    0  503  502  0.00000000000E+00  0.00000000000E+00  0.58188147268E+03  0.58188147268E+03  0.00000000000E+00 0. -1.
          2   -1    0    0  504    0 -0.00000000000E+00 -0.00000000000E+00 -0.99441183271E+02  0.99441183271E+02  0.00000000000E+00 0. -1.
         21    1    1    2  503  501 -0.42046368148E+02 -0.12405590476E+03  0.12241007167E+03  0.17928187367E+03  0.00000000000E+00 0.  1.
         21    1    1    2  504  505  0.17456659913E+02  0.12995426619E+03  0.11547033726E+03  0.17471761521E+03  0.00000000000E+00 0. -1.
         21    1    1    2  505  502  0.47097415207E+02  0.85727840834E+02  0.20072161800E+03  0.22328590897E+03  0.00000000000E+00 0. -1.
          2    1    1    2  501    0 -0.22507706971E+02 -0.91626202265E+02  0.43838262473E+02  0.10403725809E+03  0.00000000000E+00 0. -1.
<scales pt_clust_3="37.43181" pt_clust_4="76.00273" pt_clust_5="76.00273" pt_clust_6="229.41496"></scales>
<clustering>
<clus scale="   37.432">  3  6 -1 -1</clus>
<clus scale="   76.003">  4  5 -1 -1</clus>
<clus scale="  229.415">  2  3  1 -1</clus>
<clus scale="  241.722">  1  3  2 -1</clus>
</clustering>
</event>
<event>
 6    0  0.1361744E+002  0.8391507E+02  0.7546771E-02  0.1318294E+00
         21   -1    0    0  501  502  0.00000000000E+00  0.00000000000E+00  0.17077199149E+02  0.17077199149E+02  0.00000000000E+00 0.  1.
          2   -1    0    0  504    0 -0.00000000000E+00 -0.00000000000E+00 -0.16390530239E+04  0.16390530239E+04  0.00000000000E+00 0.  1.
         21    1    1    2  503  505 -0.61833719562E+02  0.91995961376E+01 -0.16086558377E+03  0.17258556570E+03  0.00000000000E+00 0.  1.
         21    1    1    2  504  503 -0.46241262088E+02  0.33412146494E+02 -0.77935208264E+03  0.78143732607E+03  0.00000000000E+00 0.  1.
         21    1    1    2  505  502 -0.15427408530E+02 -0.34096259774E+02 -0.88794509862E+02  0.96358833773E+02  0.00000000000E+00 0.  1.
          2    1    1    2  501    0  0.12350239018E+03 -0.85154828574E+01 -0.59296364850E+03  0.60574849754E+03  0.00000000000E+00 0.  1.
<scales pt_clust_3="14000.00000" pt_clust_4="56.53714" pt_clust_5="37.42405" pt_clust_6="83.91507"></scales>
<clustering>
<clus scale="   37.424">  1  5  2 -1</clus>
<clus scale="   56.537">  2  4  1 -1</clus>
<clus scale="   83.915">  2  6  1 -1</clus>
<clus scale="   37.424">  1  3  2 -1</clus>
</clustering>
</event>
<event>
 6    0  0.1361744E+002  0.1473955E+03  0.7546771E-02  0.1203710E+00
          2   -1    0    0  503    0 -0.00000000000E+00  0.00000000000E+00  0.22254714868E+04  0.22254714868E+04  0.00000000000E+00 0.  1.
         21   -1    0    0  505  502  0.00000000000E+00 -0.00000000000E+00 -0.13296644199E+03  0.13296644199E+03  0.00000000000E+00 0. -1.
         21    1    1    2  503  502 -0.41504430535E+02  0.42316778961E+02  0.36553210913E+03  0.37030669767E+03  0.00000000000E+00 0.  1.
         21    1    1    2  504  501  0.59916903579E+02 -0.34764954904E+02 -0.21313556767E+02  0.72476928232E+02  0.00000000000E+00 0. -1.
         21    1    1    2  505  504  0.71285099934E+02 -0.23605374047E+02 -0.65461218147E+02  0.99619025481E+02  0.00000000000E+00 0. -1.
          2    1    1    2  501    0 -0.89697572978E+02  0.16053549989E+02  0.18137477106E+04  0.18160352774E+04  0.00000000000E+00 0.  1.
<scales pt_clust_3="59.27333" pt_clust_4="36.77598" pt_clust_5="36.77598" pt_clust_6="142.33530"></scales>
<clustering>
<clus scale="   36.776">  4  5 -1 -1</clus>
<clus scale="   59.273">  1  3  2 -1</clus>
<clus scale="  142.335">  1  6  2 -1</clus>
<clus scale="  147.395">  2  3  1 -1</clus>
</clustering>
</event>
<event>
 6    0  0.1361744E+002  0.1388483E+03  0.7546771E-02  0.1214887E+00
         21   -1    0    0  505  502  0.00000000000E+00  0.00000000000E+00  0.39690823269E+03  0.39690823269E+03  0.00000000000E+00 0.  1.
          2   -1    0    0  503    0 -0.00000000000E+00 -0.00000000000E+00 -0.11121887799E+04  0.11121887799E+04  0.00000000000E+00 0.  1.
         21    1    1    2  503  504  0.11365359103E+02 -0.63004733570E+02 -0.25224636402E+02  0.68811700468E+02  0.00000000000E+00 0.  1.
         21    1    1    2  504  502 -0.29357360050E+02  0.35583134592E+02  0.19485167680E+02  0.50076799179E+02  0.00000000000E+00 0.  1.
         21    1    1    2  505  501 -0.12070443612E+03  0.16539958629E+02  0.32462109766E+03  0.34673042580E+03  0.00000000000E+00 0.  1.
          2    1    1    2  501    0  0.13869643707E+03  0.10881640349E+02 -0.10341621761E+04  0.10434780871E+04  0.00000000000E+00 0.  1.
<scales pt_clust_3="61.61550" pt_clust_4="46.13040" pt_clust_5="138.84826" pt_clust_6="14000.00000"></scales>
<clustering>
<clus scale="   46.130">  1  4  2 -1</clus>
<clus scale="   61.616">  1  3  2 -1</clus>
<clus scale="  138.848">  1  5  2 -1</clus>
<clus scale="   46.130">  1  3  2 -1</clus>
</clustering>
</event>
<event>
 6    0  0.1361744E+002  0.1759079E+03  0.7546771E-02  0.1171823E+00
         -1   -1    0    0    0  501 -0.00000000000E+00  0.00000000000E+00  0.19954274000E+03  0.19954274000E+03  0.00000000000E+00 0.  1.
         21   -1    0    0  505  502  0.00000000000E+00 -0.00000000000E+00 -0.34233994794E+03  0.34233994794E+03  0.00000000000E+00 0. -1.
         21    1    1    2  503  504  0.11997134537E+03 -0.90929351201E+01 -0.99415171810E+02  0.15607428221E+03  0.00000000000E+00 0. -1.
         21    1    1    2  504  501 -0.60519602114E+02  0.50534382077E+02  0.72487638600E+02  0.10710183827E+03  0.00000000000E+00 0.  1.
         21    1    1    2  505  503  0.57844873445E+02 -0.97700135279E+00 -0.14073265341E+03  0.15215999360E+03  0.00000000000E+00 0. -1.
         -1    1    1    2    0  502 -0.11729661671E+03 -0.40464445605E+02  0.24862978683E+02  0.12654657387E+03  0.00000000000E+00 0.  1.
<scales pt_clust_3="51.97202" pt_clust_4="78.84381" pt_clust_5="51.97202" pt_clust_6="159.14213"></scales>
<clustering>
<clus scale="   51.972">  3  5 -1 -1</clus>
<clus scale="   78.844">  1  4  2 -1</clus>
<clus scale="  159.142">  1  6  2 -1</clus>
<clus scale="  175.908">  2  3  1 -1</clus>
</clustering>
</event>
<event>
 6    0  0.1361744E+002  0.2074981E+03  0.7546771E-02  0.1143563E+00
         21   -1    0    0  503  502  0.00000000000E+00  0.00000000000E+00  0.31900457914E+03  0.31900457914E+03  0.00000000000E+00 0.  1.
          2   -1    0    0  502    0 -0.00000000000E+00 -0.00000000000E+00 -0.25440950826E+04  0.25440950826E+04  0.00000000000E+00 0.  1.
         21    1    1    2  503  505  0.51156900670E+02 -0.57507760339E+00  0.16889243297E+03  0.17647099794E+03  0.00000000000E+00 0.  1.
         21    1    1    2  504  501 -0.63934857880E+02  0.44980458020E+01 -0.11832668694E+04  0.11850014273E+04  0.00000000000E+00 0.  1.
         21    1    1    2  505  504  0.14727729795E+03 -0.22115961082E+02  0.10289904624E+03  0.18101914800E+03  0.00000000000E+00 0.  1.
          2    1    1    2  501    0 -0.13449934074E+03  0.18192992884E+02 -0.13136151132E+04  0.13206080884E+04  0.00000000000E+00 0.  1.
<scales pt_clust_3="51.16013" pt_clust_4="42.18466" pt_clust_5="198.20970" pt_clust_6="42.18466"></scales>
<clustering>
<clus scale="   42.185">  4  6 -1 -1</clus>
<clus scale="   51.160">  1  3  2 -1</clus>
<clus scale="  198.210">  1  5  2 -1</clus>
<clus scale="   51.160">  1  3  2 -1</clus>
</clustering>
</event>
<event>
 6    0  0.1361744E+002  0.9924754E+02  0.7546771E-02  0.1281886E+00
          2   -1    0    0  504    0 -0.00000000000E+00  0.00000000000E+00  0.14262763033E+04  0.14262763033E+04  0.00000000000E+00 0. -1.
         21   -1    0    0  505  502  0.00000000000E+00 -0.00000000000E+00 -0.10069380569E+03  0.10069380569E+03  0.00000000000E+00 0. -1.
         21    1    1    2  503  502 -0.50750422595E+02  0.12474367071E+02 -0.60680474268E+02  0.80083301535E+02  0.00000000000E+00 0. -1.
         21    1    1    2  504  503 -0.42562206482E+01 -0.42555289370E+02  0.12502549912E+03  0.13213797144E+03  0.00000000000E+00 0. -1.
         21    1    1    2  505  501 -0.47033242646E+02  0.37127701100E+02  0.11726122068E+02  0.61058120193E+02  0.00000000000E+00 0. -1.
          2    1    1    2  501    0  0.10203988589E+03 -0.70467788003E+01  0.12495113507E+04  0.12536907159E+04  0.00000000000E+00 0. -1.
<scales pt_clust_3="52.21695" pt_clust_4="42.76761" pt_clust_5="14000.00000" pt_clust_6="99.24754"></scales>
<clustering>
<clus scale="   42.768">  1  4  2 -1</clus>
<clus scale="   52.217">  2  3  1 -1</clus>
<clus scale="   99.248">  1  6  2 -1</clus>
<clus scale="   52.217">  2  3  1 -1</clus>
</clustering>
</event>
<event>
 6    0  0.1361744E+002  0.8197835E+02  0.7546771E-02  0.1323529E+00
          2   -1    0    0  503    0 -0.00000000000E+00  0.00000000000E+00  0.33315814484E+04  0.33315814484E+04  0.00000000000E+00 0. -1.
         21   -1    0    0  501  502  0.00000000000E+00 -0.00000000000E+00 -0.21182096084E+02  0.21182096084E+02  0.00000000000E+00 0.  1.
         21    1    1    2  503  505 -0.41467179134E+02  0.90160084879E+02  0.20924434632E+04  0.20947954589E+04  0.00000000000E+00 0. -1.
         21    1    1    2  504  502 -0.24237484650E+00  0.33652289382E+02  0.54700847971E+02  0.64223968228E+02  0.00000000000E+00 0.  1.
         21    1    1    2  505  504 -0.26795498797E+02 -0.95287083458E+02  0.16272056760E+03  0.19046157132E+03  0.00000000000E+00 0.  1.
          2    1    1    2  501    0  0.68505052778E+02 -0.28525290803E+02  0.10005344735E+04  0.10032825460E+04  0.00000000000E+00 0. -1.
<scales pt_clust_3="81.97835" pt_clust_4="33.65316" pt_clust_5="72.10676" pt_clust_6="14000.00000"></scales>
<clustering>
<clus scale="   33.653">  2  4  1 -1</clus>
<clus scale="   72.107">  2  5  1 -1</clus>
<clus scale="   81.978">  1  3  2 -1</clus>
<clus scale="   33.653">  2  3  1 -1</clus>
</clustering>
</event>
<event>
 6    0  0.1361744E+002  0.2333206E+03  0.7546771E-02  0.1124324E+00
          2   -1    0    0  504    0 -0.00000000000E+00  0.00000000000E+00  0.16639428134E+04  0.16639428134E+04  0.00000000000E+00 0. -1.
         21   -1    0    0  505  502  0.00000000000E+00 -0.00000000000E+00 -0.34171626056E+03  0.34171626056E+03  0.00000000000E+00 0.  1.
         21    1    1    2  503  502 -0.13675880682E+03  0.10655510590E+01 -0.94515360015E+02  0.16624457862E+03  0.00000000000E+00 0.  1.
         21    1    1    2  504  503  0.40722059393E+02 -0.59932034027E+02  0.47355403381E+03  0.47906529592E+03  0.00000000000E+00 0.  1.
         21    1    1    2  505  501  0.17857945716E+03  0.23235455493E+03 -0.92257505036E+02  0.30723070965E+03  0.00000000000E+00 0.  1.
          2    1    1    2  501    0 -0.82542709726E+02 -0.17348807196E+03  0.10354453841E+04  0.10531184897E+04  0.00000000000E+00 0. -1.
<scales pt_clust_3="135.53111" pt_clust_4="72.45781" pt_clust_5="233.32062" pt_clust_6="14000.00000"></scales>
<clustering>
<clus scale="   72.458">  1  4  2 -1</clus>
<clus scale="  135.531">  2  3  1 -1</clus>
<clus scale="  233.321">  2  5  1 -1</clus>
<clus scale="  135.531">  2  3  1 -1</clus>
</clustering>
</event>
<event>
 6    0  0.1361744E+002  0.1073109E+03  0.7546771E-02  0.1265632E+00
          2   -1    0    0  504    0 -0.00000000000E+00  0.00000000000E+00  0.15220599879E+04  0.15220599879E+04  0.00000000000E+00 0. -1.
         21   -1    0    0  503  502  0.00000000000E+00 -0.00000000000E+00 -0.52629288600E+02  0.52629288600E+02  0.00000000000E+00 0. -1.
         21    1    1    2  503  501 -0.58961831992E+02  0.48977568111E+02  0.66517295805E+01  0.76938581455E+02  0.00000000000E+00 0. -1.
         21    1    1    2  504  505  0.14971989164E+03 -0.25089433226E+02  0.93556288974E+03  0.94779926476E+03  0.00000000000E+00 0. -1.
         21    1    1    2  505  502 -0.18505332603E+02  0.34647500676E+02  0.49109362284E+02  0.62885817971E+02  0.00000000000E+00 0. -1.
          2    1    1    2  501    0 -0.72252727048E+02 -0.58535635561E+02  0.47810671766E+03  0.48706561228E+03  0.00000000000E+00 0. -1.
<scales pt_clust_3="107.31094" pt_clust_4="14000.00000" pt_clust_5="39.27972" pt_clust_6="92.33810"></scales>
<clustering>
<clus scale="   39.280">  2  5  1 -1</clus>
<clus scale="   92.338">  1  6  2 -1</clus>
<clus scale="  107.311">  2  3  1 -1</clus>
<clus scale="   39.280">  2  3  1 -1</clus>
</clustering>
</event>
<event>
 6    0  0.1361744E+002  0.9680989E+02  0.7546771E-02  0.1287151E+00
         21   -1    0    0  504  502  0.00000000000E+00  0.00000000000E+00  0.83420437601E+03  0.83420437601E+03  0.00000000000E+00 0. -1.
          2   -1    0    0  503    0 -0.00000000000E+00 -0.00000000000E+00 -0.41703417563E+03  0.41703417563E+03  0.00000000000E+00 0. -1.
         21    1    1    2  503  505  0.46502512850E+02 -0.10308269557E+01 -0.52631648772E+02  0.70239851637E+02  0.00000000000E+00 0. -1.
         21    1    1    2  504  501  0.51467267148E+02 -0.28925292426E+02  0.14151817523E+03  0.15333931671E+03  0.00000000000E+00 0. -1.
         21    1    1    2  505  502 -0.12513608620E+03 -0.34920203787E+02  0.66811328750E+03  0.68062752342E+03  0.00000000000E+00 0. -1.
          2    1    1    2  501    0  0.27166306201E+02  0.64876323169E+02 -0.33982961358E+03  0.34703185987E+03  0.00000000000E+00 0. -1.
<scales pt_clust_3="46.51394" pt_clust_4="59.72188" pt_clust_5="14000.00000" pt_clust_6="96.80989"></scales>
<clustering>
<clus scale="   46.514">  2  3  1 -1</clus>
<clus scale="   59.722">  1  4  2 -1</clus>
<clus scale="   96.810">  2  6  1 -1</clus>
<clus scale="   59.722">  1  3  2 -1</clus>
</clustering>
</event>
<event>
 6    0  0.1361744E+002  0.1671738E+03  0.7546771E-02  0.1180828E+00
         -1   -1    0    0    0  501 -0.00000000000E+00  0.00000000000E+00  0.10886499469E+03  0.10886499469E+03  0.00000000000E+00 0. -1.
         21   -1    0    0  504  502  0.00000000000E+00 -0.00000000000E+00 -0.27834519410E+03  0.27834519410E+03  0.00000000000E+00 0. -1.
         21    1    1    2  503  501 -0.93133389342E+02  0.44024396937E+01 -0.51252822996E+02  0.10639577788E+03  0.00000000000E+00 0. -1.
         21    1    1    2  504  503 -0.57387479319E+02 -0.29470165823E+02 -0.10025798927E+03  0.11922029134E+03  0.00000000000E+00 0. -1.
         21    1    1    2  505  502  0.43086433542E+02 -0.71479838042E+01 -0.22920460410E+02  0.49324252992E+02  0.00000000000E+00 0.  1.
         -1    1    1    2    0  505  0.10743443512E+03  0.32215709934E+02  0.49510732645E+01  0.11226986658E+03  0.00000000000E+00 0. -1.
<scales pt_clust_3="56.79620" pt_clust_4="56.79620" pt_clust_5="31.23113" pt_clust_6="160.59191"></scales>
<clustering>
<clus scale="   31.231">  5  6 -1 -1</clus>
<clus scale="   56.796">  3  4 -1 -1</clus>
<clus scale="  160.592">  1  5  2 -1</clus>
<clus scale="  167.174">  2  3  1 -1</clus>
</clustering>
</event>
<event>
 6    0  0.1361744E+002  0.1484609E+03  0.7546771E-02  0.1202377E+00
         -3   -1    0    0    0  501 -0.00000000000E+00  0.00000000000E+00  0.71701180406E+03  0.71701180406E+03  0.00000000000E+00 0. -1.
         21   -1    0    0  503  502  0.00000000000E+00 -0.00000000000E+00 -0.14910965900E+04  0.14910965900E+04  0.00000000000E+00 0.  1.
         21    1    1    2  503  505 -0.41367437346E+02 -0.19323441853E+02 -0.46464848791E+03  0.46688636476E+03  0.00000000000E+00 0.  1.
         21    1    1    2  504  502 -0.95893250247E+02  0.80077004548E+02 -0.98922603492E+03  0.99708374285E+03  0.00000000000E+00 0.  1.
         21    1    1    2  505  501  0.93976152919E+02  0.65061412838E+02  0.10863154922E+03  0.15768740674E+03  0.00000000000E+00 0. -1.
         -3    1    1    2    0  504  0.43284534674E+02 -0.12581497553E+03  0.57115818766E+03  0.58645087973E+03  0.00000000000E+00 0. -1.
<scales pt_clust_3="45.65808" pt_clust_4="14000.00000" pt_clust_5="113.22346" pt_clust_6="148.46091"></scales>
<clustering>
<clus scale="   45.658">  2  3  1 -1</clus>
<clus scale="  113.223">  1  5  2 -1</clus>
<clus scale="  148.461">  1  6  2 -1</clus>
<clus scale="   45.658">  2  3  1 -1</clus>
</clustering>
</event>
<event>
 6    0  0.1361744E+002  0.2257455E+03  0.7546771E-02  0.1129671E+00
         21   -1    0    0  504  502  0.00000000000E+00  0.00000000000E+00  0.52785994859E+03  0.52785994859E+03  0.00000000000E+00 0.  1.
         -1   -1    0    0    0  501 -0.00000000000E+00 -0.00000000000E+00 -0.18219697023E+04  0.18219697023E+04  0.00000000000E+00 0. -1.
         21    1    1    2  503  502 -0.91608375064E+02 -0.10064898776E+03  0.27700174693E+03  0.30862968250E+03  0.00000000000E+00 0.  1.
         21    1    1    2  504  501  0.21831329836E+01  0.73714481544E+02 -0.97855187882E+03  0.98132684178E+03  0.00000000000E+00 0. -1.
         21    1    1    2  505  503 -0.31382203758E+02 -0.85335612037E+02  0.21616243642E+03  0.23450630762E+03  0.00000000000E+00 0.  1.
         -1    1    1    2    0  505  0.12080744584E+03  0.11227011826E+03 -0.80872205827E+03  0.82536681903E+03  0.00000000000E+00 0. -1.
<scales pt_clust_3="37.17719" pt_clust_4="73.74680" pt_clust_5="37.17719" pt_clust_6="221.11576"></scales>
<clustering>
<clus scale="   37.177">  3  5 -1 -1</clus>
<clus scale="   73.747">  2  4  1 -1</clus>
<clus scale="  221.116">  2  6  1 -1</clus>
<clus scale="  225.745">  1  3  2 -1</clus>
</clustering>
</event>
<event>
 6    0  0.1361744E+002  0.7321920E+02  0.7546771E-02  0.1349476E+00
          2   -1    0    0  504    0 -0.00000000000E+00  0.00000000000E+00  0.32687506046E+03  0.32687506046E+03  0.00000000000E+00 0. -1.
         21   -1    0    0  501  502  0.00000000000E+00 -0.00000000000E+00 -0.64240200990E+03  0.64240200990E+03  0.00000000000E+00 0. -1.
         21    1    1    2  503  502  0.17841615938E+02 -0.64398681346E+02 -0.26603345447E+03  0.27429785328E+03  0.00000000000E+00 0.  1.
         21    1    1    2  504  505 -0.16023904422E+02 -0.71187708532E+02  0.30280080135E+03  0.31146874748E+03  0.00000000000E+00 0. -1.
         21    1    1    2  505  503 -0.11237040996E+02  0.96332007852E+02 -0.31096127859E+03  0.32573462145E+03  0.00000000000E+00 0. -1.
          2    1    1    2  501    0  0.94193294798E+01  0.39254382026E+02 -0.41333017730E+02  0.57775848162E+02  0.00000000000E+00 0. -1.
<scales pt_clust_3="51.50835" pt_clust_4="73.21920" pt_clust_5="14000.00000" pt_clust_6="40.36868"></scales>
<clustering>
<clus scale="   40.369">  2  6  1 -1</clus>
<clus scale="   51.508">  2  3  1 -1</clus>
<clus scale="   73.219">  1  4  2 -1</clus>
<clus scale="   40.369">  2  3  1 -1</clus>
</clustering>
</event>
<event>
 6    0  0.1361744E+002  0.3284325E+03  0.7546771E-02  0.1071833E+00
         21   -1    0    0  505  502  0.00000000000E+00  0.00000000000E+00  0.18367807019E+03  0.18367807019E+03  0.00000000000E+00 0.  1.
         -1   -1    0    0    0  501 -0.00000000000E+00 -0.00000000000E+00 -0.10114961364E+04  0.10114961364E+04  0.00000000000E+00 0.  1.
         21    1    1    2  503  504  0.10538217218E+03 -0.96681359798E+02 -0.34042923155E+00  0.14301329812E+03  0.00000000000E+00 0.  1.
         21    1    1    2  504  501 -0.20332603639E+02  0.24532938118E+02 -0.22135721731E+03  0.22363876560E+03  0.00000000000E+00 0.  1.
         21    1    1    2  505  503  0.14370112461E+03 -0.12474627255E+03 -0.51569171342E+02  0.19715736142E+03  0.00000000000E+00 0.  1.
         -1    1    1    2    0  502 -0.22875069316E+03  0.19689469423E+03 -0.55455124830E+03  0.63136478142E+03  0.00000000000E+00 0.  1.
<scales pt_clust_3="38.38725" pt_clust_4="31.86346" pt_clust_5="38.38725" pt_clust_6="325.45223"></scales>
<clustering>
<clus scale="   31.863">  2  4  1 -1</clus>
<clus scale="   38.387">  3  5 -1 -1</clus>
<clus scale="  325.452">  2  6  1 -1</clus>
<clus scale="  328.433">  1  3  2 -1</clus>
</clustering>
</event>
<event>
 6    0  0.1361744E+002  0.1046706E+03  0.7546771E-02  0.1270770E+00
         21   -1    0    0  501  502  0.00000000000E+00  0.00000000000E+00  0.64341609485E+03  0.64341609485E+03  0.00000000000E+00 0.  1.
          2   -1    0    0  504    0 -0.00000000000E+00 -0.00000000000E+00 -0.26801881753E+04  0.26801881753E+04  0.00000000000E+00 0.  1.
         21    1    1    2  503  502  0.16879155478E+02 -0.45738519142E+02  0.20630130538E+03  0.21198383576E+03  0.00000000000E+00 0.  1.
         21    1    1    2  504  505  0.85695005141E+02  0.10669381059E+03 -0.14642021365E+03  0.20041477513E+03  0.00000000000E+00 0.  1.
         21    1    1    2  505  503 -0.11013496769E+02 -0.49720296073E+02  0.40483082920E+03  0.40802132937E+03  0.00000000000E+00 0.  1.
          2    1    1    2  501    0 -0.91560663850E+02 -0.11234995377E+02 -0.25014840014E+04  0.25031843299E+04  0.00000000000E+00 0.  1.
<scales pt_clust_3="41.24728" pt_clust_4="95.80604" pt_clust_5="41.24728" pt_clust_6="92.24739"></scales>
<clustering>
<clus scale="   41.247">  3  5 -1 -1</clus>
<clus scale="   92.247">  2  6  1 -1</clus>
<clus scale="   95.806">  2  4  1 -1</clus>
<clus scale="  104.671">  1  3  2 -1</clus>
</clustering>
</event>
<event>
 6    0  0.1361744E+002  0.1142531E+03  0.7546771E-02  0.1252890E+00
          1   -1    0    0  503    0 -0.00000000000E+00  0.00000000000E+00  0.81981092869E+03  0.81981092869E+03  0.00000000000E+00 0.  1.
         21   -1    0    0  505  502  0.00000000000E+00 -0.00000000000E+00 -0.55822946913E+03  0.55822946913E+03  0.00000000000E+00 0. -1.
         21    1    1    2  503  502 -0.26946119867E+02  0.11240953750E+03  0.52403150121E+03  0.53662930572E+03  0.00000000000E+00 0.  1.
         21    1    1    2  504  501 -0.68031307449E+02 -0.55537697207E+02 -0.30397949022E+03  0.31641148063E+03  0.00000000000E+00 0. -1.
         21    1    1    2  505  504 -0.26713820865E+02  0.15233580256E+02 -0.22295527212E+03  0.22506608710E+03  0.00000000000E+00 0. -1.
          1    1    1    2  501    0  0.12169124818E+03 -0.72105420550E+02  0.26448472069E+03  0.29993352436E+03  0.00000000000E+00 0.  1.
<scales pt_clust_3="114.25313" pt_clust_4="101.63837" pt_clust_5="30.75208" pt_clust_6="14000.00000"></scales>
<clustering>
<clus scale="   30.752">  2  5  1 -1</clus>
<clus scale="  101.638">  2  4  1 -1</clus>
<clus scale="  114.253">  1  3  2 -1</clus>
<clus scale="   30.752">  2  3  1 -1</clus>
</clustering>
</event>
<event>
 6    0  0.1361744E+002  0.1692478E+03  0.7546771E-02  0.1178635E+00
          2   -1    0    0  504    0 -0.00000000000E+00  0.00000000000E+00  0.97461482583E+03  0.97461482583E+03  0.00000000000E+00 0. -1.
         21   -1    0    0  505  502  0.00000000000E+00 -0.00000000000E+00 -0.54873562265E+03  0.54873562265E+03  0.00000000000E+00 0.  1.
         21    1    1    2  503  502 -0.10864011954E+03  0.11956262857E+03 -0.52150702652E+03  0.54595556269E+03  0.00000000000E+00 0.  1.
         21    1    1    2  504  503  0.14659591617E+02 -0.34238853158E+02  0.24972241434E+02  0.44842117860E+02  0.00000000000E+00 0. -1.
         21    1    1    2  505  501  0.28324153241E+02 -0.50786929186E+02  0.28770361071E+03  0.29352161326E+03  0.00000000000E+00 0. -1.
          2    1    1    2  501    0  0.65656374683E+02 -0.34536846221E+02  0.63471037755E+03  0.63903115468E+03  0.00000000000E+00 0. -1.
<scales pt_clust_3="161.09063" pt_clust_4="37.24517" pt_clust_5="44.40858" pt_clust_6="44.40858"></scales>
<clustering>
<clus scale="   37.245">  1  4  2 -1</clus>
<clus scale="   44.409">  5  6 -1 -1</clus>
<clus scale="  161.091">  2  3  1 -1</clus>
<clus scale="  161.091">  2  3  1 -1</clus>
</clustering>
</event>
<event>
 6    0  0.1361744E+002  0.1333984E+03  0.7546771E-02  0.1222499E+00
         21   -1    0    0  503  502  0.00000000000E+00  0.00000000000E+00  0.10269635085E+03  0.10269635085E+03  0.00000000000E+00 0.  1.
         -1   -1    0    0    0  501 -0.00000000000E+00 -0.00000000000E+00 -0.51452179952E+03  0.51452179952E+03  0.00000000000E+00 0. -1.
         21    1    1    2  503  504 -0.62236874059E+02  0.59527832338E+01  0.31621552577E+02  0.70062734090E+02  0.00000000000E+00 0.  1.
         21    1    1    2  504  505 -0.61181487619E+02 -0.36332547876E+02  0.10084240332E+02  0.71867380400E+02  0.00000000000E+00 0.  1.
         21    1    1    2  505  501  0.26481501958E+02 -0.15846829484E+02 -0.61443072685E+02  0.68757858689E+02  0.00000000000E+00 0.  1.
         -1    1    1    2    0  502  0.96936859720E+02  0.46226594126E+02 -0.39208816890E+03  0.40653017719E+03  0.00000000000E+00 0. -1.
<scales pt_clust_3="44.34326" pt_clust_4="44.34326" pt_clust_5="30.86085" pt_clust_6="124.68107"></scales>
<clustering>
<clus scale="   30.861">  2  5  1 -1</clus>
<clus scale="   44.343">  3  4 -1 -1</clus>
<clus scale="  124.681">  2  6  1 -1</clus>
<clus scale="  133.398">  1  3  2 -1</clus>
</clustering>
</event>
<event>
 6    0  0.1361744E+002  0.5627913E+03  0.7546771E-02  0.9985759E-01
          2   -1    0    0  505    0 -0.00000000000E+00  0.00000000000E+00  0.30669639109E+04  0.30669639109E+04  0.00000000000E+00 0.  1.
         21   -1    0    0  504  502  0.00000000000E+00 -0.00000000000E+00 -0.33410652738E+03  0.33410652738E+03  0.00000000000E+00 0. -1.
         21    1    1    2  503  502  0.76359462016E+01 -0.30012904667E+02  0.36807678773E+02  0.48102882841E+02  0.00000000000E+00 0.  1.
         21    1    1    2  504  501 -0.22544475293E+03  0.29927985902E+03  0.17398252586E+04  0.17797150617E+04  0.00000000000E+00 0.  1.
         21    1    1    2  505  503  0.31601222295E+03 -0.43112594985E+03 -0.61502088542E+02  0.53806673990E+03  0.00000000000E+00 0. -1.
          2    1    1    2  501    0 -0.98203416224E+02  0.16185899549E+03  0.10177265347E+04  0.10351857538E+04  0.00000000000E+00 0.  1.
<scales pt_clust_3="30.96905" pt_clust_4="33.17770" pt_clust_5="560.85337" pt_clust_6="33.17770"></scales>
<clustering>
<clus scale="   30.969">  2  3  1 -1</clus>
<clus scale="   33.178">  4  6 -1 -1</clus>
<clus scale="  560.853">  2  5  1 -1</clus>
<clus scale="   30.969">  2  3  1 -1</clus>
</clustering>
</event>
<event>
 6    0  0.1361744E+002  0.6210547E+02  0.7546771E-02  0.1389203E+00
         21   -1    0    0  503  502  0.00000000000E+00  0.00000000000E+00  0.10597774702E+03  0.10597774702E+03  0.00000000000E+00 0. -1.
          2   -1    0    0  504    0 -0.00000000000E+00 -0.00000000000E+00 -0.27249367530E+04  0.27249367530E+04  0.00000000000E+00 0. -1.
         21    1    1    2  503  501 -0.38309379864E+02  0.46563810410E+02  0.10202798230E+02  0.61154673715E+02  0.00000000000E+00 0. -1.
         21    1    1    2  504  505  0.93165641696E+00 -0.74487763846E+02 -0.11742159374E+04  0.11765765435E+04  0.00000000000E+00 0.  1.
         21    1    1    2  505  502  0.87153584122E+02 -0.13092252727E+02  0.40044359107E+02  0.96802401846E+02  0.00000000000E+00 0. -1.
          2    1    1    2  501    0 -0.49775860675E+02  0.41016206162E+02 -0.14949902258E+04  0.14963808809E+04  0.00000000000E+00 0. -1.
<scales pt_clust_3="60.29757" pt_clust_4="62.10547" pt_clust_5="59.37484" pt_clust_6="14000.00000"></scales>
<clustering>
<clus scale="   60.298">  1  3  2 -1</clus>
<clus scale="   59.375">  1  5  2 -1</clus>
<clus scale="   62.105">  1  4  2 -1</clus>
<clus scale="   60.298">  1  3  2 -1</clus>
</clustering>
</event>
<event>
 6    0  0.1361744E+002  0.1392165E+03  0.7546771E-02  0.1214387E+00
         21   -1    0    0  503  502  0.00000000000E+00  0.00000000000E+00  0.22495184652E+03  0.22495184652E+03  0.00000000000E+00 0. -1.
          2   -1    0    0  505    0 -0.00000000000E+00 -0.00000000000E+00 -0.45126478948E+03  0.45126478948E+03  0.00000000000E+00 0. -1.
         21    1    1    2  503  504  0.58972538127E+02  0.69815223473E+02  0.15186558064E+03  0.17724299779E+03  0.00000000000E+00 0. -1.
         21    1    1    2  504  501  0.41394742444E+02  0.15880846383E+02  0.34140036156E+02  0.55957734520E+02  0.00000000000E+00 0. -1.
         21    1    1    2  505  502 -0.36087003836E+02  0.99611700784E+00 -0.33950514273E+02  0.49557053124E+02  0.00000000000E+00 0. -1.
          2    1    1    2  501    0 -0.64280276735E+02 -0.86692186864E+02 -0.37836804549E+03  0.39345885056E+03  0.00000000000E+00 0. -1.
<scales pt_clust_3="33.88761" pt_clust_4="33.88761" pt_clust_5="36.10075" pt_clust_6="130.43831"></scales>
<clustering>
<clus scale="   33.888">  3  4 -1 -1</clus>
<clus scale="   36.101">  2  5  1 -1</clus>
<clus scale="  130.438">  2  6  1 -1</clus>
<clus scale="  139.217">  1  3  2 -1</clus>
</clustering>
</event>
<event>
 6    0  0.1361744E+002  0.1045600E+03  0.7546771E-02  0.1270989E+00
         -4   -1    0    0    0  501 -0.00000000000E+00  0.00000000000E+00  0.55844016904E+03  0.55844016904E+03  0.00000000000E+00 0.  1.
         21   -1    0    0  504  502  0.00000000000E+00 -0.00000000000E+00 -0.10478919345E+03  0.10478919345E+03  0.00000000000E+00 0.  1.
         21    1    1    2  503  502  0.22892699430E+01  0.66012952400E+02 -0.27880360284E+02  0.71695642343E+02  0.00000000000E+00 0.  1.
         21    1    1    2  504  501  0.52206030472E+02 -0.28521181343E+02  0.73844199988E+02  0.94825593986E+02  0.00000000000E+00 0.  1.
         21    1    1    2  505  503  0.31950060070E+02  0.20152217245E+02 -0.29131206088E+02  0.47702676723E+02  0.00000000000E+00 0.  1.
         -4    1    1    2    0  505 -0.86445360485E+02 -0.57643988301E+02  0.43681834197E+03  0.44900544943E+03  0.00000000000E+00 0.  1.
<scales pt_clust_3="37.11603" pt_clust_4="59.48888" pt_clust_5="37.11603" pt_clust_6="92.32507"></scales>
<clustering>
<clus scale="   37.116">  3  5 -1 -1</clus>
<clus scale="   59.489">  1  4  2 -1</clus>
<clus scale="   92.325">  1  6  2 -1</clus>
<clus scale="  104.560">  2  3  1 -1</clus>
</clustering>
</event>
<event>
 6    0  0.1361744E+002  0.2068341E+03  0.7546771E-02  0.1144098E+00
         21   -1    0    0  503  502  0.00000000000E+00  0.00000000000E+00  0.36169126617E+03  0.36169126617E+03  0.00000000000E+00 0. -1.
          2   -1    0    0  502    0 -0.00000000000E+00 -0.00000000000E+00 -0.10659889983E+04  0.10659889983E+04  0.00000000000E+00 0. -1.
         21    1    1    2  503  505 -0.79172329769E+02  0.12538908378E+03  0.26017826710E+03  0.29947188650E+03  0.00000000000E+00 0. -1.
         21    1    1    2  504  501  0.74348119249E+02 -0.54203976240E+02 -0.44283554353E+03  0.45229308251E+03  0.00000000000E+00 0. -1.
         21    1    1    2  505  504 -0.53890268724E+02  0.14236451206E+02  0.61866958382E+02  0.83272793549E+02  0.00000000000E+00 0. -1.
          2    1    1    2  501    0  0.58714479244E+02 -0.85421558751E+02 -0.58350741407E+03  0.59264250189E+03  0.00000000000E+00 0. -1.
<scales pt_clust_3="45.79461" pt_clust_4="34.09458" pt_clust_5="45.79461" pt_clust_6="196.24095"></scales>
<clustering>
<clus scale="   34.095">  4  6 -1 -1</clus>
<clus scale="   45.795">  3  5 -1 -1</clus>
<clus scale="  196.241">  2  4  1 -1</clus>
<clus scale="  206.834">  1  3  2 -1</clus>
</clustering>
</event>
<event>
 6    0  0.1361744E+002  0.1056959E+03  0.7546771E-02  0.1268754E+00
         21   -1    0    0  504  502  0.00000000000E+00  0.00000000000E+00  0.38794806568E+03  0.38794806568E+03  0.00000000000E+00 0.  1.
          2   -1    0    0  505    0 -0.00000000000E+00 -0.00000000000E+00 -0.40225037513E+03  0.40225037513E+03  0.00000000000E+00 0.  1.
         21    1    1    2  503  502  0.10211365316E+03 -0.79177647120E+02  0.71662405229E+02  0.14775587396E+03  0.00000000000E+00 0.  1.
         21    1    1    2  504  501 -0.10265630920E+03 -0.29645886005E+02  0.23332399504E+03  0.25662673875E+03  0.00000000000E+00 0.  1.
         21    1    1    2  505  503  0.69323160713E+02  0.10237578352E+02 -0.37543683711E+02  0.79498659160E+02  0.00000000000E+00 0.  1.
          2    1    1    2  501    0 -0.68780504678E+02  0.98585954773E+02 -0.28174502601E+03  0.30631716894E+03  0.00000000000E+00 0.  1.
<scales pt_clust_3="105.69594" pt_clust_4="104.49790" pt_clust_5="70.07502" pt_clust_6="14000.00000"></scales>
<clustering>
<clus scale="   70.075">  2  5  1 -1</clus>
<clus scale="  104.498">  1  4  2 -1</clus>
<clus scale="  105.696">  1  3  2 -1</clus>
<clus scale="  104.498">  1  3  2 -1</clus>
</clustering>
</event>
<event>
 6    0  0.1361744E+002  0.1687298E+03  0.7546771E-02  0.1179179E+00
          1   -1    0    0  504    0 -0.00000000000E+00  0.00000000000E+00  0.34956263540E+04  0.34956263540E+04  0.00000000000E+00 0. -1.
         21   -1    0    0  505  502  0.00000000000E+00 -0.00000000000E+00 -0.40249516027E+03  0.40249516027E+03  0.00000000000E+00 0. -1.
         21    1    1    2  503  502 -0.13084976531E+03 -0.20094695190E+02 -0.14525378035E+03  0.19653019759E+03  0.00000000000E+00 0. -1.
         21    1    1    2  504  503  0.73415099773E+02 -0.62318806939E+01  0.73450801347E+03  0.73819417166E+03  0.00000000000E+00 0. -1.
         21    1    1    2  505  501 -0.15827109087E+02  0.10923235712E+03 -0.21531459010E+03  0.24195573548E+03  0.00000000000E+00 0. -1.
          1    1    1    2  501    0  0.73261774625E+02 -0.82905781232E+02  0.27191915508E+04  0.27214414096E+04  0.00000000000E+00 0. -1.
<scales pt_clust_3="14000.00000" pt_clust_4="73.67912" pt_clust_5="110.29298" pt_clust_6="168.72977"></scales>
<clustering>
<clus scale="   73.679">  1  4  2 -1</clus>
<clus scale="  110.293">  2  5  1 -1</clus>
<clus scale="  168.730">  1  6  2 -1</clus>
<clus scale="  110.293">  2  3  1 -1</clus>
</clustering>
</event>
<event>
 6    0  0.1361744E+002  0.1288902E+03  0.7546771E-02  0.1229112E+00
          2   -1    0    0  502    0 -0.00000000000E+00  0.00000000000E+00  0.24078226806E+04  0.24078226806E+04  0.00000000000E+00 0. -1.
         21   -1    0    0  505  502  0.00000000000E+00 -0.00000000000E+00 -0.70271585930E+02  0.70271585930E+02  0.00000000000E+00 0. -1.
         21    1    1    2  503  504  0.67608790216E+01 -0.73649337888E+02 -0.20392428637E+02  0.76718873833E+02  0.00000000000E+00 0. -1.
         21    1    1    2  504  501 -0.16921749938E+01  0.66904034046E+02  0.50391634540E+03  0.50834112207E+03  0.00000000000E+00 0. -1.
         21    1    1    2  505  503  0.15585995556E+02 -0.52979803159E+02  0.21256674149E+02  0.59174563759E+02  0.00000000000E+00 0. -1.
          2    1    1    2  501    0 -0.20654699583E+02  0.59725107000E+02  0.18327705037E+04  0.18338597068E+04  0.00000000000E+00 0. -1.
<scales pt_clust_3="37.98136" pt_clust_4="121.16401" pt_clust_5="37.98136" pt_clust_6="63.19577"></scales>
<clustering>
<clus scale="   37.981">  3  5 -1 -1</clus>
<clus scale="   63.196">  1  6  2 -1</clus>
<clus scale="  121.164">  1  4  2 -1</clus>
<clus scale="  128.890">  2  3  1 -1</clus>
</clustering>
</event>
<event>
 6    0  0.1361744E+002  0.1314399E+03  0.7546771E-02  0.1225335E+00
          1   -1    0    0  503    0 -0.00000000000E+00  0.00000000000E+00  0.13266965108E+04  0.13266965108E+04  0.00000000000E+00 0.  1.
         21   -1    0    0  505  502  0.00000000000E+00 -0.00000000000E+00 -0.84003943001E+03  0.84003943001E+03  0.00000000000E+00 0. -1.
         21    1    1    2  503  504  0.33702039469E+02  0.27684206417E+02  0.31991910095E+02  0.54089971906E+02  0.00000000000E+00 0. -1.
         21    1    1    2  504  502 -0.22789654032E+02 -0.10913867327E+03 -0.63542081888E+03  0.64512807674E+03  0.00000000000E+00 0. -1.
         21    1    1    2  505  501 -0.35824982332E+02 -0.93469906041E+01 -0.18514748268E+03  0.18881309789E+03  0.00000000000E+00 0. -1.
          1    1    1    2  501    0  0.24912596895E+02  0.90801457460E+02  0.12752334723E+04  0.12787047943E+04  0.00000000000E+00 0.  1.
<scales pt_clust_3="43.04677" pt_clust_4="131.43994" pt_clust_5="37.02426" pt_clust_6="14000.00000"></scales>
<clustering>
<clus scale="   37.024">  2  5  1 -1</clus>
<clus scale="   43.047">  1  3  2 -1</clus>
<clus scale="  131.440">  2  4  1 -1</clus>
<clus scale="   37.024">  2  3  1 -1</clus>
</clustering>
</event>
<event>
 6    0  0.1361744E+002  0.6782911E+02  0.7546771E-02  0.1367635E+00
          3   -1    0    0  504    0 -0.00000000000E+00  0.00000000000E+00  0.73330693794E+02  0.73330693794E+02  0.00000000000E+00 0. -1.
         21   -1    0    0  505  502  0.00000000000E+00 -0.00000000000E+00 -0.14918770365E+04  0.14918770365E+04  0.00000000000E+00 0. -1.
         21    1    1    2  503  502 -0.22333072636E+02  0.62895874959E+02 -0.29837309628E+03  0.30574689173E+03  0.00000000000E+00 0.  1.
         21    1    1    2  504  503 -0.42212937144E+02  0.71449735924E+02  0.15443860532E+02  0.84412733957E+02  0.00000000000E+00 0.  1.
         21    1    1    2  505  501  0.79831473641E+02 -0.92032053568E+02 -0.11212071600E+04  0.11278069244E+04  0.00000000000E+00 0. -1.
          3    1    1    2  501    0 -0.15285463861E+02 -0.42313557316E+02 -0.14409946980E+02  0.47241180237E+02  0.00000000000E+00 0. -1.
<scales pt_clust_3="64.51806" pt_clust_4="14000.00000" pt_clust_5="67.82911" pt_clust_6="44.98980"></scales>
<clustering>
<clus scale="   44.990">  1  6  2 -1</clus>
<clus scale="   64.518">  2  3  1 -1</clus>
<clus scale="   67.829">  2  5  1 -1</clus>
<clus scale="   64.518">  2  3  1 -1</clus>
</clustering>
</event>
<event>
 6    0  0.1361744E+002  0.1994208E+03  0.7546771E-02  0.1150229E+00
         21   -1    0    0  503  502  0.00000000000E+00  0.00000000000E+00  0.14745042224E+03  0.14745042224E+03  0.00000000000E+00 0.  1.
          2   -1    0    0  504    0 -0.00000000000E+00 -0.00000000000E+00 -0.28463565370E+04  0.28463565370E+04  0.00000000000E+00 0.  1.
         21    1    1    2  503  505 -0.33340545149E+01  0.16488737144E+03  0.14445623522E+02  0.16555252103E+03  0.00000000000E+00 0.  1.
         21    1    1    2  504  502 -0.62408828745E+02  0.19916916498E+02  0.33833641791E+02  0.73731002875E+02  0.00000000000E+00 0. -1.
         21    1    1    2  505  501  0.86018621464E+01 -0.88698685636E+02 -0.12108869701E+04  0.12141617286E+04  0.00000000000E+00 0.  1.
          2    1    1    2  501    0  0.57141021113E+02 -0.96105602301E+02 -0.15362984099E+04  0.15403617067E+04  0.00000000000E+00 0.  1.
<scales pt_clust_3="194.60616" pt_clust_4="65.50989" pt_clust_5="38.88478" pt_clust_6="38.88478"></scales>
<clustering>
<clus scale="   38.885">  5  6 -1 -1</clus>
<clus scale="   65.510">  1  4  2 -1</clus>
<clus scale="  194.606">  1  3  2 -1</clus>
<clus scale="   65.510">  1  3  2 -1</clus>
</clustering>
</event>
<event>
 6    0  0.1361744E+002  0.1372031E+03  0.7546771E-02  0.1217143E+00
         21   -1    0    0  505  502  0.00000000000E+00  0.00000000000E+00  0.15381563280E+03  0.15381563280E+03  0.00000000000E+00 0. -1.
          2   -1    0    0  504    0 -0.00000000000E+00 -0.00000000000E+00 -0.12874375323E+04  0.12874375323E+04  0.00000000000E+00 0.  1.
         21    1    1    2  503  502 -0.31260013444E+00  0.91231124976E+02  0.55352869335E+02  0.10671061815E+03  0.00000000000E+00 0. -1.
         21    1    1    2  504  503 -0.90186915067E+02  0.36663484170E+02  0.18864226273E+02  0.99165264855E+02  0.00000000000E+00 0. -1.
         21    1    1    2  505  501  0.14102135866E+03 -0.35056302509E+02 -0.53927482880E+03  0.55850990046E+03  0.00000000000E+00 0.  1.
          2    1    1    2  501    0 -0.50521843457E+02 -0.92838306637E+02 -0.66856416626E+03  0.67686738158E+03  0.00000000000E+00 0.  1.
<scales pt_clust_3="91.23166" pt_clust_4="14000.00000" pt_clust_5="137.20309" pt_clust_6="101.16352"></scales>
<clustering>
<clus scale="   91.232">  1  3  2 -1</clus>
<clus scale="  101.164">  2  6  1 -1</clus>
<clus scale="  137.203">  2  5  1 -1</clus>
<clus scale="   91.232">  1  3  2 -1</clus>
</clustering>
</event>
<event>
 6    0  0.1361744E+002  0.1064555E+03  0.7546771E-02  0.1267278E+00
          2   -1    0    0  504    0 -0.00000000000E+00  0.00000000000E+00  0.21655986699E+04  0.21655986699E+04  0.00000000000E+00 0.  1.
         21   -1    0    0  503  502  0.00000000000E+00 -0.00000000000E+00 -0.18583124085E+02  0.18583124085E+02  0.00000000000E+00 0.  1.
         21    1    1    2  503  501  0.40475937470E+02 -0.30258288199E+02  0.45648293102E+03  0.45927174073E+03  0.00000000000E+00 0.  1.
         21    1    1    2  504  505  0.30836278586E+02  0.57451440506E+02  0.50326472583E+03  0.50747111087E+03  0.00000000000E+00 0.  1.
         21    1    1    2  505  502 -0.94697908171E+02  0.19934081994E+02  0.14794028954E+03  0.17678062877E+03  0.00000000000E+00 0.  1.
          2    1    1    2  501    0  0.23385692114E+02 -0.47127234302E+02  0.10393275994E+04  0.10406583136E+04  0.00000000000E+00 0.  1.
<scales pt_clust_3="46.73878" pt_clust_4="65.20387" pt_clust_5="95.17655" pt_clust_6="46.73878"></scales>
<clustering>
<clus scale="   46.739">  3  6 -1 -1</clus>
<clus scale="   65.204">  1  4  2 -1</clus>
<clus scale="   95.177">  2  5  1 -1</clus>
<clus scale="   95.177">  2  3  1 -1</clus>
</clustering>
</event>
<event>
 6    0  0.1361744E+002  0.1573800E+03  0.7546771E-02  0.1191687E+00
          2   -1    0    0  502    0 -0.00000000000E+00  0.00000000000E+00  0.74956580542E+03  0.74956580542E+03  0.00000000000E+00 0. -1.
         21   -1    0    0  503  502  0.00000000000E+00 -0.00000000000E+00 -0.33393608953E+02  0.33393608953E+02  0.00000000000E+00 0. -1.
         21    1    1    2  503  504  0.57189581501E+02 -0.47729812057E+02  0.14823997044E+03  0.16590320078E+03  0.00000000000E+00 0. -1.
         21    1    1    2  504  505  0.33651563555E+02 -0.62051234223E+02  0.93183770710E+02  0.11690166176E+03  0.00000000000E+00 0. -1.
         21    1    1    2  505  501 -0.17263059081E+02  0.62093221639E+02  0.14014334991E+03  0.15425219579E+03  0.00000000000E+00 0. -1.
          2    1    1    2  501    0 -0.73578085975E+02  0.47687824641E+02  0.33460510541E+03  0.34590235605E+03  0.00000000000E+00 0. -1.
<scales pt_clust_3="147.28601" pt_clust_4="36.28250" pt_clust_5="57.28489" pt_clust_6="57.28489"></scales>
<clustering>
<clus scale="   36.282">  3  4 -1 -1</clus>
<clus scale="   57.285">  5  6 -1 -1</clus>
<clus scale="  147.286">  2  3  1 -1</clus>
<clus scale="  147.286">  2  3  1 -1</clus>
</clustering>
</event>
<event>
 6    0  0.1361744E+002  0.7907005E+02  0.7546771E-02  0.1331711E+00
         21   -1    0    0  504  502  0.00000000000E+00  0.00000000000E+00  0.68083178061E+03  0.68083178061E+03  0.00000000000E+00 0.  1.
         -4   -1    0    0    0  501 -0.00000000000E+00 -0.00000000000E+00 -0.35259456143E+03  0.35259456143E+03  0.00000000000E+00 0.  1.
         21    1    1    2  503  502 -0.65975582935E+02 -0.28420001058E+02  0.89505431753E+02  0.11476801086E+03  0.00000000000E+00 0.  1.
         21    1    1    2  504  505  0.13543803522E+03  0.66018366602E+02  0.55888549051E+03  0.57883925024E+03  0.00000000000E+00 0.  1.
         21    1    1    2  505  501  0.15950353245E+01 -0.39598650394E+02 -0.78646334133E+02  0.88067264765E+02  0.00000000000E+00 0.  1.
         -4    1    1    2    0  503 -0.71057487614E+02  0.20002848504E+01 -0.24150736896E+03  0.25175181617E+03  0.00000000000E+00 0.  1.
<scales pt_clust_3="72.52346" pt_clust_4="14000.00000" pt_clust_5="39.63076" pt_clust_6="79.07005"></scales>
<clustering>
<clus scale="   39.631">  2  5  1 -1</clus>
<clus scale="   72.523">  1  3  2 -1</clus>
<clus scale="   79.070">  2  6  1 -1</clus>
<clus scale="   72.523">  1  3  2 -1</clus>
</clustering>
</event>
<event>
 6    0  0.1361744E+002  0.1548747E+03  0.7546771E-02  0.1194608E+00
         21   -1    0    0  504  502  0.00000000000E+00  0.00000000000E+00  0.45920683017E+03  0.45920683017E+03  0.00000000000E+00 0. -1.
         -2   -1    0    0    0  501 -0.00000000000E+00 -0.00000000000E+00 -0.85710113358E+03  0.85710113358E+03  0.00000000000E+00 0. -1.
         21    1    1    2  503  505  0.72161033264E+02  0.53408776083E+02  0.24425337415E+03  0.26022955802E+03  0.00000000000E+00 0. -1.
         21    1    1    2  504  503  0.65159320016E+02  0.94495247019E+01  0.19140462357E+03  0.20241235246E+03  0.00000000000E+00 0. -1.
         21    1    1    2  505  501 -0.52406952013E+02  0.28412277276E+01 -0.10650552512E+03  0.11873494883E+03  0.00000000000E+00 0.  1.
         -2    1    1    2    0  502 -0.84913401267E+02 -0.65699528513E+02 -0.72704677602E+03  0.73493110444E+03  0.00000000000E+00 0. -1.
<scales pt_clust_3="32.40255" pt_clust_4="32.40255" pt_clust_5="52.48391" pt_clust_6="150.18183"></scales>
<clustering>
<clus scale="   32.403">  3  4 -1 -1</clus>
<clus scale="   52.484">  2  5  1 -1</clus>
<clus scale="  150.182">  2  6  1 -1</clus>
<clus scale="  154.875">  1  3  2 -1</clus>
</clustering>
</event>
<event>
 6    0  0.1361744E+002  0.1368043E+03  0.7546771E-02  0.1217695E+00
          2   -1    0    0  504    0 -0.00000000000E+00  0.00000000000E+00  0.31410171440E+04  0.31410171440E+04  0.00000000000E+00 0. -1.
         21   -1    0    0  501  502  0.00000000000E+00 -0.00000000000E+00 -0.22296475534E+03  0.22296475534E+03  0.00000000000E+00 0. -1.
         21    1    1    2  503  502 -0.24114390743E+02  0.26346128955E+02 -0.11152409118E+03  0.11710356641E+03  0.00000000000E+00 0. -1.
         21    1    1    2  504  505 -0.24778172246E+02  0.12218919805E+03  0.11945217478E+04  0.12010105594E+04  0.00000000000E+00 0. -1.
         21    1    1    2  505  503 -0.32661513988E+02 -0.19847102504E+02 -0.98844772854E+02  0.10597627609E+03  0.00000000000E+00 0. -1.
          2    1    1    2  501    0  0.81554076976E+02 -0.12868822450E+03  0.19338995049E+04  0.19398914974E+04  0.00000000000E+00 0. -1.
<scales pt_clust_3="35.71586" pt_clust_4="136.80428" pt_clust_5="55.61483" pt_clust_6="14000.00000"></scales>
<clustering>
<clus scale="   35.716">  2  3  1 -1</clus>
<clus scale="   55.615">  2  5  1 -1</clus>
<clus scale="  136.804">  2  4  1 -1</clus>
<clus scale="   35.716">  2  3  1 -1</clus>
</clustering>
</event>
<event>
 6    0  0.1361744E+002  0.1807608E+03  0.7546771E-02  0.1167069E+00
         21   -1    0    0  504  502  0.00000000000E+00  0.00000000000E+00  0.26592354994E+03  0.26592354994E+03  0.00000000000E+00 0.  1.
         -1   -1    0    0    0  501 -0.00000000000E+00 -0.00000000000E+00 -0.11762266902E+04  0.11762266902E+04  0.00000000000E+00 0.  1.
         21    1    1    2  503  501 -0.40128174890E+02  0.94258561206E+01 -0.36951196014E+02  0.55357999155E+02  0.00000000000E+00 0.  1.
         21    1    1    2  504  503 -0.22497088018E+02  0.38313129262E+02 -0.13561389861E+02  0.46453483594E+02  0.00000000000E+00 0. -1.
         21    1    1    2  505  502 -0.10647887164E+03 -0.11515844128E+03  0.20611254586E+03  0.25900115495E+03  0.00000000000E+00 0.  1.
         -1    1    1    2    0  505  0.16910413454E+03  0.67419455901E+02 -0.10659031002E+04  0.10813376024E+04  0.00000000000E+00 0.  1.
<scales pt_clust_3="38.68583" pt_clust_4="88.39715" pt_clust_5="14000.00000" pt_clust_6="180.76077"></scales>
<clustering>
<clus scale="   38.686">  3  4 -1 -1</clus>
<clus scale="   88.397">  1  3  2 -1</clus>
<clus scale="  180.761">  2  6  1 -1</clus>
<clus scale="   88.397">  1  3  2 -1</clus>
</clustering>
</event>
<event>
 6    0  0.1361744E+002  0.8613180E+02  0.7546771E-02  0.1312499E+00
          1   -1    0    0  503    0 -0.00000000000E+00  0.00000000000E+00  0.10291475692E+04  0.10291475692E+04  0.00000000000E+00 0.  1.
         21   -1    0    0  505  502  0.00000000000E+00 -0.00000000000E+00 -0.36911994156E+03  0.36911994156E+03  0.00000000000E+00 0. -1.
         21    1    1    2  503  502  0.99634138917E+02 -0.51786586917E+02 -0.29010816179E+03  0.31108127195E+03  0.00000000000E+00 0. -1.
         21    1    1    2  504  501 -0.11602635449E+03  0.81983654478E+02  0.11909315725E+03  0.18538234717E+03  0.00000000000E+00 0.  1.
         21    1    1    2  505  504 -0.41830333316E+02  0.28306755276E+01 -0.21169177445E+02  0.46967260756E+02  0.00000000000E+00 0. -1.
          1    1    1    2  501    0  0.58222548892E+02 -0.33027743089E+02  0.85221180962E+03  0.85483663086E+03  0.00000000000E+00 0.  1.
<scales pt_clust_3="14000.00000" pt_clust_4="86.13180" pt_clust_5="41.92600" pt_clust_6="66.79006"></scales>
<clustering>
<clus scale="   41.926">  2  5  1 -1</clus>
<clus scale="   66.790">  1  6  2 -1</clus>
<clus scale="   86.132">  1  4  2 -1</clus>
<clus scale="   41.926">  2  3  1 -1</clus>
</clustering>
</event>
<event>
 6    0  0.1361744E+002  0.1452260E+03  0.7546771E-02  0.1206465E+00
          2   -1    0    0  505    0 -0.00000000000E+00  0.00000000000E+00  0.29017883831E+04  0.29017883831E+04  0.00000000000E+00 0. -1.
         21   -1    0    0  503  502  0.00000000000E+00 -0.00000000000E+00 -0.12160158982E+03  0.12160158982E+03  0.00000000000E+00 0.  1.
         21    1    1    2  503  504  0.27620830463E+02 -0.18103913726E+02 -0.71955762871E+02  0.79172556975E+02  0.00000000000E+00 0.  1.
         21    1    1    2  504  501  0.64725804570E+02 -0.83563062433E+02  0.44712338239E+02  0.11476675638E+03  0.00000000000E+00 0.  1.
         21    1    1    2  505  502 -0.11536327587E+03 -0.46617328972E+02  0.43958846814E+03  0.45685871131E+03  0.00000000000E+00 0.  1.
          2    1    1    2  501    0  0.23016640835E+02  0.14828430513E+03  0.23678417498E+04  0.23725919483E+04  0.00000000000E+00 0. -1.
<scales pt_clust_3="33.02517" pt_clust_4="14000.00000" pt_clust_5="121.00202" pt_clust_6="145.22598"></scales>
<clustering>
<clus scale="   33.025">  2  3  1 -1</clus>
<clus scale="  121.002">  2  5  1 -1</clus>
<clus scale="  145.226">  1  6  2 -1</clus>
<clus scale="   33.025">  2  3  1 -1</clus>
</clustering>
</event>
<event>
 6    0  0.1361744E+002  0.2198452E+03  0.7546771E-02  0.1133999E+00
         21   -1    0    0  505  502  0.00000000000E+00  0.00000000000E+00  0.55353615025E+03  0.55353615025E+03  0.00000000000E+00 0. -1.
          2   -1    0    0  502    0 -0.00000000000E+00 -0.00000000000E+00 -0.29221399115E+04  0.29221399115E+04  0.00000000000E+00 0.  1.
         21    1    1    2  503  501  0.70218258394E+02 -0.38424420449E+02 -0.12295772011E+04  0.12321798300E+04  0.00000000000E+00 0.  1.
         21    1    1    2  504  503 -0.10576879121E+02  0.59874179415E+02  0.14580252962E+03  0.15797203986E+03  0.00000000000E+00 0. -1.
         21    1    1    2  505  504 -0.13938707702E+03  0.76591237168E+02  0.38206502230E+03  0.41384617446E+03  0.00000000000E+00 0. -1.
          2    1    1    2  501    0  0.79745697744E+02 -0.98040996135E+02 -0.16668941120E+04  0.16716780174E+04  0.00000000000E+00 0.  1.
<scales pt_clust_3="33.12410" pt_clust_4="52.53682" pt_clust_5="52.53682" pt_clust_6="206.98872"></scales>
<clustering>
<clus scale="   33.124">  3  6 -1 -1</clus>
<clus scale="   52.537">  4  5 -1 -1</clus>
<clus scale="  206.989">  2  3  1 -1</clus>
<clus scale="  219.845">  1  3  2 -1</clus>
</clustering>
</event>
<event>
 6    0  0.1361744E+002  0.1398233E+03  0.7546771E-02  0.1213567E+00
         -3   -1    0    0    0  501 -0.00000000000E+00  0.00000000000E+00  0.26770069112E+03  0.26770069112E+03  0.00000000000E+00 0. -1.
         21   -1    0    0  503  502  0.00000000000E+00 -0.00000000000E+00 -0.19283990218E+03  0.19283990218E+03  0.00000000000E+00 0.  1.
         21    1    1    2  503  501  0.34795903088E+02  0.29935970705E+02  0.15231171984E+02  0.48362235409E+02  0.00000000000E+00 0. -1.
         21    1    1    2  504  502 -0.74072811339E+02 -0.57996687286E+01 -0.88876080537E+02  0.11584202704E+03  0.00000000000E+00 0.  1.
         21    1    1    2  505  504 -0.65520443557E+02 -0.15737097827E+02 -0.41532712868E+02  0.79155233624E+02  0.00000000000E+00 0.  1.
         -3    1    1    2    0  505  0.10479735181E+03 -0.83992041488E+01  0.19003841037E+03  0.21718109723E+03  0.00000000000E+00 0. -1.
<scales pt_clust_3="45.90117" pt_clust_4="31.11303" pt_clust_5="31.11303" pt_clust_6="135.95291"></scales>
<clustering>
<clus scale="   31.113">  4  5 -1 -1</clus>
<clus scale="   45.901">  1  3  2 -1</clus>
<clus scale="  135.953">  1  6  2 -1</clus>
<clus scale="  139.823">  2  3  1 -1</clus>
</clustering>
</event>
<event>
 6    0  0.1361744E+002  0.1342911E+03  0.7546771E-02  0.1221224E+00
          4   -1    0    0  503    0 -0.00000000000E+00  0.00000000000E+00  0.15692828598E+03  0.15692828598E+03  0.00000000000E+00 0. -1.
         21   -1    0    0  504  502  0.00000000000E+00 -0.00000000000E+00 -0.26589194115E+04  0.26589194115E+04  0.00000000000E+00 0. -1.
         21    1    1    2  503  502 -0.16538862970E+02  0.30697329903E+02 -0.22505735515E+02  0.41501423862E+02  0.00000000000E+00 0.  1.
         21    1    1    2  504  505  0.23784388807E+01  0.39126566371E+02 -0.40347896321E+03  0.40537861182E+03  0.00000000000E+00 0.  1.
         21    1    1    2  505  501  0.11475460064E+03  0.27777202634E+02 -0.21869975775E+04  0.21901823201E+04  0.00000000000E+00 0. -1.
          4    1    1    2  501    0 -0.10059417655E+03 -0.97601098908E+02  0.11099115070E+03  0.17878534168E+03  0.00000000000E+00 0. -1.
<scales pt_clust_3="34.86918" pt_clust_4="39.38991" pt_clust_5="14000.00000" pt_clust_6="134.29105"></scales>
<clustering>
<clus scale="   34.869">  1  3  2 -1</clus>
<clus scale="   39.390">  2  4  1 -1</clus>
<clus scale="  134.291">  1  6  2 -1</clus>
<clus scale="   39.390">  2  3  1 -1</clus>
</clustering>
</event>
<event>
 6    0  0.1361744E+002  0.1523462E+03  0.7546771E-02  0.1197619E+00
          1   -1    0    0  503    0 -0.00000000000E+00  0.00000000000E+00  0.19298890394E+04  0.19298890394E+04  0.00000000000E+00 0.  1.
         21   -1    0    0  504  502  0.00000000000E+00 -0.00000000000E+00 -0.21485273766E+02  0.21485273766E+02  0.00000000000E+00 0. -1.
         21    1    1    2  503  502 -0.30224799967E+02 -0.24647879267E+02  0.17979950674E+03  0.18398075744E+03  0.00000000000E+00 0. -1.
         21    1    1    2  504  505 -0.10113161036E+03 -0.41040567516E+02  0.17948967559E+03  0.21006778534E+03  0.00000000000E+00 0. -1.
         21    1    1    2  505  501  0.38364676707E+02  0.70190021264E+01  0.20194989935E+03  0.20568149323E+03  0.00000000000E+00 0. -1.
          1    1    1    2  501    0  0.92991733617E+02  0.58669444657E+02  0.13471646840E+04  0.13516442772E+04  0.00000000000E+00 0.  1.
<scales pt_clust_3="39.00072" pt_clust_4="138.82102" pt_clust_5="37.37492" pt_clust_6="37.37492"></scales>
<clustering>
<clus scale="   37.375">  5  6 -1 -1</clus>
<clus scale="   39.001">  2  3  1 -1</clus>
<clus scale="  138.821">  2  4  1 -1</clus>
<clus scale="   39.001">  2  3  1 -1</clus>
</clustering>
</event>
<event>
 6    0  0.1361744E+002  0.9932973E+02  0.7546771E-02  0.1281712E+00
         21   -1    0    0  503  502  0.00000000000E+00  0.00000000000E+00  0.14409158770E+02  0.14409158770E+02  0.00000000000E+00 0. -1.
          2   -1    0    0  504    0 -0.00000000000E+00 -0.00000000000E+00 -0.21223996375E+04  0.21223996375E+04  0.00000000000E+00 0.  1.
         21    1    1    2  503  505  0.33976060743E+02  0.42300519417E+02 -0.14285496813E+03  0.15281115328E+03  0.00000000000E+00 0.  1.
         21    1    1    2  504  502 -0.30474171348E+02  0.25945897262E+02 -0.37787264929E+03  0.37998632053E+03  0.00000000000E+00 0. -1.
         21    1    1    2  505  501  0.84147770754E+02 -0.30599830103E+02 -0.29641180566E+03  0.30964036471E+03  0.00000000000E+00 0. -1.
          2    1    1    2  501    0 -0.87649660149E+02 -0.37646586575E+02 -0.12908510556E+04  0.12943709577E+04  0.00000000000E+00 0.  1.
<scales pt_clust_3="54.45880" pt_clust_4="40.02330" pt_clust_5="14000.00000" pt_clust_6="99.32973"></scales>
<clustering>
<clus scale="   40.023">  2  4  1 -1</clus>
<clus scale="   54.459">  1  3  2 -1</clus>
<clus scale="   99.330">  2  6  1 -1</clus>
<clus scale="   54.459">  1  3  2 -1</clus>
</clustering>
</event>
<event>
 6    0  0.1361744E+002  0.1129814E+03  0.7546771E-02  0.1255146E+00
         -1   -1    0    0    0  501 -0.00000000000E+00  0.00000000000E+00  0.33639169712E+02  0.33639169712E+02  0.00000000000E+00 0.  1.
         21   -1    0    0  504  502  0.00000000000E+00 -0.00000000000E+00 -0.60202698373E+03  0.60202698373E+03  0.00000000000E+00 0. -1.
         21    1    1    2  503  501  0.67708451958E+02 -0.13639108011E+02 -0.12213673131E+03  0.14031336668E+03  0.00000000000E+00 0. -1.
         21    1    1    2  504  503  0.41268738304E+02 -0.15036275182E+02 -0.17165961649E+03  0.17718979166E+03  0.00000000000E+00 0. -1.
         21    1    1    2  505  502 -0.63713630760E+01  0.46657832690E+02 -0.14163631161E+03  0.14925948005E+03  0.00000000000E+00 0. -1.
         -1    1    1    2    0  505 -0.10260582719E+03 -0.17982449498E+02 -0.13295515461E+03  0.16890351506E+03  0.00000000000E+00 0.  1.
<scales pt_clust_3="33.77332" pt_clust_4="33.77332" pt_clust_5="47.09084" pt_clust_6="104.74324"></scales>
<clustering>
<clus scale="   33.773">  3  4 -1 -1</clus>
<clus scale="   47.091">  2  5  1 -1</clus>
<clus scale="  104.743">  1  6  2 -1</clus>
<clus scale="   47.091">  2  3  1 -1</clus>
</clustering>
</event>
<event>
 6    0  0.1361744E+002  0.7534210E+02  0.7546771E-02  0.1342815E+00
          2   -1    0    0  502    0 -0.00000000000E+00  0.00000000000E+00  0.75954892292E+03  0.75954892292E+03  0.00000000000E+00 0. -1.
         21   -1    0    0  504  502  0.00000000000E+00 -0.00000000000E+00 -0.50207014063E+03  0.50207014063E+03  0.00000000000E+00 0. -1.
         21    1    1    2  503  505  0.85226292095E+02 -0.25573449950E+02 -0.17288478173E+03  0.19443937348E+03  0.00000000000E+00 0. -1.
         21    1    1    2  504  503 -0.63866827847E+02  0.11925163499E+02 -0.28451124167E+03  0.29183527522E+03  0.00000000000E+00 0. -1.
         21    1    1    2  505  501 -0.90915838800E+02 -0.12459018787E+02  0.46539531396E+02  0.10289239465E+03  0.00000000000E+00 0. -1.
          2    1    1    2  501    0  0.69556374552E+02  0.26107305238E+02  0.66833527428E+03  0.67245202021E+03  0.00000000000E+00 0. -1.
<scales pt_clust_3="34.03690" pt_clust_4="64.97062" pt_clust_5="14000.00000" pt_clust_6="75.34210"></scales>
<clustering>
<clus scale="   64.971">  2  4  1 -1</clus>
<clus scale="   34.037">  2  3  1 -1</clus>
<clus scale="   75.342">  1  6  2 -1</clus>
<clus scale="   64.971">  2  3  1 -1</clus>
</clustering>
</event>
<event>
 6    0  0.1361744E+002  0.1566355E+03  0.7546771E-02  0.1192548E+00
         21   -1    0    0  504  502  0.00000000000E+00  0.00000000000E+00  0.30074634861E+03  0.30074634861E+03  0.00000000000E+00 0.  1.
          4   -1    0    0  503    0 -0.00000000000E+00 -0.00000000000E+00 -0.40003927023E+03  0.40003927023E+03  0.00000000000E+00 0. -1.
         21    1    1    2  503  502  0.80836651908E+02 -0.93786356701E+02  0.17120901410E+03  0.21128883431E+03  0.00000000000E+00 0.  1.
         21    1    1    2  504  505 -0.29394331618E+02 -0.43044710892E+02  0.50461014907E+02  0.72547831756E+02  0.00000000000E+00 0.  1.
         21    1    1    2  505  501 -0.56211964354E+02 -0.26304619155E+02 -0.61754734118E+01  0.62368697255E+02  0.00000000000E+00 0. -1.
          4    1    1    2  501    0  0.47696440643E+01  0.16313568675E+03 -0.31478747721E+03  0.35458025552E+03  0.00000000000E+00 0. -1.
<scales pt_clust_3="14000.00000" pt_clust_4="52.12364" pt_clust_5="67.40352" pt_clust_6="156.63555"></scales>
<clustering>
<clus scale="   52.124">  1  4  2 -1</clus>
<clus scale="   67.404">  1  5  2 -1</clus>
<clus scale="  156.636">  2  6  1 -1</clus>
<clus scale="   52.124">  1  3  2 -1</clus>
</clustering>
</event>
<event>
 6    0  0.1361744E+002  0.1853308E+03  0.7546771E-02  0.1162741E+00
          2   -1    0    0  502    0 -0.00000000000E+00  0.00000000000E+00  0.20479465439E+04  0.20479465439E+04  0.00000000000E+00 0. -1.
         21   -1    0    0  503  502  0.00000000000E+00 -0.00000000000E+00 -0.12226099981E+03  0.12226099981E+03  0.00000000000E+00 0.  1.
         21    1    1    2  503  504 -0.25753733037E+02  0.61925954907E+02 -0.77204479783E+02  0.10226734745E+03  0.00000000000E+00 0.  1.
         21    1    1    2  504  505  0.25672765202E+02  0.11656934590E+03  0.10148355010E+03  0.15667295305E+03  0.00000000000E+00 0. -1.
         21    1    1    2  505  501  0.35555279362E+02 -0.12296567587E+03  0.12541299270E+04  0.12606453146E+04  0.00000000000E+00 0. -1.
          2    1    1    2  501    0 -0.35474311527E+02 -0.55529624940E+02  0.64727654678E+03  0.65062192865E+03  0.00000000000E+00 0. -1.
<scales pt_clust_3="67.06772" pt_clust_4="169.15133" pt_clust_5="54.33635" pt_clust_6="54.33635"></scales>
<clustering>
<clus scale="   54.336">  5  6 -1 -1</clus>
<clus scale="   67.068">  2  3  1 -1</clus>
<clus scale="  169.151">  2  4  1 -1</clus>
<clus scale="   67.068">  2  3  1 -1</clus>
</clustering>
</event>
<event>
 6    0  0.1361744E+002  0.1336346E+03  0.7546771E-02  0.1222160E+00
          2   -1    0    0  504    0 -0.00000000000E+00  0.00000000000E+00  0.17241671720E+04  0.17241671720E+04  0.00000000000E+00 0. -1.
         21   -1    0    0  505  502  0.00000000000E+00 -0.00000000000E+00 -0.56194840006E+02  0.56194840006E+02  0.00000000000E+00 0.  1.
         21    1    1    2  503  502 -0.66397086427E+02 -0.28030594757E+02  0.94373270046E+02  0.11874595331E+03  0.00000000000E+00 0.  1.
         21    1    1    2  504  503  0.59143491935E+01  0.49039051165E+02  0.64928252853E+03  0.65115866724E+03  0.00000000000E+00 0. -1.
         21    1    1    2  505  501 -0.77776980384E+02  0.10365851352E+02  0.32379246630E+01  0.78531482273E+02  0.00000000000E+00 0.  1.
          2    1    1    2  501    0  0.13825971762E+03 -0.31374307760E+02  0.92107860879E+03  0.93192590922E+03  0.00000000000E+00 0. -1.
<scales pt_clust_3="69.76817" pt_clust_4="49.39441" pt_clust_5="14000.00000" pt_clust_6="133.63463"></scales>
<clustering>
<clus scale="   49.394">  1  4  2 -1</clus>
<clus scale="   69.768">  2  3  1 -1</clus>
<clus scale="  133.635">  1  6  2 -1</clus>
<clus scale="   69.768">  2  3  1 -1</clus>
</clustering>
</event>
<event>
 6    0  0.1361744E+002  0.2522151E+03  0.7546771E-02  0.1111913E+00
          2   -1    0    0  504    0 -0.00000000000E+00  0.00000000000E+00  0.14947240516E+04  0.14947240516E+04  0.00000000000E+00 0. -1.
         21   -1    0    0  503  502  0.00000000000E+00 -0.00000000000E+00 -0.26623526649E+03  0.26623526649E+03  0.00000000000E+00 0.  1.
         21    1    1    2  503  505 -0.17348987729E+03 -0.40804986600E+01 -0.15493261955E+03  0.23263599161E+03  0.00000000000E+00 0.  1.
         21    1    1    2  504  502  0.73075247168E+01 -0.59676975001E+02  0.78590617515E+02  0.98950626194E+02  0.00000000000E+00 0. -1.
         21    1    1    2  505  501 -0.66097570562E+02  0.32804154691E+02 -0.25872242559E+02  0.78194464857E+02  0.00000000000E+00 0.  1.
          2    1    1    2  501    0  0.23227992313E+03  0.30953318970E+02  0.13307030297E+04  0.13511782354E+04  0.00000000000E+00 0. -1.
<scales pt_clust_3="49.22241" pt_clust_4="60.12272" pt_clust_5="49.22241" pt_clust_6="240.65427"></scales>
<clustering>
<clus scale="   49.222">  3  5 -1 -1</clus>
<clus scale="   60.123">  1  4  2 -1</clus>
<clus scale="  240.654">  1  6  2 -1</clus>
<clus scale="  252.215">  2  3  1 -1</clus>
</clustering>
</event>
<event>
 6    0  0.1361744E+002  0.1472125E+03  0.7546771E-02  0.1203941E+00
         21   -1    0    0  503  502  0.00000000000E+00  0.00000000000E+00  0.13810976050E+03  0.13810976050E+03  0.00000000000E+00 0. -1.
          1   -1    0    0  504    0 -0.00000000000E+00 -0.00000000000E+00 -0.97099536733E+03  0.97099536733E+03  0.00000000000E+00 0.  1.
         21    1    1    2  503  505 -0.69888437423E+02 -0.44471832869E+02 -0.84064713707E+01  0.83263475576E+02  0.00000000000E+00 0. -1.
         21    1    1    2  504  502  0.28203037409E+02 -0.10423805292E+03  0.57152501458E+02  0.12217770426E+03  0.00000000000E+00 0. -1.
         21    1    1    2  505  501  0.70692429663E+02  0.13408476019E+03 -0.82102492545E+03  0.83490003637E+03  0.00000000000E+00 0.  1.
          1    1    1    2  501    0 -0.29007029649E+02  0.14625125593E+02 -0.60606711466E+02  0.68763911628E+02  0.00000000000E+00 0.  1.
<scales pt_clust_3="83.69050" pt_clust_4="14000.00000" pt_clust_5="147.21251" pt_clust_6="32.48541"></scales>
<clustering>
<clus scale="   32.485">  2  6  1 -1</clus>
<clus scale="   83.691">  1  3  2 -1</clus>
<clus scale="  147.213">  2  5  1 -1</clus>
<clus scale="   83.691">  1  3  2 -1</clus>
</clustering>
</event>
<event>
 6    0  0.1361744E+002  0.8246741E+02  0.7546771E-02  0.1322192E+00
         21   -1    0    0  504  502  0.00000000000E+00  0.00000000000E+00  0.80554537893E+03  0.80554537893E+03  0.00000000000E+00 0. -1.
          2   -1    0    0  505    0 -0.00000000000E+00 -0.00000000000E+00 -0.63162896711E+03  0.63162896711E+03  0.00000000000E+00 0.  1.
         21    1    1    2  503  502  0.53056491282E+02  0.35725831395E+02  0.73382628451E+03  0.73660867639E+03  0.00000000000E+00 0. -1.
         21    1    1    2  504  501 -0.81405171452E+02  0.43604311061E+02  0.24700474360E+02  0.95594201267E+02  0.00000000000E+00 0.  1.
         21    1    1    2  505  503 -0.35748739934E+02 -0.19031438752E+02 -0.38114057828E+03  0.38328619657E+03  0.00000000000E+00 0.  1.
          2    1    1    2  501    0  0.64097420104E+02 -0.60298703704E+02 -0.20346976877E+03  0.22168527180E+03  0.00000000000E+00 0.  1.
<scales pt_clust_3="63.73879" pt_clust_4="82.46741" pt_clust_5="40.49899" pt_clust_6="14000.00000"></scales>
<clustering>
<clus scale="   40.499">  2  5  1 -1</clus>
<clus scale="   63.739">  1  3  2 -1</clus>
<clus scale="   82.467">  1  4  2 -1</clus>
<clus scale="   63.739">  1  3  2 -1</clus>
</clustering>
</event>
<event>
 6    0  0.1361744E+002  0.1732618E+03  0.7546771E-02  0.1174488E+00
         -3   -1    0    0    0  501 -0.00000000000E+00  0.00000000000E+00  0.43203811945E+03  0.43203811945E+03  0.00000000000E+00 0.  1.
         21   -1    0    0  505  502  0.00000000000E+00 -0.00000000000E+00 -0.15008794812E+03  0.15008794812E+03  0.00000000000E+00 0.  1.
         21    1    1    2  503  502  0.12477245466E+02 -0.71378819321E+02  0.11462656468E+03  0.13560924316E+03  0.00000000000E+00 0.  1.
         21    1    1    2  504  501 -0.64618897649E+02  0.54161702348E+02 -0.12786369056E+02  0.85279441651E+02  0.00000000000E+00 0.  1.
         21    1    1    2  505  504 -0.32508423803E+02  0.64973406502E+02 -0.65047595659E+02  0.97516823531E+02  0.00000000000E+00 0. -1.
         -3    1    1    2    0  503  0.84650075987E+02 -0.47756289528E+02  0.24515757137E+03  0.26372055922E+03  0.00000000000E+00 0.  1.
<scales pt_clust_3="69.03700" pt_clust_4="165.39755" pt_clust_5="56.68833" pt_clust_6="69.03700"></scales>
<clustering>
<clus scale="   56.688">  4  5 -1 -1</clus>
<clus scale="   69.037">  3  6 -1 -1</clus>
<clus scale="  165.398">  2  4  1 -1</clus>
<clus scale="  165.398">  2  3  1 -1</clus>
</clustering>
</event>
<event>
 6    0  0.1361744E+002  0.1195386E+03  0.7546771E-02  0.1243860E+00
          1   -1    0    0  504    0 -0.00000000000E+00  0.00000000000E+00  0.99147423945E+03  0.99147423945E+03  0.00000000000E+00 0. -1.
         21   -1    0    0  501  502  0.00000000000E+00 -0.00000000000E+00 -0.30854860406E+02  0.30854860406E+02  0.00000000000E+00 0. -1.
         21    1    1    2  503  505  0.53825863386E+02  0.74926344910E+01  0.34338335534E+02  0.64284402682E+02  0.00000000000E+00 0. -1.
         21    1    1    2  504  503 -0.86413100951E+01  0.40497011802E+02  0.14853222732E+03  0.15419631240E+03  0.00000000000E+00 0.  1.
         21    1    1    2  505  502  0.57783177421E+02  0.87912741503E+01  0.98810095454E+02  0.11480251329E+03  0.00000000000E+00 0. -1.
          1    1    1    2  501    0 -0.10296773071E+03 -0.56780920443E+02  0.67893872073E+03  0.68904587148E+03  0.00000000000E+00 0. -1.
<scales pt_clust_3="38.83315" pt_clust_4="41.40870" pt_clust_5="38.83315" pt_clust_6="112.55044"></scales>
<clustering>
<clus scale="   38.833">  3  5 -1 -1</clus>
<clus scale="   41.409">  1  4  2 -1</clus>
<clus scale="  112.550">  1  6  2 -1</clus>
<clus scale="  119.539">  2  3  1 -1</clus>
</clustering>
</event>
<event>
 6    0  0.1361744E+002  0.9937513E+02  0.7546771E-02  0.1281615E+00
         21   -1    0    0  505  502  0.00000000000E+00  0.00000000000E+00  0.40540767303E+02  0.40540767303E+02  0.00000000000E+00 0.  1.
          1   -1    0    0  503    0 -0.00000000000E+00 -0.00000000000E+00 -0.68012396501E+03  0.68012396501E+03  0.00000000000E+00 0.  1.
         21    1    1    2  503  504  0.71675095299E+02 -0.40292167763E+02 -0.14635196271E+03  0.16786802869E+03  0.00000000000E+00 0.  1.
         21    1    1    2  504  502 -0.68444211802E+01 -0.38664461417E+02 -0.60527834475E+02  0.72148495647E+02  0.00000000000E+00 0. -1.
         21    1    1    2  505  501 -0.47566775452E+02  0.12785121729E+03 -0.19903321689E+03  0.24129391479E+03  0.00000000000E+00 0.  1.
          1    1    1    2  501    0 -0.17263898666E+02 -0.48894588113E+02 -0.23367018363E+03  0.23935429318E+03  0.00000000000E+00 0.  1.
<scales pt_clust_3="14000.00000" pt_clust_4="39.26559" pt_clust_5="99.37513" pt_clust_6="55.02535"></scales>
<clustering>
<clus scale="   39.266">  1  4  2 -1</clus>
<clus scale="   55.025">  2  6  1 -1</clus>
<clus scale="   99.375">  1  5  2 -1</clus>
<clus scale="   39.266">  1  3  2 -1</clus>
</clustering>
</event>
<event>
 6    0  0.1361744E+002  0.1509723E+03  0.7546771E-02  0.1199283E+00
         -1   -1    0    0    0  501 -0.00000000000E+00  0.00000000000E+00  0.24513702207E+03  0.24513702207E+03  0.00000000000E+00 0.  1.
         21   -1    0    0  505  502  0.00000000000E+00 -0.00000000000E+00 -0.58555837022E+03  0.58555837022E+03  0.00000000000E+00 0.  1.
         21    1    1    2  503  501  0.39838381504E+02  0.10882888557E+03 -0.11604601390E+03  0.16400457408E+03  0.00000000000E+00 0.  1.
         21    1    1    2  504  502 -0.34722022680E+02 -0.57411226720E+01 -0.26368574927E+02  0.43975914910E+02  0.00000000000E+00 0.  1.
         21    1    1    2  505  503  0.49794562267E+02  0.45582680865E+02 -0.37737141125E+03  0.38336204983E+03  0.00000000000E+00 0.  1.
         -1    1    1    2    0  504 -0.54910921091E+02 -0.14867044377E+03  0.17936465192E+03  0.23935285347E+03  0.00000000000E+00 0.  1.
<scales pt_clust_3="150.97235" pt_clust_4="35.19346" pt_clust_5="48.96299" pt_clust_6="14000.00000"></scales>
<clustering>
<clus scale="   35.193">  2  4  1 -1</clus>
<clus scale="   48.963">  2  5  1 -1</clus>
<clus scale="  150.972">  2  3  1 -1</clus>
<clus scale="   35.193">  2  3  1 -1</clus>
</clustering>
</event>
<event>
 6    0  0.1361744E+002  0.1084150E+03  0.7546771E-02  0.1263534E+00
          2   -1    0    0  505    0 -0.00000000000E+00  0.00000000000E+00  0.24732621730E+04  0.24732621730E+04  0.00000000000E+00 0.  1.
         21   -1    0    0  504  502  0.00000000000E+00 -0.00000000000E+00 -0.18022207920E+02  0.18022207920E+02  0.00000000000E+00 0.  1.
         21    1    1    2  503  501  0.75158266305E+01  0.49094252670E+02  0.68742224203E+03  0.68921409746E+03  0.00000000000E+00 0.  1.
         21    1    1    2  504  503 -0.53519260286E+02 -0.38189541752E+01  0.18585621929E+03  0.19344619376E+03  0.00000000000E+00 0.  1.
         21    1    1    2  505  502  0.28271622334E+02 -0.98000093601E+02  0.19080460082E+03  0.21635549143E+03  0.00000000000E+00 0.  1.
          2    1    1    2  501    0  0.17731811321E+02  0.52724795107E+02  0.13911569029E+04  0.13922685982E+04  0.00000000000E+00 0.  1.
<scales pt_clust_3="30.97205" pt_clust_4="53.65534" pt_clust_5="103.34126" pt_clust_6="30.97205"></scales>
<clustering>
<clus scale="   30.972">  3  6 -1 -1</clus>
<clus scale="   53.655">  2  4  1 -1</clus>
<clus scale="  103.341">  2  5  1 -1</clus>
<clus scale="   53.655">  2  3  1 -1</clus>
</clustering>
</event>
<event>
 6    0  0.1361744E+002  0.2132245E+03  0.7546771E-02  0.1139038E+00
          1   -1    0    0  505    0 -0.00000000000E+00  0.00000000000E+00  0.88787601152E+03  0.88787601152E+03  0.00000000000E+00 0.  1.
         21   -1    0    0  503  502  0.00000000000E+00 -0.00000000000E+00 -0.68726222663E+02  0.68726222663E+02  0.00000000000E+00 0.  1.
         21    1    1    2  503  504 -0.33478550998E+02  0.25362652974E+02  0.56605942580E+02  0.70486241765E+02  0.00000000000E+00 0.  1.
         21    1    1    2  504  501 -0.18384556129E+03 -0.30397362794E+02  0.21809010082E+03  0.28685620465E+03  0.00000000000E+00 0.  1.
         21    1    1    2  505  502  0.42844799470E+02 -0.50193617902E+02  0.11810838056E+03  0.13529473633E+03  0.00000000000E+00 0. -1.
          1    1    1    2  501    0  0.17447931282E+03  0.55228327722E+02  0.42634536490E+03  0.46396505144E+03  0.00000000000E+00 0.  1.
<scales pt_clust_3="33.50541" pt_clust_4="33.50541" pt_clust_5="65.99300" pt_clust_6="201.20663"></scales>
<clustering>
<clus scale="   33.505">  3  4 -1 -1</clus>
<clus scale="   65.993">  1  5  2 -1</clus>
<clus scale="  201.207">  1  6  2 -1</clus>
<clus scale="  213.225">  2  3  1 -1</clus>
</clustering>
</event>
<event>
 6    0  0.1361744E+002  0.1256770E+03  0.7546771E-02  0.1234015E+00
         21   -1    0    0  505  502  0.00000000000E+00  0.00000000000E+00  0.10952456434E+04  0.10952456434E+04  0.00000000000E+00 0. -1.
          4   -1    0    0  504    0 -0.00000000000E+00 -0.00000000000E+00 -0.43203925436E+03  0.43203925436E+03  0.00000000000E+00 0. -1.
         21    1    1    2  503  501 -0.61992819565E+02 -0.70049297599E+02 -0.23386914889E+03  0.25188249756E+03  0.00000000000E+00 0. -1.
         21    1    1    2  504  502 -0.39024360703E+01  0.10719923860E+03  0.86401987222E+03  0.87065334396E+03  0.00000000000E+00 0. -1.
         21    1    1    2  505  503  0.43666375182E+02  0.13773236162E+02  0.21225286073E+03  0.21713528327E+03  0.00000000000E+00 0.  1.
          4    1    1    2  501    0  0.22228880454E+02 -0.50923177159E+02 -0.17919719502E+03  0.18761377295E+03  0.00000000000E+00 0. -1.
<scales pt_clust_3="14000.00000" pt_clust_4="125.67701" pt_clust_5="45.78705" pt_clust_6="55.58700"></scales>
<clustering>
<clus scale="   45.787">  1  5  2 -1</clus>
<clus scale="   55.587">  2  6  1 -1</clus>
<clus scale="  125.677">  1  4  2 -1</clus>
<clus scale="   45.787">  1  3  2 -1</clus>
</clustering>
</event>
<event>
 6    0  0.1361744E+002  0.1169648E+03  0.7546771E-02  0.1248190E+00
          2   -1    0    0  503    0 -0.00000000000E+00  0.00000000000E+00  0.32557419669E+03  0.32557419669E+03  0.00000000000E+00 0.  1.
         21   -1    0    0  501  502  0.00000000000E+00 -0.00000000000E+00 -0.21861750488E+03  0.21861750488E+03  0.00000000000E+00 0.  1.
         21    1    1    2  503  505 -0.29017148197E+02 -0.66632927748E+02  0.66822465769E+02  0.98727827289E+02  0.00000000000E+00 0. -1.
         21    1    1    2  504  502 -0.42719350359E+02  0.13256476782E+02 -0.67760840919E+02  0.81192417342E+02  0.00000000000E+00 0.  1.
         21    1    1    2  505  504 -0.27178705405E+02  0.69149876643E+02 -0.10520981691E+03  0.12880020590E+03  0.00000000000E+00 0.  1.
          2    1    1    2  501    0  0.98915203962E+02 -0.15773425678E+02  0.21310488387E+03  0.23547125103E+03  0.00000000000E+00 0.  1.
<scales pt_clust_3="72.67697" pt_clust_4="38.80635" pt_clust_5="38.80635" pt_clust_6="105.73197"></scales>
<clustering>
<clus scale="   38.806">  4  5 -1 -1</clus>
<clus scale="   72.677">  1  3  2 -1</clus>
<clus scale="  105.732">  1  6  2 -1</clus>
<clus scale="  116.965">  2  3  1 -1</clus>
</clustering>
</event>
<event>
 6    0  0.1361744E+002  0.1115681E+03  0.7546771E-02  0.1257693E+00
         21   -1    0    0  504  502  0.00000000000E+00  0.00000000000E+00  0.91529611546E+02  0.91529611546E+02  0.00000000000E+00 0. -1.
          2   -1    0    0  503    0 -0.00000000000E+00 -0.00000000000E+00 -0.24382770455E+04  0.24382770455E+04  0.00000000000E+00 0. -1.
         21    1    1    2  503  505 -0.58464548309E+01  0.33277146193E+02 -0.19588113460E+03  0.19877366120E+03  0.00000000000E+00 0. -1.
         21    1    1    2  504  501 -0.49117173003E+02 -0.14372537800E+02  0.13543348116E+02  0.52938537992E+02  0.00000000000E+00 0.  1.
         21    1    1    2  505  502  0.12273503966E+01 -0.89024655200E+02  0.20530109356E+02  0.91369475278E+02  0.00000000000E+00 0. -1.
          2    1    1    2  501    0  0.53736277437E+02  0.70120046807E+02 -0.21849397568E+04  0.21867249825E+04  0.00000000000E+00 0. -1.
<scales pt_clust_3="33.78682" pt_clust_4="51.14484" pt_clust_5="111.56814" pt_clust_6="14000.00000"></scales>
<clustering>
<clus scale="   33.787">  2  3  1 -1</clus>
<clus scale="   51.145">  1  4  2 -1</clus>
<clus scale="  111.568">  1  5  2 -1</clus>
<clus scale="   51.145">  1  3  2 -1</clus>
</clustering>
</event>
<event>
 6    0  0.1361744E+002  0.2529633E+03  0.7546771E-02  0.1111446E+00
          2   -1    0    0  502    0 -0.00000000000E+00  0.00000000000E+00  0.32440606132E+03  0.32440606132E+03  0.00000000000E+00 0. -1.
         21   -1    0    0  505  502  0.00000000000E+00 -0.00000000000E+00 -0.25892689639E+03  0.25892689639E+03  0.00000000000E+00 0. -1.
         21    1    1    2  503  501 -0.74349286816E+02  0.15847670415E+02  0.15873831652E+02  0.77659150388E+02  0.00000000000E+00 0.  1.
         21    1    1    2  504  503  0.12721496323E+03 -0.87958563950E+02 -0.55098819200E+02  0.16418354278E+03  0.00000000000E+00 0. -1.
         21    1    1    2  505  504  0.88733257625E+02 -0.12461187144E+02 -0.60446450206E+02  0.10808628746E+03  0.00000000000E+00 0. -1.
          2    1    1    2  501    0 -0.14159893404E+03  0.84572080679E+02  0.16515060268E+03  0.23340397708E+03  0.00000000000E+00 0. -1.
<scales pt_clust_3="57.89703" pt_clust_4="246.53631" pt_clust_5="48.51350" pt_clust_6="57.89703"></scales>
<clustering>
<clus scale="   48.513">  4  5 -1 -1</clus>
<clus scale="   57.897">  3  6 -1 -1</clus>
<clus scale="  246.536">  2  4  1 -1</clus>
<clus scale="  246.536">  2  3  1 -1</clus>
</clustering>
</event>
<event>
 6    0  0.1361744E+002  0.1525643E+03  0.7546771E-02  0.1197357E+00
         21   -1    0    0  504  502  0.00000000000E+00  0.00000000000E+00  0.15569020858E+03  0.15569020858E+03  0.00000000000E+00 0. -1.
         -1   -1    0    0    0  501 -0.00000000000E+00 -0.00000000000E+00 -0.57772598213E+03  0.57772598213E+03  0.00000000000E+00 0.  1.
         21    1    1    2  503  502  0.58828907031E+02 -0.13585797036E+02 -0.21418513201E+02  0.64063772065E+02  0.00000000000E+00 0.  1.
         21    1    1    2  504  505  0.11214923733E+03  0.44736787219E+02  0.66367204772E+02  0.13778039568E+03  0.00000000000E+00 0. -1.
         21    1    1    2  505  501 -0.64776798595E+02  0.74469582236E+02 -0.13376698876E+03  0.16623886308E+03  0.00000000000E+00 0.  1.
         -1    1    1    2    0  503 -0.10620134577E+03 -0.10562057242E+03 -0.33321747636E+03  0.36533315989E+03  0.00000000000E+00 0.  1.
<scales pt_clust_3="60.37727" pt_clust_4="14000.00000" pt_clust_5="92.89540" pt_clust_6="152.56435"></scales>
<clustering>
<clus scale="   60.377">  1  3  2 -1</clus>
<clus scale="   92.895">  2  5  1 -1</clus>
<clus scale="  152.564">  2  6  1 -1</clus>
<clus scale="   60.377">  1  3  2 -1</clus>
</clustering>
</event>
<event>
 6    0  0.1361744E+002  0.1077902E+03  0.7546771E-02  0.1264718E+00
          2   -1    0    0  505    0 -0.00000000000E+00  0.00000000000E+00  0.78901564084E+03  0.78901564084E+03  0.00000000000E+00 0.  1.
         21   -1    0    0  504  502  0.00000000000E+00 -0.00000000000E+00 -0.14535670570E+03  0.14535670570E+03  0.00000000000E+00 0.  1.
         21    1    1    2  503  502 -0.40793956549E+02  0.26384383468E+02 -0.62983664448E+02  0.79543853120E+02  0.00000000000E+00 0.  1.
         21    1    1    2  504  501  0.87115571240E+02 -0.76392387342E+02  0.51336532782E+03  0.52627832884E+03  0.00000000000E+00 0.  1.
         21    1    1    2  505  503 -0.15297326007E+02  0.55908815310E+02 -0.54026566313E+02  0.79238082258E+02  0.00000000000E+00 0.  1.
          2    1    1    2  501    0 -0.31024288684E+02 -0.59008114361E+01  0.24730383808E+03  0.24931208232E+03  0.00000000000E+00 0.  1.
<scales pt_clust_3="36.75437" pt_clust_4="100.08403" pt_clust_5="36.75437" pt_clust_6="31.58047"></scales>
<clustering>
<clus scale="   31.580">  1  6  2 -1</clus>
<clus scale="   36.754">  3  5 -1 -1</clus>
<clus scale="  100.084">  1  4  2 -1</clus>
<clus scale="  107.790">  2  3  1 -1</clus>
</clustering>
</event>
<event>
 6    0  0.1361744E+002  0.2073922E+03  0.7546771E-02  0.1143648E+00
         -4   -1    0    0    0  501 -0.00000000000E+00  0.00000000000E+00  0.51816930686E+03  0.51816930686E+03  0.00000000000E+00 0.  1.
         21   -1    0    0  503  502  0.00000000000E+00 -0.00000000000E+00 -0.26862092280E+04  0.26862092280E+04  0.00000000000E+00 0.  1.
         21    1    1    2  503  504  0.34249402960E+02  0.24579883692E+03 -0.21111375540E+04  0.21256744486E+04  0.00000000000E+00 0.  1.
         21    1    1    2  504  505 -0.83247169999E+02 -0.12946664115E+03 -0.51002649089E+03  0.53274639736E+03  0.00000000000E+00 0. -1.
         21    1    1    2  505  501 -0.10468923080E+02 -0.54137381188E+02 -0.24719758651E+02  0.60427815285E+02  0.00000000000E+00 0.  1.
         -4    1    1    2    0  502  0.59466690118E+02 -0.62194814584E+02  0.47784388238E+03  0.48552987356E+03  0.00000000000E+00 0.  1.
<scales pt_clust_3="14000.00000" pt_clust_4="207.39223" pt_clust_5="55.14032" pt_clust_6="124.52867"></scales>
<clustering>
<clus scale="   55.140">  1  5  2 -1</clus>
<clus scale="  124.529">  1  6  2 -1</clus>
<clus scale="  207.392">  1  4  2 -1</clus>
<clus scale="  207.392">  2  3  1 -1</clus>
</clustering>
</event>
<event>
 6    0  0.1361744E+002  0.1473791E+03  0.7546771E-02  0.1203731E+00
         21   -1    0    0  503  502  0.00000000000E+00  0.00000000000E+00  0.10080227583E+03  0.10080227583E+03  0.00000000000E+00 0.  1.
         -4   -1    0    0    0  501 -0.00000000000E+00 -0.00000000000E+00 -0.12173563624E+04  0.12173563624E+04  0.00000000000E+00 0.  1.
         21    1    1    2  503  504 -0.64197362007E+02  0.48155066546E+02 -0.17276349218E+01  0.80269523763E+02  0.00000000000E+00 0.  1.
         21    1    1    2  504  505 -0.38693387635E+02  0.56568448518E+02  0.25578782705E+02  0.73153549053E+02  0.00000000000E+00 0.  1.
         21    1    1    2  505  501  0.26896058067E+02 -0.73872165503E+02 -0.13677040684E+03  0.15775499664E+03  0.00000000000E+00 0.  1.
         -4    1    1    2    0  502  0.75994691575E+02 -0.30851349561E+02 -0.10036348275E+04  0.10069805688E+04  0.00000000000E+00 0.  1.
<scales pt_clust_3="34.77784" pt_clust_4="34.77784" pt_clust_5="78.61612" pt_clust_6="142.49337"></scales>
<clustering>
<clus scale="   34.778">  3  4 -1 -1</clus>
<clus scale="   78.616">  2  5  1 -1</clus>
<clus scale="  142.493">  2  6  1 -1</clus>
<clus scale="  147.379">  1  3  2 -1</clus>
</clustering>
</event>
<event>
 6    0  0.1361744E+002  0.9507226E+02  0.7546771E-02  0.1291013E+00
          3   -1    0    0  504    0 -0.00000000000E+00  0.00000000000E+00  0.23230998997E+03  0.23230998997E+03  0.00000000000E+00 0.  1.
         21   -1    0    0  505  502  0.00000000000E+00 -0.00000000000E+00 -0.46369623567E+03  0.46369623567E+03  0.00000000000E+00 0. -1.
         21    1    1    2  503  501  0.84503005080E+02 -0.56764980472E+02 -0.11718582031E+03  0.15522737309E+03  0.00000000000E+00 0. -1.
         21    1    1    2  504  502 -0.72396018974E+02 -0.20610415342E+02  0.88964690482E+02  0.11653621298E+03  0.00000000000E+00 0.  1.
         21    1    1    2  505  503  0.41584176881E+01  0.10913238842E+03 -0.30094912433E+03  0.32015237946E+03  0.00000000000E+00 0. -1.
          3    1    1    2  501    0 -0.16265403794E+02 -0.31756992602E+02  0.97784008454E+02  0.10409026011E+03  0.00000000000E+00 0.  1.
<scales pt_clust_3="95.07226" pt_clust_4="96.49134" pt_clust_5="14000.00000" pt_clust_6="35.68011"></scales>
<clustering>
<clus scale="   35.680">  1  6  2 -1</clus>
<clus scale="   96.491">  1  4  2 -1</clus>
<clus scale="   95.072">  1  3  2 -1</clus>
<clus scale="   95.072">  2  3  1 -1</clus>
</clustering>
</event>
<event>
 6    0  0.1361744E+002  0.1526555E+03  0.7546771E-02  0.1197247E+00
         21   -1    0    0  504  502  0.00000000000E+00  0.00000000000E+00  0.19489984351E+03  0.19489984351E+03  0.00000000000E+00 0.  1.
          2   -1    0    0  505    0 -0.00000000000E+00 -0.00000000000E+00 -0.13631990833E+04  0.13631990833E+04  0.00000000000E+00 0. -1.
         21    1    1    2  503  502 -0.32073200549E+02  0.12781882762E+02  0.23838860097E+02  0.41956620111E+02  0.00000000000E+00 0. -1.
         21    1    1    2  504  501  0.12252906239E+03  0.11718285143E+03  0.10046110769E+03  0.19707264132E+03  0.00000000000E+00 0.  1.
         21    1    1    2  505  503 -0.12907401633E+03 -0.17955731714E+02 -0.46072522373E+03  0.47880083727E+03  0.00000000000E+00 0. -1.
          2    1    1    2  501    0  0.38618154487E+02 -0.11200900248E+03 -0.83187398385E+03  0.84026882812E+03  0.00000000000E+00 0. -1.
<scales pt_clust_3="34.52632" pt_clust_4="152.65549" pt_clust_5="14000.00000" pt_clust_6="117.89744"></scales>
<clustering>
<clus scale="   34.526">  1  3  2 -1</clus>
<clus scale="  117.897">  2  6  1 -1</clus>
<clus scale="  152.655">  1  4  2 -1</clus>
<clus scale="   34.526">  1  3  2 -1</clus>
</clustering>
</event>
<event>
 6    0  0.1361744E+002  0.2317776E+03  0.7546771E-02  0.1125395E+00
         -3   -1    0    0    0  501 -0.00000000000E+00  0.00000000000E+00  0.77539649743E+03  0.77539649743E+03  0.00000000000E+00 0.  1.
         21   -1    0    0  503  502  0.00000000000E+00 -0.00000000000E+00 -0.69590684000E+03  0.69590684000E+03  0.00000000000E+00 0. -1.
         21    1    1    2  503  505  0.46991245516E+02 -0.14418333365E+02 -0.25291144438E+03  0.25764367679E+03  0.00000000000E+00 0. -1.
         21    1    1    2  504  502  0.16366614027E+03  0.12088513459E+03 -0.38124676524E+03  0.43214455596E+03  0.00000000000E+00 0. -1.
         21    1    1    2  505  501 -0.15480200360E+03 -0.16632506759E+03  0.43069340709E+03  0.48695430929E+03  0.00000000000E+00 0.  1.
         -3    1    1    2    0  504 -0.55855382183E+02  0.59858266361E+02  0.28295445996E+03  0.29456079539E+03  0.00000000000E+00 0.  1.
<scales pt_clust_3="49.15349" pt_clust_4="14000.00000" pt_clust_5="231.77763" pt_clust_6="81.31043"></scales>
<clustering>
<clus scale="   49.153">  2  3  1 -1</clus>
<clus scale="   81.310">  1  6  2 -1</clus>
<clus scale="  231.778">  1  5  2 -1</clus>
<clus scale="   49.153">  2  3  1 -1</clus>
</clustering>
</event>
<event>
 6    0  0.1361744E+002  0.1738985E+03  0.7546771E-02  0.1173842E+00
         21   -1    0    0  504  502  0.00000000000E+00  0.00000000000E+00  0.69947295624E+02  0.69947295624E+02  0.00000000000E+00 0. -1.
          2   -1    0    0  503    0 -0.00000000000E+00 -0.00000000000E+00 -0.36326607921E+04  0.36326607921E+04  0.00000000000E+00 0.  1.
         21    1    1    2  503  505 -0.19033102436E+03  0.36383306178E+02 -0.14366423632E+04  0.14496520009E+04  0.00000000000E+00 0.  1.
         21    1    1    2  504  501  0.15758546673E+02  0.27891816586E+02 -0.52071534284E+02  0.61136976605E+02  0.00000000000E+00 0. -1.
         21    1    1    2  505  502  0.94677194066E+01 -0.95183095939E+02  0.14351634544E+02  0.96723466012E+02  0.00000000000E+00 0. -1.
          2    1    1    2  501    0  0.16510475828E+03  0.30907973175E+02 -0.20883512335E+04  0.20950956442E+04  0.00000000000E+00 0.  1.
<scales pt_clust_3="14000.00000" pt_clust_4="32.03569" pt_clust_5="75.06407" pt_clust_6="173.89855"></scales>
<clustering>
<clus scale="   32.036">  1  4  2 -1</clus>
<clus scale="   75.064">  1  5  2 -1</clus>
<clus scale="  173.899">  2  6  1 -1</clus>
<clus scale="   32.036">  1  3  2 -1</clus>
</clustering>
</event>
<event>
 6    0  0.1361744E+002  0.2898937E+03  0.7546771E-02  0.1090405E+00
          2   -1    0    0  503    0 -0.00000000000E+00  0.00000000000E+00  0.11555239246E+04  0.11555239246E+04  0.00000000000E+00 0. -1.
         21   -1    0    0  504  502  0.00000000000E+00 -0.00000000000E+00 -0.21024437040E+04  0.21024437040E+04  0.00000000000E+00 0.  1.
         21    1    1    2  503  502 -0.11026563312E+03  0.15387607872E+03  0.14616932724E+03  0.23916903996E+03  0.00000000000E+00 0. -1.
         21    1    1    2  504  505  0.18114010778E+03 -0.11403363281E+03 -0.13231499400E+04  0.13403511375E+04  0.00000000000E+00 0.  1.
         21    1    1    2  505  501  0.36857547239E+02 -0.66152774294E+02 -0.71897604177E+03  0.72295312225E+03  0.00000000000E+00 0.  1.
          2    1    1    2  501    0 -0.10773202190E+03  0.26310328389E+02  0.94903687524E+03  0.95549432886E+03  0.00000000000E+00 0. -1.
<scales pt_clust_3="277.63737" pt_clust_4="49.60763" pt_clust_5="49.60763" pt_clust_6="110.89825"></scales>
<clustering>
<clus scale="   49.608">  4  5 -1 -1</clus>
<clus scale="  110.898">  1  6  2 -1</clus>
<clus scale="  277.637">  1  3  2 -1</clus>
<clus scale="  289.894">  2  3  1 -1</clus>
</clustering>
</event>
<event>
 6    0  0.1361744E+002  0.8251605E+02  0.7546771E-02  0.1322059E+00
         21   -1    0    0  505  502  0.00000000000E+00  0.00000000000E+00  0.35119073228E+02  0.35119073228E+02  0.00000000000E+00 0. -1.
          1   -1    0    0  504    0 -0.00000000000E+00 -0.00000000000E+00 -0.14001924623E+04  0.14001924623E+04  0.00000000000E+00 0. -1.
         21    1    1    2  503  502 -0.43300703685E+02  0.19485983423E+02 -0.15506701379E+02  0.49951098859E+02  0.00000000000E+00 0. -1.
         21    1    1    2  504  503  0.98205246830E+02  0.85537046214E+02 -0.53846948844E+03  0.55399480752E+03  0.00000000000E+00 0. -1.
         21    1    1    2  505  501 -0.11477746279E+02 -0.47243596037E+02 -0.61997707236E+02  0.78787129207E+02  0.00000000000E+00 0. -1.
          1    1    1    2  501    0 -0.43426796867E+02 -0.57779433601E+02 -0.74909949202E+03  0.75257849994E+03  0.00000000000E+00 0. -1.
<scales pt_clust_3="47.48320" pt_clust_4="14000.00000" pt_clust_5="49.62235" pt_clust_6="82.51605"></scales>
<clustering>
<clus scale="   47.483">  1  3  2 -1</clus>
<clus scale="   49.622">  1  5  2 -1</clus>
<clus scale="   82.516">  2  6  1 -1</clus>
<clus scale="   47.483">  1  3  2 -1</clus>
</clustering>
</event>
<event>
 6    0  0.1361744E+002  0.1402646E+03  0.7546771E-02  0.1212973E+00
         21   -1    0    0  501  502  0.00000000000E+00  0.00000000000E+00  0.54296616277E+03  0.54296616277E+03  0.00000000000E+00 0. -1.
          1   -1    0    0  505    0 -0.00000000000E+00 -0.00000000000E+00 -0.41753282988E+03  0.41753282988E+03  0.00000000000E+00 0. -1.
         21    1    1    2  503  504  0.82283406572E+01 -0.10539097867E+03  0.41566641891E+03  0.42889804824E+03  0.00000000000E+00 0. -1.
         21    1    1    2  504  502 -0.27128884800E+02 -0.21677408530E+02  0.99916037544E+02  0.10577854692E+03  0.00000000000E+00 0.  1.
         21    1    1    2  505  503  0.11969301437E+02  0.55080164201E+02 -0.42136278463E+02  0.70374389007E+02  0.00000000000E+00 0. -1.
          1    1    1    2  501    0  0.69312427053E+01  0.71988222997E+02 -0.34801284510E+03  0.35544800848E+03  0.00000000000E+00 0. -1.
<scales pt_clust_3="34.15000" pt_clust_4="34.15000" pt_clust_5="56.36567" pt_clust_6="126.98016"></scales>
<clustering>
<clus scale="   34.150">  3  4 -1 -1</clus>
<clus scale="   56.366">  2  5  1 -1</clus>
<clus scale="  126.980">  2  6  1 -1</clus>
<clus scale="  140.265">  1  3  2 -1</clus>
</clustering>
</event>
<event>
 6    0  0.1361744E+002  0.1008316E+03  0.7546771E-02  0.1278557E+00
          2   -1    0    0  504    0 -0.00000000000E+00  0.00000000000E+00  0.12463250939E+04  0.12463250939E+04  0.00000000000E+00 0.  1.
         21   -1    0    0  501  502  0.00000000000E+00 -0.00000000000E+00 -0.43288392345E+03  0.43288392345E+03  0.00000000000E+00 0. -1.
         21    1    1    2  503  505 -0.10682525114E+03 -0.72740192480E+01 -0.70695610758E+02  0.12830594303E+03  0.00000000000E+00 0. -1.
         21    1    1    2  504  503  0.25172964948E+02  0.14974490264E+03  0.13486098655E+03  0.20308791131E+03  0.00000000000E+00 0. -1.
         21    1    1    2  505  502  0.55407821456E+02 -0.80164495444E+02 -0.29020936351E+03  0.30613370882E+03  0.00000000000E+00 0. -1.
          2    1    1    2  501    0  0.26244464731E+02 -0.62306387945E+02  0.10394851581E+04  0.10416814541E+04  0.00000000000E+00 0.  1.
<scales pt_clust_3="100.83161" pt_clust_4="14000.00000" pt_clust_5="100.01181" pt_clust_6="67.60812"></scales>
<clustering>
<clus scale="   67.608">  1  6  2 -1</clus>
<clus scale="  100.012">  2  5  1 -1</clus>
<clus scale="  100.832">  2  3  1 -1</clus>
<clus scale="  100.012">  2  3  1 -1</clus>
</clustering>
</event>
<event>
 6    0  0.1361744E+002  0.1795683E+03  0.7546771E-02  0.1168222E+00
         21   -1    0    0  503  502  0.00000000000E+00  0.00000000000E+00  0.18475608260E+03  0.18475608260E+03  0.00000000000E+00 0. -1.
          2   -1    0    0  505    0 -0.00000000000E+00 -0.00000000000E+00 -0.22267297802E+04  0.22267297802E+04  0.00000000000E+00 0. -1.
         21    1    1    2  503  504 -0.17522653596E+03  0.16101413824E+02  0.11834433726E+03  0.21205889888E+03  0.00000000000E+00 0. -1.
         21    1    1    2  504  501  0.13581954740E+03 -0.20269194752E+02 -0.14366872688E+04  0.14432352885E+04  0.00000000000E+00 0. -1.
         21    1    1    2  505  502  0.14170860951E+02  0.29867851754E+02 -0.14265558340E+01  0.33089831218E+02  0.00000000000E+00 0. -1.
          2    1    1    2  501    0  0.25236127611E+02 -0.25700070826E+02 -0.72220421024E+03  0.72310184418E+03  0.00000000000E+00 0. -1.
<scales pt_clust_3="167.60881" pt_clust_4="33.00072" pt_clust_5="33.05907" pt_clust_6="33.00072"></scales>
<clustering>
<clus scale="   33.001">  4  6 -1 -1</clus>
<clus scale="   33.059">  1  5  2 -1</clus>
<clus scale="  167.609">  1  3  2 -1</clus>
<clus scale="   33.059">  1  3  2 -1</clus>
</clustering>
</event>
<event>
 6    0  0.1361744E+002  0.2973798E+03  0.7546771E-02  0.1086558E+00
         21   -1    0    0  505  502  0.00000000000E+00  0.00000000000E+00  0.17229530650E+03  0.17229530650E+03  0.00000000000E+00 0. -1.
          2   -1    0    0  503    0 -0.00000000000E+00 -0.00000000000E+00 -0.19375172107E+04  0.19375172107E+04  0.00000000000E+00 0. -1.
         21    1    1    2  503  504  0.15692239941E+03  0.29337978173E+03 -0.23997306426E+03  0.41022360651E+03  0.00000000000E+00 0. -1.
         21    1    1    2  504  502  0.34136130625E+02 -0.34368588820E+02  0.39532902317E+02  0.62524600576E+02  0.00000000000E+00 0. -1.
         21    1    1    2  505  501 -0.72882963799E+02  0.77572640783E+01 -0.37820799689E+02  0.82477357179E+02  0.00000000000E+00 0. -1.
          2    1    1    2  501    0 -0.11817556624E+03 -0.26676845699E+03 -0.15269609426E+04  0.15545869529E+04  0.00000000000E+00 0. -1.
<scales pt_clust_3="14000.00000" pt_clust_4="48.44043" pt_clust_5="66.61296" pt_clust_6="297.37976"></scales>
<clustering>
<clus scale="   48.440">  1  4  2 -1</clus>
<clus scale="   66.613">  1  5  2 -1</clus>
<clus scale="  297.380">  2  6  1 -1</clus>
<clus scale="   48.440">  1  3  2 -1</clus>
</clustering>
</event>
<event>
 6    0  0.1361744E+002  0.1430281E+03  0.7546771E-02  0.1209311E+00
         21   -1    0    0  505  502  0.00000000000E+00  0.00000000000E+00  0.13885297238E+02  0.13885297238E+02  0.00000000000E+00 0.  1.
          2   -1    0    0  502    0 -0.00000000000E+00 -0.00000000000E+00 -0.23436215546E+04  0.23436215546E+04  0.00000000000E+00 0. -1.
         21    1    1    2  503  501 -0.11052914324E+02 -0.68371583282E+02 -0.83793678222E+03  0.84079420271E+03  0.00000000000E+00 0.  1.
         21    1    1    2  504  503 -0.27199021668E+02  0.62438356972E+02 -0.26944615130E+03  0.27792006702E+03  0.00000000000E+00 0.  1.
         21    1    1    2  505  504  0.69178461833E+01  0.71011890476E+02 -0.17547509252E+03  0.18942558771E+03  0.00000000000E+00 0.  1.
          2    1    1    2  501    0  0.31334089808E+02 -0.65078664166E+02 -0.10468782313E+04  0.10493669944E+04  0.00000000000E+00 0. -1.
<scales pt_clust_3="43.36784" pt_clust_4="46.20708" pt_clust_5="46.20708" pt_clust_6="142.06237"></scales>
<clustering>
<clus scale="   43.368">  3  6 -1 -1</clus>
<clus scale="   46.207">  4  5 -1 -1</clus>
<clus scale="  142.062">  2  3  1 -1</clus>
<clus scale="  143.028">  1  3  2 -1</clus>
</clustering>
</event>
<event>
 6    0  0.1361744E+002  0.1296208E+03  0.7546771E-02  0.1228020E+00
          2   -1    0    0  503    0 -0.00000000000E+00  0.00000000000E+00  0.12088156917E+04  0.12088156917E+04  0.00000000000E+00 0. -1.
         21   -1    0    0  501  502  0.00000000000E+00 -0.00000000000E+00 -0.26396722889E+03  0.26396722889E+03  0.00000000000E+00 0.  1.
         21    1    1    2  503  505  0.21491714183E+02  0.23585870128E+02  0.36887439355E+03  0.37025194836E+03  0.00000000000E+00 0. -1.
         21    1    1    2  504  502 -0.78458311173E+02 -0.10714302683E+03 -0.22216613454E+03  0.25883030372E+03  0.00000000000E+00 0.  1.
         21    1    1    2  505  504  0.89658644682E+02  0.64820520207E+02  0.11520421460E+03  0.15972596366E+03  0.00000000000E+00 0. -1.
          2    1    1    2  501    0 -0.32692047691E+02  0.18736636492E+02  0.68293598921E+03  0.68397470486E+03  0.00000000000E+00 0. -1.
<scales pt_clust_3="31.90904" pt_clust_4="129.62076" pt_clust_5="14000.00000" pt_clust_6="40.87162"></scales>
<clustering>
<clus scale="   31.909">  1  3  2 -1</clus>
<clus scale="   40.872">  1  6  2 -1</clus>
<clus scale="  129.621">  2  4  1 -1</clus>
<clus scale="  129.621">  2  3  1 -1</clus>
</clustering>
</event>
<event>
 6    0  0.1361744E+002  0.6773053E+02  0.7546771E-02  0.1367985E+00
          1   -1    0    0  504    0 -0.00000000000E+00  0.00000000000E+00  0.87575318250E+03  0.87575318250E+03  0.00000000000E+00 0.  1.
         21   -1    0    0  503  502  0.00000000000E+00 -0.00000000000E+00 -0.88782206974E+03  0.88782206974E+03  0.00000000000E+00 0.  1.
         21    1    1    2  503  505 -0.49483148095E+02 -0.38588021601E+02 -0.59950320367E+03  0.60277832457E+03  0.00000000000E+00 0.  1.
         21    1    1    2  504  502  0.11556813749E+02  0.28667267068E+02  0.19071243452E+02  0.36319202524E+02  0.00000000000E+00 0.  1.
         21    1    1    2  505  501  0.58436579129E+02  0.73764543538E+02 -0.26871549350E+03  0.28471750580E+03  0.00000000000E+00 0. -1.
          1    1    1    2  501    0 -0.20510244783E+02 -0.63843789005E+02  0.83707856648E+03  0.83976021934E+03  0.00000000000E+00 0.  1.
<scales pt_clust_3="67.73053" pt_clust_4="30.90909" pt_clust_5="14000.00000" pt_clust_6="36.64627"></scales>
<clustering>
<clus scale="   30.909">  1  4  2 -1</clus>
<clus scale="   36.646">  1  6  2 -1</clus>
<clus scale="   67.731">  2  3  1 -1</clus>
<clus scale="   67.731">  2  3  1 -1</clus>
</clustering>
</event>
<event>
 6    0  0.1361744E+002  0.8971495E+02  0.7546771E-02  0.1303543E+00
         21   -1    0    0  503  502  0.00000000000E+00  0.00000000000E+00  0.17743066965E+03  0.17743066965E+03  0.00000000000E+00 0.  1.
         -3   -1    0    0    0  501 -0.00000000000E+00 -0.00000000000E+00 -0.37852552758E+03  0.37852552758E+03  0.00000000000E+00 0.  1.
         21    1    1    2  503  504  0.12568198901E+02 -0.37678895012E+02  0.90410092706E+02  0.98750410713E+02  0.00000000000E+00 0. -1.
         21    1    1    2  504  505 -0.52771348596E+02 -0.13911632333E+02  0.11569275246E+02  0.55787067287E+02  0.00000000000E+00 0.  1.
         21    1    1    2  505  501  0.48851342995E+02 -0.71252613750E+02 -0.25497232952E+03  0.26921047063E+03  0.00000000000E+00 0.  1.
         -3    1    1    2    0  502 -0.86481932998E+01  0.12284314109E+03 -0.48101896367E+02  0.13220824859E+03  0.00000000000E+00 0.  1.
<scales pt_clust_3="39.71975" pt_clust_4="55.91044" pt_clust_5="89.71495" pt_clust_6="14000.00000"></scales>
<clustering>
<clus scale="   39.720">  1  3  2 -1</clus>
<clus scale="   55.910">  1  4  2 -1</clus>
<clus scale="   89.715">  2  5  1 -1</clus>
<clus scale="   39.720">  1  3  2 -1</clus>
</clustering>
</event>
<event>
 6    0  0.1361744E+002  0.1732511E+03  0.7546771E-02  0.1174499E+00
         -2   -1    0    0    0  501 -0.00000000000E+00  0.00000000000E+00  0.22511667020E+03  0.22511667020E+03  0.00000000000E+00 0. -1.
         21   -1    0    0  503  502  0.00000000000E+00 -0.00000000000E+00 -0.27622600456E+03  0.27622600456E+03  0.00000000000E+00 0. -1.
         21    1    1    2  503  505  0.69592951371E+02 -0.13348228178E+02 -0.75124527866E+02  0.10327172296E+03  0.00000000000E+00 0. -1.
         21    1    1    2  504  502  0.93005992927E+01 -0.33247196586E+02 -0.14289058650E+02  0.37363811705E+02  0.00000000000E+00 0.  1.
         21    1    1    2  505  501  0.13205491581E+03  0.55988477544E+02 -0.11049529635E+02  0.14385861987E+03  0.00000000000E+00 0. -1.
         -2    1    1    2    0  504 -0.21094846647E+03 -0.93930527802E+01  0.49353781786E+02  0.21684852022E+03  0.00000000000E+00 0. -1.
<scales pt_clust_3="77.13566" pt_clust_4="34.52357" pt_clust_5="173.25114" pt_clust_6="14000.00000"></scales>
<clustering>
<clus scale="   34.524">  2  4  1 -1</clus>
<clus scale="   77.136">  2  3  1 -1</clus>
<clus scale="  173.251">  1  5  2 -1</clus>
<clus scale="   34.524">  2  3  1 -1</clus>
</clustering>
</event>
<event>
 6    0  0.1361744E+002  0.1509834E+03  0.7546771E-02  0.1199270E+00
          3   -1    0    0  503    0 -0.00000000000E+00  0.00000000000E+00  0.16858600662E+04  0.16858600662E+04  0.00000000000E+00 0. -1.
         21   -1    0    0  505  502  0.00000000000E+00 -0.00000000000E+00 -0.13064587158E+03  0.13064587158E+03  0.00000000000E+00 0. -1.
         21    1    1    2  503  502 -0.72543882515E+01  0.88642585252E+02 -0.78524298832E+02  0.11864316068E+03  0.00000000000E+00 0. -1.
         21    1    1    2  504  501  0.53719269906E+02 -0.72558475697E+02  0.11389616725E+04  0.11425341061E+04  0.00000000000E+00 0. -1.
         21    1    1    2  505  504 -0.36393511637E+02  0.42370084750E+02 -0.11509928522E+01  0.55866238065E+02  0.00000000000E+00 0. -1.
          3    1    1    2  501    0 -0.10071370018E+02 -0.58454194305E+02  0.49592781380E+03  0.49946243285E+03  0.00000000000E+00 0. -1.
<scales pt_clust_3="136.29543" pt_clust_4="52.65271" pt_clust_5="55.85438" pt_clust_6="52.65271"></scales>
<clustering>
<clus scale="   52.653">  4  6 -1 -1</clus>
<clus scale="   55.854">  2  5  1 -1</clus>
<clus scale="  136.295">  2  3  1 -1</clus>
<clus scale="   55.854">  2  3  1 -1</clus>
</clustering>
</event>
<event>
 6    0  0.1361744E+002  0.1478577E+03  0.7546771E-02  0.1203130E+00
          2   -1    0    0  504    0 -0.00000000000E+00  0.00000000000E+00  0.80729945406E+03  0.80729945406E+03  0.00000000000E+00 0. -1.
         21   -1    0    0  503  502  0.00000000000E+00 -0.00000000000E+00 -0.35211623002E+03  0.35211623002E+03  0.00000000000E+00 0.  1.
         21    1    1    2  503  501  0.14136797019E+03  0.93019875429E+02 -0.29091160354E+03  0.33655187014E+03  0.00000000000E+00 0.  1.
         21    1    1    2  504  505 -0.56880738683E+02 -0.71095991652E+02  0.31062952298E+03  0.32369856195E+03  0.00000000000E+00 0. -1.
         21    1    1    2  505  502  0.36222838710E+01 -0.39376383437E+02 -0.13130304191E+02  0.41665638135E+02  0.00000000000E+00 0.  1.
          2    1    1    2  501    0 -0.88109515378E+02  0.17452499660E+02  0.44859560880E+03  0.45749961385E+03  0.00000000000E+00 0. -1.
<scales pt_clust_3="14000.00000" pt_clust_4="147.85769" pt_clust_5="39.54264" pt_clust_6="89.66925"></scales>
<clustering>
<clus scale="   39.543">  2  5  1 -1</clus>
<clus scale="   89.669">  1  6  2 -1</clus>
<clus scale="  147.858">  1  4  2 -1</clus>
<clus scale="   39.543">  2  3  1 -1</clus>
</clustering>
</event>
<event>
 6    0  0.1361744E+002  0.1293558E+03  0.7546771E-02  0.1228415E+00
         -4   -1    0    0    0  501 -0.00000000000E+00  0.00000000000E+00  0.65321314310E+02  0.65321314310E+02  0.00000000000E+00 0.  1.
         21   -1    0    0  504  502  0.00000000000E+00 -0.00000000000E+00 -0.51391301567E+03  0.51391301567E+03  0.00000000000E+00 0. -1.
         21    1    1    2  503  505  0.62208914132E+02 -0.18545803742E+02 -0.13055153986E+03  0.14579986417E+03  0.00000000000E+00 0. -1.
         21    1    1    2  504  503  0.63958975821E+02 -0.94692122613E+01 -0.27587653619E+03  0.28335186569E+03  0.00000000000E+00 0. -1.
         21    1    1    2  505  501 -0.46285949577E+02 -0.50309486790E+01 -0.43366675379E+02  0.63626787648E+02  0.00000000000E+00 0.  1.
         -4    1    1    2    0  502 -0.79881940376E+02  0.33045964682E+02  0.12030500695E+01  0.86455812468E+02  0.00000000000E+00 0.  1.
<scales pt_clust_3="46.78551" pt_clust_4="46.78551" pt_clust_5="46.55856" pt_clust_6="120.20265"></scales>
<clustering>
<clus scale="   46.559">  1  5  2 -1</clus>
<clus scale="   46.786">  3  4 -1 -1</clus>
<clus scale="  120.203">  1  6  2 -1</clus>
<clus scale="  129.356">  2  3  1 -1</clus>
</clustering>
</event>
<event>
 6    0  0.1361744E+002  0.1993931E+03  0.7546771E-02  0.1150252E+00
         21   -1    0    0  503  502  0.00000000000E+00  0.00000000000E+00  0.52256307871E+03  0.52256307871E+03  0.00000000000E+00 0.  1.
          1   -1    0    0  504    0 -0.00000000000E+00 -0.00000000000E+00 -0.39172729128E+03  0.39172729128E+03  0.00000000000E+00 0.  1.
         21    1    1    2  503  501 -0.10936687777E+03 -0.34068747751E+02 -0.15208981808E+03  0.19040248499E+03  0.00000000000E+00 0.  1.
         21    1    1    2  504  505  0.12316623346E+03  0.24547840289E+02  0.15922401001E+03  0.20279251192E+03  0.00000000000E+00 0.  1.
         21    1    1    2  505  502  0.73978007445E+02  0.44227126380E+02  0.30486644634E+03  0.31681593142E+03  0.00000000000E+00 0.  1.
          1    1    1    2  501    0 -0.87777363132E+02 -0.34706218917E+02 -0.18116485083E+03  0.20427944167E+03  0.00000000000E+00 0.  1.
<scales pt_clust_3="30.36946" pt_clust_4="196.56627" pt_clust_5="86.19040" pt_clust_6="30.36946"></scales>
<clustering>
<clus scale="   30.369">  3  6 -1 -1</clus>
<clus scale="   86.190">  1  5  2 -1</clus>
<clus scale="  196.566">  1  4  2 -1</clus>
<clus scale="   86.190">  1  3  2 -1</clus>
</clustering>
</event>
<event>
 6    0  0.1361744E+002  0.1985778E+03  0.7546771E-02  0.1150944E+00
          2   -1    0    0  504    0 -0.00000000000E+00  0.00000000000E+00  0.12012743674E+04  0.12012743674E+04  0.00000000000E+00 0.  1.
         21   -1    0    0  503  502  0.00000000000E+00 -0.00000000000E+00 -0.20572625738E+04  0.20572625738E+04  0.00000000000E+00 0.  1.
         21    1    1    2  503  501 -0.19546240599E+03 -0.39336175843E+02 -0.10128050736E+04  0.10322436747E+04  0.00000000000E+00 0. -1.
         21    1    1    2  504  505  0.11060829404E+03 -0.50337057213E+02  0.11908435785E+03  0.17014434555E+03  0.00000000000E+00 0.  1.
         21    1    1    2  505  502  0.56191868181E+01  0.12852806665E+03 -0.10032336023E+04  0.10114488124E+04  0.00000000000E+00 0.  1.
          2    1    1    2  501    0  0.79234925131E+02 -0.38854833593E+02  0.10409661117E+04  0.10447001087E+04  0.00000000000E+00 0.  1.
<scales pt_clust_3="14000.00000" pt_clust_4="198.57784" pt_clust_5="127.75141" pt_clust_6="88.24892"></scales>
<clustering>
<clus scale="   88.249">  1  6  2 -1</clus>
<clus scale="  127.751">  2  5  1 -1</clus>
<clus scale="  198.578">  1  4  2 -1</clus>
<clus scale="  127.751">  2  3  1 -1</clus>
</clustering>
</event>
<event>
 6    0  0.1361744E+002  0.3466017E+03  0.7546771E-02  0.1064019E+00
          2   -1    0    0  505    0 -0.00000000000E+00  0.00000000000E+00  0.16142197271E+04  0.16142197271E+04  0.00000000000E+00 0. -1.
         21   -1    0    0  504  502  0.00000000000E+00 -0.00000000000E+00 -0.77581882099E+03  0.77581882099E+03  0.00000000000E+00 0. -1.
         21    1    1    2  503  501 -0.51008469222E+02 -0.52007875359E+01 -0.63948607770E+02  0.81965459549E+02  0.00000000000E+00 0.  1.
         21    1    1    2  504  503 -0.19653052422E+03 -0.21400743311E+03 -0.64904718091E+03  0.71111579326E+03  0.00000000000E+00 0. -1.
         21    1    1    2  505  502  0.58940363572E+02 -0.27576905026E+02  0.19972715463E+03  0.21006043998E+03  0.00000000000E+00 0. -1.
          2    1    1    2  501    0  0.18859862987E+03  0.24678512567E+03  0.13516695401E+04  0.13868968553E+04  0.00000000000E+00 0. -1.
<scales pt_clust_3="44.62920" pt_clust_4="44.62920" pt_clust_5="65.07267" pt_clust_6="329.91763"></scales>
<clustering>
<clus scale="   44.629">  3  4 -1 -1</clus>
<clus scale="   65.073">  1  5  2 -1</clus>
<clus scale="  329.918">  1  6  2 -1</clus>
<clus scale="  346.602">  2  3  1 -1</clus>
</clustering>
</event>
<event>
 6    0  0.1361744E+002  0.1898200E+03  0.7546771E-02  0.1158624E+00
         21   -1    0    0  503  502  0.00000000000E+00  0.00000000000E+00  0.14751894756E+03  0.14751894756E+03  0.00000000000E+00 0. -1.
          2   -1    0    0  505    0 -0.00000000000E+00 -0.00000000000E+00 -0.78154033589E+03  0.78154033589E+03  0.00000000000E+00 0.  1.
         21    1    1    2  503  501  0.88859871924E+02 -0.20307331003E+02 -0.28940751665E+03  0.30342243692E+03  0.00000000000E+00 0.  1.
         21    1    1    2  504  502 -0.33153790557E+02  0.42455621464E+02  0.15565832908E+01  0.53889484816E+02  0.00000000000E+00 0. -1.
         21    1    1    2  505  504 -0.13074750062E+03  0.15609015826E+02  0.68656544460E+02  0.14850007202E+03  0.00000000000E+00 0. -1.
          2    1    1    2  501    0  0.75041419256E+02 -0.37757306287E+02 -0.41482699942E+03  0.42324728969E+03  0.00000000000E+00 0.  1.
<scales pt_clust_3="41.48612" pt_clust_4="48.69582" pt_clust_5="48.69582" pt_clust_6="179.17209"></scales>
<clustering>
<clus scale="   41.486">  3  6 -1 -1</clus>
<clus scale="   48.696">  4  5 -1 -1</clus>
<clus scale="  179.172">  2  3  1 -1</clus>
<clus scale="  189.820">  1  3  2 -1</clus>
</clustering>
</event>
<event>
 6    0  0.1361744E+002  0.1556901E+03  0.7546771E-02  0.1193650E+00
         21   -1    0    0  504  502  0.00000000000E+00  0.00000000000E+00  0.95793417107E+02  0.95793417107E+02  0.00000000000E+00 0. -1.
          1   -1    0    0  503    0 -0.00000000000E+00 -0.00000000000E+00 -0.54880992527E+03  0.54880992527E+03  0.00000000000E+00 0.  1.
         21    1    1    2  503  505  0.12701016283E+02  0.40762587995E+02 -0.68127936096E+02  0.80400995462E+02  0.00000000000E+00 0.  1.
         21    1    1    2  504  501 -0.10607594198E+03  0.11814170257E+03 -0.47348493338E+02  0.16568478257E+03  0.00000000000E+00 0. -1.
         21    1    1    2  505  502  0.49397775162E+02 -0.63863111277E+01 -0.53239825299E+02  0.72906818327E+02  0.00000000000E+00 0.  1.
          1    1    1    2  501    0  0.43977150539E+02 -0.15251797944E+03 -0.28430025343E+03  0.32561074602E+03  0.00000000000E+00 0.  1.
<scales pt_clust_3="42.69548" pt_clust_4="155.69014" pt_clust_5="51.09509" pt_clust_6="14000.00000"></scales>
<clustering>
<clus scale="   42.695">  2  3  1 -1</clus>
<clus scale="   51.095">  2  5  1 -1</clus>
<clus scale="  155.690">  1  4  2 -1</clus>
<clus scale="  155.690">  1  3  2 -1</clus>
</clustering>
</event>
<event>
 6    0  0.1361744E+002  0.8134398E+02  0.7546771E-02  0.1325280E+00
         21   -1    0    0  503  502  0.00000000000E+00  0.00000000000E+00  0.37139688590E+03  0.37139688590E+03  0.00000000000E+00 0. -1.
          2   -1    0    0  505    0 -0.00000000000E+00 -0.00000000000E+00 -0.17570191335E+03  0.17570191335E+03  0.00000000000E+00 0. -1.
         21    1    1    2  503  501  0.74658799772E+02  0.79405159037E+02  0.16068384618E+03  0.19416079442E+03  0.00000000000E+00 0. -1.
         21    1    1    2  504  502  0.74984199104E+01 -0.78144340545E+02  0.16425096464E+03  0.18204709184E+03  0.00000000000E+00 0. -1.
         21    1    1    2  505  504 -0.14785177814E+02 -0.33329046625E+02 -0.33545092410E+02  0.49544929677E+02  0.00000000000E+00 0. -1.
          2    1    1    2  501    0 -0.67372041868E+02  0.32068228133E+02 -0.95694745870E+02  0.12134598332E+03  0.00000000000E+00 0. -1.
<scales pt_clust_3="14000.00000" pt_clust_4="81.34398" pt_clust_5="36.46131" pt_clust_6="79.49615"></scales>
<clustering>
<clus scale="   36.461">  2  5  1 -1</clus>
<clus scale="   79.496">  2  6  1 -1</clus>
<clus scale="   81.344">  1  4  2 -1</clus>
<clus scale="   81.344">  1  3  2 -1</clus>
</clustering>
</event>
<event>
 6    0  0.1361744E+002  0.2351080E+03  0.7546771E-02  0.1123095E+00
         21   -1    0    0  503  502  0.00000000000E+00  0.00000000000E+00  0.14860752883E+03  0.14860752883E+03  0.00000000000E+00 0. -1.
          2   -1    0    0  505    0 -0.00000000000E+00 -0.00000000000E+00 -0.10576981961E+04  0.10576981961E+04  0.00000000000E+00 0. -1.
         21    1    1    2  503  501  0.12464470195E+03 -0.11721263752E+03 -0.65852218863E+03  0.68038707883E+03  0.00000000000E+00 0. -1.
         21    1    1    2  504  502 -0.57754498902E+02 -0.42231685909E+02  0.36861914836E+02  0.80485391243E+02  0.00000000000E+00 0. -1.
         21    1    1    2  505  504 -0.13055771652E+03  0.17733804245E+03 -0.91188630385E+02  0.23834736196E+03  0.00000000000E+00 0. -1.
          2    1    1    2  501    0  0.63667513471E+02 -0.17893719014E+02 -0.19624176310E+03  0.20708589290E+03  0.00000000000E+00 0. -1.
<scales pt_clust_3="35.56081" pt_clust_4="71.54787" pt_clust_5="228.04414" pt_clust_6="35.56081"></scales>
<clustering>
<clus scale="   35.561">  3  6 -1 -1</clus>
<clus scale="   71.548">  1  4  2 -1</clus>
<clus scale="  228.044">  1  5  2 -1</clus>
<clus scale="   71.548">  1  3  2 -1</clus>
</clustering>
</event>
<event>
 6    0  0.1361744E+002  0.1000367E+03  0.7546771E-02  0.1280219E+00
         21   -1    0    0  503  502  0.00000000000E+00  0.00000000000E+00  0.48767063013E+03  0.48767063013E+03  0.00000000000E+00 0.  1.
          1   -1    0    0  504    0 -0.00000000000E+00 -0.00000000000E+00 -0.62970604322E+03  0.62970604322E+03  0.00000000000E+00 0.  1.
         21    1    1    2  503  501 -0.10829360118E+02  0.10915363968E+03  0.37220518134E+03  0.38803155685E+03  0.00000000000E+00 0.  1.
         21    1    1    2  504  505 -0.35273190839E+02 -0.16773022484E+02 -0.13566098751E+03  0.14117165370E+03  0.00000000000E+00 0.  1.
         21    1    1    2  505  502  0.44013231711E+02 -0.13995067784E+02  0.96332434960E+02  0.10683147717E+03  0.00000000000E+00 0.  1.
          1    1    1    2  501    0  0.20893192458E+01 -0.78385549410E+02 -0.47491204188E+03  0.48134198563E+03  0.00000000000E+00 0.  1.
<scales pt_clust_3="100.03672" pt_clust_4="39.05806" pt_clust_5="45.88071" pt_clust_6="14000.00000"></scales>
<clustering>
<clus scale="   39.058">  2  4  1 -1</clus>
<clus scale="   45.881">  1  5  2 -1</clus>
<clus scale="  100.037">  1  3  2 -1</clus>
<clus scale="   45.881">  1  3  2 -1</clus>
</clustering>
</event>
<event>
 6    0  0.1361744E+002  0.1405105E+03  0.7546771E-02  0.1212644E+00
         -1   -1    0    0    0  501 -0.00000000000E+00  0.00000000000E+00  0.39055206422E+03  0.39055206422E+03  0.00000000000E+00 0. -1.
         21   -1    0    0  504  502  0.00000000000E+00 -0.00000000000E+00 -0.16695376247E+03  0.16695376247E+03  0.00000000000E+00 0.  1.
         21    1    1    2  503  505  0.64042550674E+02 -0.26328602766E+02 -0.19704684556E+02  0.71992487204E+02  0.00000000000E+00 0.  1.
         21    1    1    2  504  501 -0.82843230586E+02  0.99398106670E+01  0.28301418955E+03  0.29505733710E+03  0.00000000000E+00 0. -1.
         21    1    1    2  505  502  0.45061733060E+02 -0.51412586727E+02 -0.81670826912E+02  0.10650792378E+03  0.00000000000E+00 0.  1.
         -1    1    1    2    0  503 -0.26261053147E+02  0.67801378826E+02  0.41959623665E+02  0.83948078603E+02  0.00000000000E+00 0. -1.
<scales pt_clust_3="59.93190" pt_clust_4="126.90640" pt_clust_5="59.93190" pt_clust_6="72.70949"></scales>
<clustering>
<clus scale="   59.932">  3  5 -1 -1</clus>
<clus scale="   72.709">  1  6  2 -1</clus>
<clus scale="  126.906">  1  4  2 -1</clus>
<clus scale="  140.510">  2  3  1 -1</clus>
</clustering>
</event>
<event>
 6    0  0.1361744E+002  0.2443103E+03  0.7546771E-02  0.1116954E+00
         21   -1    0    0  501  502  0.00000000000E+00  0.00000000000E+00  0.14790627106E+03  0.14790627106E+03  0.00000000000E+00 0. -1.
          2   -1    0    0  503    0 -0.00000000000E+00 -0.00000000000E+00 -0.82600949323E+03  0.82600949323E+03  0.00000000000E+00 0.  1.
         21    1    1    2  503  505 -0.34982496831E+02  0.70256984890E+01 -0.57343890790E+02  0.67538561835E+02  0.00000000000E+00 0. -1.
         21    1    1    2  504  502  0.47430067843E+02  0.47631524504E+01  0.14601417199E+02  0.49854792559E+02  0.00000000000E+00 0. -1.
         21    1    1    2  505  504 -0.13719613921E+02  0.23875876117E+03 -0.88508991305E+02  0.25500552030E+03  0.00000000000E+00 0. -1.
          2    1    1    2  501    0  0.12720429091E+01 -0.25054761211E+03 -0.54685175728E+03  0.60151688960E+03  0.00000000000E+00 0.  1.
<scales pt_clust_3="35.68102" pt_clust_4="46.88195" pt_clust_5="244.31028" pt_clust_6="14000.00000"></scales>
<clustering>
<clus scale="   35.681">  2  3  1 -1</clus>
<clus scale="   46.882">  1  4  2 -1</clus>
<clus scale="  244.310">  1  5  2 -1</clus>
<clus scale="   46.882">  1  3  2 -1</clus>
</clustering>
</event>
<event>
 6    0  0.1361744E+002  0.1574555E+03  0.7546771E-02  0.1191600E+00
         21   -1    0    0  504  502  0.00000000000E+00  0.00000000000E+00  0.27333616243E+04  0.27333616243E+04  0.00000000000E+00 0.  1.
          2   -1    0    0  503    0 -0.00000000000E+00 -0.00000000000E+00 -0.30441421407E+03  0.30441421407E+03  0.00000000000E+00 0. -1.
         21    1    1    2  503  505  0.71433641798E+01 -0.19945965974E+03 -0.25321843519E+03  0.32242015978E+03  0.00000000000E+00 0. -1.
         21    1    1    2  504  501  0.16823139158E+02  0.96576283997E+02  0.49288454073E+03  0.50253872202E+03  0.00000000000E+00 0.  1.
         21    1    1    2  505  502 -0.97964404977E+01  0.66745931209E+02  0.21670208125E+04  0.21680706149E+04  0.00000000000E+00 0.  1.
          2    1    1    2  501    0 -0.14170062840E+02  0.36137444532E+02  0.22260492214E+02  0.44746341659E+02  0.00000000000E+00 0. -1.
<scales pt_clust_3="157.45547" pt_clust_4="14000.00000" pt_clust_5="67.52872" pt_clust_6="38.81631"></scales>
<clustering>
<clus scale="   38.816">  2  6  1 -1</clus>
<clus scale="   67.529">  1  5  2 -1</clus>
<clus scale="  157.455">  2  3  1 -1</clus>
<clus scale="   67.529">  1  3  2 -1</clus>
</clustering>
</event>
<event>
 6    0  0.1361744E+002  0.1532544E+03  0.7546771E-02  0.1196530E+00
         21   -1    0    0  505  502  0.00000000000E+00  0.00000000000E+00  0.51326617864E+02  0.51326617864E+02  0.00000000000E+00 0. -1.
          1   -1    0    0  504    0 -0.00000000000E+00 -0.00000000000E+00 -0.27511803185E+04  0.27511803185E+04  0.00000000000E+00 0. -1.
         21    1    1    2  503  502 -0.29929343287E+02 -0.31630045706E+02  0.20060830083E+02  0.47944366557E+02  0.00000000000E+00 0.  1.
         21    1    1    2  504  503 -0.10250741296E+03  0.13181248692E+03 -0.20667437547E+04  0.20734782490E+04  0.00000000000E+00 0. -1.
         21    1    1    2  505  501  0.29249650318E+02 -0.22577722861E+02 -0.39946331878E+02  0.54415117788E+02  0.00000000000E+00 0. -1.
          1    1    1    2  501    0  0.10318710593E+03 -0.77604718347E+02 -0.61322444406E+03  0.62666920296E+03  0.00000000000E+00 0. -1.
<scales pt_clust_3="49.59243" pt_clust_4="153.25441" pt_clust_5="36.94991" pt_clust_6="14000.00000"></scales>
<clustering>
<clus scale="   36.950">  1  5  2 -1</clus>
<clus scale="   49.592">  1  3  2 -1</clus>
<clus scale="  153.254">  2  4  1 -1</clus>
<clus scale="   36.950">  1  3  2 -1</clus>
</clustering>
</event>
<event>
 6    0  0.1361744E+002  0.1279375E+03  0.7546771E-02  0.1230549E+00
          4   -1    0    0  503    0 -0.00000000000E+00  0.00000000000E+00  0.81402168211E+03  0.81402168211E+03  0.00000000000E+00 0.  1.
         21   -1    0    0  505  502  0.00000000000E+00 -0.00000000000E+00 -0.31866384928E+03  0.31866384928E+03  0.00000000000E+00 0. -1.
         21    1    1    2  503  504  0.54530336655E+02  0.88549352468E+02  0.24231190934E+03  0.26368467313E+03  0.00000000000E+00 0. -1.
         21    1    1    2  504  502  0.45583445875E+02 -0.93765742290E+01 -0.23845029156E+03  0.24294919680E+03  0.00000000000E+00 0. -1.
         21    1    1    2  505  501  0.38979026098E+02  0.45739393964E+01 -0.48376280299E+02  0.62294059851E+02  0.00000000000E+00 0. -1.
          4    1    1    2  501    0 -0.13909280863E+03 -0.83746717635E+02  0.53987249535E+03  0.56375760160E+03  0.00000000000E+00 0.  1.
<scales pt_clust_3="14000.00000" pt_clust_4="81.37887" pt_clust_5="39.24647" pt_clust_6="127.93750"></scales>
<clustering>
<clus scale="   39.246">  2  5  1 -1</clus>
<clus scale="   81.379">  2  4  1 -1</clus>
<clus scale="  127.938">  2  6  1 -1</clus>
<clus scale="   39.246">  2  3  1 -1</clus>
</clustering>
</event>
<event>
 6    0  0.1361744E+002  0.2451770E+03  0.7546771E-02  0.1116391E+00
         21   -1    0    0  504  502  0.00000000000E+00  0.00000000000E+00  0.82833620686E+03  0.82833620686E+03  0.00000000000E+00 0.  1.
          2   -1    0    0  505    0 -0.00000000000E+00 -0.00000000000E+00 -0.76344553986E+03  0.76344553986E+03  0.00000000000E+00 0. -1.
         21    1    1    2  503  502  0.33977467745E+02 -0.38321990282E+02  0.39210635690E+03  0.39543702201E+03  0.00000000000E+00 0.  1.
         21    1    1    2  504  501  0.19042907858E+03  0.12211318393E+03 -0.38880215009E+02  0.22953547608E+03  0.00000000000E+00 0.  1.
         21    1    1    2  505  503  0.33900696184E+02 -0.80336993552E+02  0.30630746936E+03  0.31847693091E+03  0.00000000000E+00 0.  1.
          2    1    1    2  501    0 -0.25830724251E+03 -0.34542000962E+01 -0.59464294426E+03  0.64833231771E+03  0.00000000000E+00 0. -1.
<scales pt_clust_3="43.37982" pt_clust_4="245.17698" pt_clust_5="147.95695" pt_clust_6="14000.00000"></scales>
<clustering>
<clus scale="   43.380">  3  5 -1 -1</clus>
<clus scale="  147.957">  1  3  2 -1</clus>
<clus scale="  245.177">  1  4  2 -1</clus>
<clus scale="  147.957">  1  3  2 -1</clus>
</clustering>
</event>
<event>
 6    0  0.1361744E+002  0.1748755E+03  0.7546771E-02  0.1172857E+00
          2   -1    0    0  505    0 -0.00000000000E+00  0.00000000000E+00  0.14921339689E+04  0.14921339689E+04  0.00000000000E+00 0. -1.
         21   -1    0    0  501  502  0.00000000000E+00 -0.00000000000E+00 -0.67661421103E+02  0.67661421103E+02  0.00000000000E+00 0.  1.
         21    1    1    2  503  504 -0.25889920376E+02  0.57157290555E+02  0.54374705306E+02  0.83029226286E+02  0.00000000000E+00 0.  1.
         21    1    1    2  504  502  0.14485710173E+02  0.11799672057E+03  0.32555883407E+02  0.12325967471E+03  0.00000000000E+00 0.  1.
         21    1    1    2  505  503  0.48592489414E+02 -0.10728412416E+03  0.56794514652E+03  0.58002827757E+03  0.00000000000E+00 0. -1.
          2    1    1    2  501    0 -0.37188279211E+02 -0.67869886968E+02  0.76959681254E+03  0.77347821142E+03  0.00000000000E+00 0. -1.
<scales pt_clust_3="47.02237" pt_clust_4="47.02237" pt_clust_5="162.45687" pt_clust_6="77.39050"></scales>
<clustering>
<clus scale="   47.022">  3  4 -1 -1</clus>
<clus scale="   77.391">  1  6  2 -1</clus>
<clus scale="  162.457">  1  5  2 -1</clus>
<clus scale="  174.875">  2  3  1 -1</clus>
</clustering>
</event>
<event>
 6    0  0.1361744E+002  0.1179953E+03  0.7546771E-02  0.1246441E+00
          1   -1    0    0  503    0 -0.00000000000E+00  0.00000000000E+00  0.58417004222E+03  0.58417004222E+03  0.00000000000E+00 0.  1.
         21   -1    0    0  505  502  0.00000000000E+00 -0.00000000000E+00 -0.45656833597E+03  0.45656833597E+03  0.00000000000E+00 0.  1.
         21    1    1    2  503  504  0.24337325830E+02  0.75903927040E+02  0.11154732724E+03  0.13710039308E+03  0.00000000000E+00 0.  1.
         21    1    1    2  504  502 -0.38183092248E+02 -0.29358464304E+02 -0.17724288839E+03  0.18367065482E+03  0.00000000000E+00 0.  1.
         21    1    1    2  505  501  0.18077323199E+02 -0.95484818875E+02 -0.25297534888E+03  0.27099938633E+03  0.00000000000E+00 0.  1.
          1    1    1    2  501    0 -0.42315567808E+01  0.48939356139E+02  0.44627261628E+03  0.44896794394E+03  0.00000000000E+00 0.  1.
<scales pt_clust_3="117.99527" pt_clust_4="48.16501" pt_clust_5="14000.00000" pt_clust_6="48.99565"></scales>
<clustering>
<clus scale="   48.165">  2  4  1 -1</clus>
<clus scale="   48.996">  1  6  2 -1</clus>
<clus scale="  117.995">  1  3  2 -1</clus>
<clus scale="   48.165">  2  3  1 -1</clus>
</clustering>
</event>
<event>
 6    0  0.1361744E+002  0.1472077E+03  0.7546771E-02  0.1203947E+00
         21   -1    0    0  505  502  0.00000000000E+00  0.00000000000E+00  0.99881140466E+02  0.99881140466E+02  0.00000000000E+00 0. -1.
          1   -1    0    0  504    0 -0.00000000000E+00 -0.00000000000E+00 -0.14013426799E+04  0.14013426799E+04  0.00000000000E+00 0. -1.
         21    1    1    2  503  502 -0.16134861573E+02  0.74085882606E+02 -0.10738820789E+03  0.13145827837E+03  0.00000000000E+00 0. -1.
         21    1    1    2  504  503 -0.34646468987E+02 -0.82298666939E+02 -0.95766223264E+03  0.96181619877E+03  0.00000000000E+00 0. -1.
         21    1    1    2  505  501 -0.10361803638E+03  0.51094008594E+02  0.78719851395E+01  0.11579837360E+03  0.00000000000E+00 0. -1.
          1    1    1    2  501    0  0.15439936694E+03 -0.42881224261E+02 -0.24428308408E+03  0.29215096966E+03  0.00000000000E+00 0. -1.
<scales pt_clust_3="75.82250" pt_clust_4="87.83382" pt_clust_5="147.20766" pt_clust_6="14000.00000"></scales>
<clustering>
<clus scale="   75.823">  1  3  2 -1</clus>
<clus scale="   87.834">  2  4  1 -1</clus>
<clus scale="  147.208">  1  5  2 -1</clus>
<clus scale="   75.823">  1  3  2 -1</clus>
</clustering>
</event>
<event>
 6    0  0.1361744E+002  0.1434383E+03  0.7546771E-02  0.1208776E+00
          2   -1    0    0  503    0 -0.00000000000E+00  0.00000000000E+00  0.41018988531E+03  0.41018988531E+03  0.00000000000E+00 0.  1.
         21   -1    0    0  501  502  0.00000000000E+00 -0.00000000000E+00 -0.23124829959E+03  0.23124829959E+03  0.00000000000E+00 0. -1.
         21    1    1    2  503  504 -0.50778771584E+02 -0.31805189912E+02 -0.15320909928E+02  0.61844838345E+02  0.00000000000E+00 0.  1.
         21    1    1    2  504  505 -0.87637504949E+02 -0.59257214217E+02 -0.10317602736E+03  0.14777361852E+03  0.00000000000E+00 0. -1.
         21    1    1    2  505  502  0.65626987552E+02 -0.20470575882E+02 -0.32480666804E+02  0.76032491003E+02  0.00000000000E+00 0. -1.
          2    1    1    2  501    0  0.72789288981E+02  0.11153298001E+03  0.32991918982E+03  0.35578723702E+03  0.00000000000E+00 0.  1.
<scales pt_clust_3="37.22742" pt_clust_4="37.22742" pt_clust_5="68.74552" pt_clust_6="134.63878"></scales>
<clustering>
<clus scale="   37.227">  3  4 -1 -1</clus>
<clus scale="   68.746">  2  5  1 -1</clus>
<clus scale="  134.639">  1  6  2 -1</clus>
<clus scale="   68.746">  2  3  1 -1</clus>
</clustering>
</event>
<event>
 6    0  0.1361744E+002  0.9850109E+02  0.7546771E-02  0.1283480E+00
         -2   -1    0    0    0  501 -0.00000000000E+00  0.00000000000E+00  0.48292669894E+03  0.48292669894E+03  0.00000000000E+00 0.  1.
         21   -1    0    0  504  502  0.00000000000E+00 -0.00000000000E+00 -0.11507557422E+03  0.11507557422E+03  0.00000000000E+00 0. -1.
         21    1    1    2  503  502 -0.40227243197E+02 -0.48322556771E+02  0.51213651516E+01  0.63083507901E+02  0.00000000000E+00 0. -1.
         21    1    1    2  504  505 -0.61653435301E+02  0.39610173109E+02 -0.42201015934E+02  0.84563808121E+02  0.00000000000E+00 0. -1.
         21    1    1    2  505  501 -0.36963237364E+02 -0.29893905744E+02  0.60147654601E+02  0.76665943359E+02  0.00000000000E+00 0. -1.
         -2    1    1    2    0  503  0.13884391586E+03  0.38606289407E+02  0.34478312090E+03  0.37368901377E+03  0.00000000000E+00 0.  1.
<scales pt_clust_3="66.71537" pt_clust_4="14000.00000" pt_clust_5="47.53868" pt_clust_6="98.50109"></scales>
<clustering>
<clus scale="   47.539">  1  5  2 -1</clus>
<clus scale="   66.715">  2  3  1 -1</clus>
<clus scale="   98.501">  1  6  2 -1</clus>
<clus scale="   66.715">  2  3  1 -1</clus>
</clustering>
</event>
<event>
 6    0  0.1361744E+002  0.1542638E+03  0.7546771E-02  0.1195329E+00
          1   -1    0    0  505    0 -0.00000000000E+00  0.00000000000E+00  0.94630562727E+02  0.94630562727E+02  0.00000000000E+00 0.  1.
         21   -1    0    0  504  502  0.00000000000E+00 -0.00000000000E+00 -0.57370640890E+03  0.57370640890E+03  0.00000000000E+00 0.  1.
         21    1    1    2  503  502 -0.65975016694E+02 -0.77710438860E+02 -0.39972066330E+03  0.41251451345E+03  0.00000000000E+00 0.  1.
         21    1    1    2  504  501  0.70807902982E+02  0.76863653971E+02 -0.15077928097E+02  0.10558941397E+03  0.00000000000E+00 0.  1.
         21    1    1    2  505  503 -0.40828168685E+02 -0.19885588063E+02 -0.90397833335E+02  0.10116394734E+03  0.00000000000E+00 0.  1.
          1    1    1    2  501    0  0.35995282397E+02  0.20732372952E+02  0.26120578559E+02  0.49069096866E+02  0.00000000000E+00 0.  1.
<scales pt_clust_3="153.78368" pt_clust_4="33.74802" pt_clust_5="34.79423" pt_clust_6="33.74802"></scales>
<clustering>
<clus scale="   33.748">  4  6 -1 -1</clus>
<clus scale="   34.794">  3  5 -1 -1</clus>
<clus scale="  153.784">  2  3  1 -1</clus>
<clus scale="  153.784">  2  3  1 -1</clus>
</clustering>
</event>
<event>
 6    0  0.1361744E+002  0.2630363E+03  0.7546771E-02  0.1105333E+00
          2   -1    0    0  502    0 -0.00000000000E+00  0.00000000000E+00  0.91594894393E+03  0.91594894393E+03  0.00000000000E+00 0. -1.
         21   -1    0    0  503  502  0.00000000000E+00 -0.00000000000E+00 -0.10069202573E+04  0.10069202573E+04  0.00000000000E+00 0. -1.
         21    1    1    2  503  504  0.29954773112E+03 -0.48044371122E+02 -0.72516513671E+03  0.78606716018E+03  0.00000000000E+00 0. -1.
         21    1    1    2  504  505 -0.19890574023E+03 -0.10570057949E+03 -0.18515130996E+03  0.29157694281E+03  0.00000000000E+00 0. -1.
         21    1    1    2  505  501 -0.61380513881E+02  0.13552593485E+03  0.46437438424E+03  0.48762528158E+03  0.00000000000E+00 0.  1.
          2    1    1    2  501    0 -0.39261477011E+02  0.18219015761E+02  0.35497074911E+03  0.35759981661E+03  0.00000000000E+00 0. -1.
<scales pt_clust_3="263.03628" pt_clust_4="14000.00000" pt_clust_5="178.29568" pt_clust_6="43.28275"></scales>
<clustering>
<clus scale="   43.283">  1  6  2 -1</clus>
<clus scale="  178.296">  1  5  2 -1</clus>
<clus scale="  263.036">  2  3  1 -1</clus>
<clus scale="  263.036">  2  3  1 -1</clus>
</clustering>
</event>
<event>
 6    0  0.1361744E+002  0.1046367E+03  0.7546771E-02  0.1270837E+00
         21   -1    0    0  501  502  0.00000000000E+00  0.00000000000E+00  0.17544299741E+02  0.17544299741E+02  0.00000000000E+00 0.  1.
          2   -1    0    0  503    0 -0.00000000000E+00 -0.00000000000E+00 -0.20799756807E+04  0.20799756807E+04  0.00000000000E+00 0. -1.
         21    1    1    2  503  504  0.33372940153E+02  0.23119291770E+02 -0.47280512880E+03  0.47454498691E+03  0.00000000000E+00 0.  1.
         21    1    1    2  504  505 -0.71089532244E+02  0.43548016912E+02 -0.13026009675E+03  0.15465394976E+03  0.00000000000E+00 0.  1.
         21    1    1    2  505  502 -0.12723601213E+02  0.31361711062E+02 -0.12801943284E+03  0.13241760507E+03  0.00000000000E+00 0.  1.
          2    1    1    2  501    0  0.50440193304E+02 -0.98029019744E+02 -0.13313467226E+04  0.13359034387E+04  0.00000000000E+00 0. -1.
<scales pt_clust_3="41.06093" pt_clust_4="14000.00000" pt_clust_5="33.84445" pt_clust_6="104.63668"></scales>
<clustering>
<clus scale="   33.844">  1  5  2 -1</clus>
<clus scale="   41.061">  2  3  1 -1</clus>
<clus scale="  104.637">  2  6  1 -1</clus>
<clus scale="   33.844">  1  3  2 -1</clus>
</clustering>
</event>
<event>
 6    0  0.1361744E+002  0.1782948E+03  0.7546771E-02  0.1169464E+00
         21   -1    0    0  504  502  0.00000000000E+00  0.00000000000E+00  0.10393941064E+03  0.10393941064E+03  0.00000000000E+00 0.  1.
          2   -1    0    0  503    0 -0.00000000000E+00 -0.00000000000E+00 -0.50302085681E+03  0.50302085681E+03  0.00000000000E+00 0.  1.
         21    1    1    2  503  505  0.69472917236E+02 -0.46206436461E+02 -0.68363767050E+00  0.83438530430E+02  0.00000000000E+00 0. -1.
         21    1    1    2  504  501 -0.33258611444E+02  0.81577292608E+02 -0.18912370115E+03  0.20863548174E+03  0.00000000000E+00 0.  1.
         21    1    1    2  505  502  0.45994458155E+02 -0.72142665599E+02  0.16152544641E+01  0.85572562353E+02  0.00000000000E+00 0.  1.
          2    1    1    2  501    0 -0.82208763947E+02  0.36771809453E+02 -0.21088936181E+03  0.22931369293E+03  0.00000000000E+00 0.  1.
<scales pt_clust_3="34.55848" pt_clust_4="65.97639" pt_clust_5="169.00853" pt_clust_6="65.97639"></scales>
<clustering>
<clus scale="   34.558">  3  5 -1 -1</clus>
<clus scale="   65.976">  4  6 -1 -1</clus>
<clus scale="  169.009">  1  3  2 -1</clus>
<clus scale="  169.009">  1  3  2 -1</clus>
</clustering>
</event>
<event>
 6    0  0.1361744E+002  0.9748338E+02  0.7546771E-02  0.1285679E+00
         21   -1    0    0  504  502  0.00000000000E+00  0.00000000000E+00  0.32094475885E+02  0.32094475885E+02  0.00000000000E+00 0.  1.
          1   -1    0    0  505    0 -0.00000000000E+00 -0.00000000000E+00 -0.24240427124E+04  0.24240427124E+04  0.00000000000E+00 0.  1.
         21    1    1    2  503  501 -0.36843243552E+02 -0.16239269445E+02 -0.77365160032E+03  0.77469861052E+03  0.00000000000E+00 0.  1.
         21    1    1    2  504  503  0.11037938777E+03 -0.82431194750E+02 -0.29818085090E+03  0.32846663599E+03  0.00000000000E+00 0.  1.
         21    1    1    2  505  502 -0.22775181449E+02  0.77356151308E+02 -0.86986248325E+02  0.11861403978E+03  0.00000000000E+00 0.  1.
          1    1    1    2  501    0 -0.50760962767E+02  0.21314312886E+02 -0.12331295370E+04  0.12343579020E+04  0.00000000000E+00 0.  1.
<scales pt_clust_3="32.42133" pt_clust_4="89.80938" pt_clust_5="80.63922" pt_clust_6="32.42133"></scales>
<clustering>
<clus scale="   32.421">  3  6 -1 -1</clus>
<clus scale="   80.639">  1  5  2 -1</clus>
<clus scale="   89.809">  1  4  2 -1</clus>
<clus scale="   80.639">  1  3  2 -1</clus>
</clustering>
</event>
<event>
 6    0  0.1361744E+002  0.2027165E+03  0.7546771E-02  0.1147467E+00
         21   -1    0    0  504  502  0.00000000000E+00  0.00000000000E+00  0.27458233135E+03  0.27458233135E+03  0.00000000000E+00 0. -1.
          2   -1    0    0  505    0 -0.00000000000E+00 -0.00000000000E+00 -0.79869150958E+03  0.79869150958E+03  0.00000000000E+00 0. -1.
         21    1    1    2  503  501  0.95805135761E+02  0.23633210744E+01  0.79856727032E+02  0.12474496454E+03  0.00000000000E+00 0.  1.
         21    1    1    2  504  503  0.74708615073E+02 -0.70851860274E+02  0.13175394720E+03  0.16721383278E+03  0.00000000000E+00 0. -1.
         21    1    1    2  505  502  0.13594393151E+02 -0.44230194598E+02 -0.10734924264E+03  0.11689729481E+03  0.00000000000E+00 0. -1.
          2    1    1    2  501    0 -0.18410814399E+03  0.11271873380E+03 -0.62837060983E+03  0.66441774880E+03  0.00000000000E+00 0. -1.
<scales pt_clust_3="78.71630" pt_clust_4="78.71630" pt_clust_5="46.27221" pt_clust_6="185.46896"></scales>
<clustering>
<clus scale="   46.272">  2  5  1 -1</clus>
<clus scale="   78.716">  3  4 -1 -1</clus>
<clus scale="  185.469">  2  6  1 -1</clus>
<clus scale="  202.716">  1  3  2 -1</clus>
</clustering>
</event>
<event>
 6    0  0.1361744E+002  0.9177167E+02  0.7546771E-02  0.1298617E+00
         21   -1    0    0  504  502  0.00000000000E+00  0.00000000000E+00  0.37061121206E+03  0.37061121206E+03  0.00000000000E+00 0. -1.
         -1   -1    0    0    0  501 -0.00000000000E+00 -0.00000000000E+00 -0.22453331751E+03  0.22453331751E+03  0.00000000000E+00 0. -1.
         21    1    1    2  503  501 -0.54864720234E+02  0.18066475949E+02 -0.32658649706E+02  0.66356028213E+02  0.00000000000E+00 0. -1.
         21    1    1    2  504  503  0.13744196864E+02 -0.98723776910E+02  0.28061006964E+03  0.29778733730E+03  0.00000000000E+00 0. -1.
         21    1    1    2  505  502  0.42732981138E+02  0.20028404172E+02  0.49219653056E+02  0.68189580565E+02  0.00000000000E+00 0. -1.
         -1    1    1    2    0  505 -0.16124577679E+01  0.60628896789E+02 -0.15109317845E+03  0.16281158349E+03  0.00000000000E+00 0. -1.
<scales pt_clust_3="55.93595" pt_clust_4="91.77167" pt_clust_5="47.19369" pt_clust_6="14000.00000"></scales>
<clustering>
<clus scale="   47.194">  1  5  2 -1</clus>
<clus scale="   55.936">  2  3  1 -1</clus>
<clus scale="   91.772">  1  4  2 -1</clus>
<clus scale="   47.194">  1  3  2 -1</clus>
</clustering>
</event>
<event>
 6    0  0.1361744E+002  0.1531955E+03  0.7546771E-02  0.1196600E+00
         21   -1    0    0  503  502  0.00000000000E+00  0.00000000000E+00  0.20148598064E+03  0.20148598064E+03  0.00000000000E+00 0.  1.
          1   -1    0    0  505    0 -0.00000000000E+00 -0.00000000000E+00 -0.75415006184E+03  0.75415006184E+03  0.00000000000E+00 0. -1.
         21    1    1    2  503  501  0.13108361315E+03 -0.90443302023E+02  0.12646179686E+03  0.20336049416E+03  0.00000000000E+00 0.  1.
         21    1    1    2  504  502 -0.17622979294E+02  0.10607044643E+03 -0.90496861940E+02  0.14053893064E+03  0.00000000000E+00 0.  1.
         21    1    1    2  505  504 -0.35310150478E+02 -0.16859441541E+02 -0.34632803293E+02  0.52253981282E+02  0.00000000000E+00 0.  1.
          1    1    1    2  501    0 -0.78150483383E+02  0.12322971340E+01 -0.55399621283E+03  0.55948263640E+03  0.00000000000E+00 0. -1.
<scales pt_clust_3="153.19553" pt_clust_4="105.93824" pt_clust_5="39.12860" pt_clust_6="14000.00000"></scales>
<clustering>
<clus scale="   39.129">  2  5  1 -1</clus>
<clus scale="  105.938">  2  4  1 -1</clus>
<clus scale="  153.196">  1  3  2 -1</clus>
<clus scale="  153.196">  1  3  2 -1</clus>
</clustering>
</event>
<event>
 6    0  0.1361744E+002  0.7617264E+02  0.7546771E-02  0.1340278E+00
          2   -1    0    0  504    0 -0.00000000000E+00  0.00000000000E+00  0.25915601658E+04  0.25915601658E+04  0.00000000000E+00 0. -1.
         21   -1    0    0  501  502  0.00000000000E+00 -0.00000000000E+00 -0.53136738192E+02  0.53136738192E+02  0.00000000000E+00 0. -1.
         21    1    1    2  503  505 -0.56319287072E+02  0.27401247557E+02 -0.20144793411E+02  0.65791360874E+02  0.00000000000E+00 0. -1.
         21    1    1    2  504  503 -0.55886413240E+02 -0.42716090971E+02  0.70375121187E+03  0.70725789061E+03  0.00000000000E+00 0.  1.
         21    1    1    2  505  502  0.25955600390E+02  0.19826153887E+02  0.28670680703E+02  0.43460067896E+02  0.00000000000E+00 0. -1.
          2    1    1    2  501    0  0.86250099923E+02 -0.45113104739E+01  0.18261463285E+04  0.18281875846E+04  0.00000000000E+00 0. -1.
<scales pt_clust_3="56.02076" pt_clust_4="76.17264" pt_clust_5="32.66144" pt_clust_6="14000.00000"></scales>
<clustering>
<clus scale="   32.661">  2  5  1 -1</clus>
<clus scale="   56.021">  2  3  1 -1</clus>
<clus scale="   76.173">  2  4  1 -1</clus>
<clus scale="   32.661">  2  3  1 -1</clus>
</clustering>
</event>
<event>
 6    0  0.1361744E+002  0.1166594E+03  0.7546771E-02  0.1248712E+00
         -3   -1    0    0    0  501 -0.00000000000E+00  0.00000000000E+00  0.29632137026E+03  0.29632137026E+03  0.00000000000E+00 0.  1.
         21   -1    0    0  501  502  0.00000000000E+00 -0.00000000000E+00 -0.37342938422E+03  0.37342938422E+03  0.00000000000E+00 0. -1.
         21    1    1    2  503  505  0.81412156008E+00  0.46036159957E+02  0.13045267182E+03  0.13833976436E+03  0.00000000000E+00 0.  1.
         21    1    1    2  504  502  0.56466737916E+02  0.40479515131E+01 -0.19810886267E+03  0.20603883098E+03  0.00000000000E+00 0. -1.
         21    1    1    2  505  504 -0.41794586073E+01 -0.96231502985E+02 -0.14417237897E+03  0.17338871042E+03  0.00000000000E+00 0. -1.
         -3    1    1    2    0  503 -0.53101400869E+02  0.46147391515E+02  0.13472055586E+03  0.15198344873E+03  0.00000000000E+00 0.  1.
<scales pt_clust_3="42.33890" pt_clust_4="56.61165" pt_clust_5="104.26147" pt_clust_6="42.33890"></scales>
<clustering>
<clus scale="   42.339">  3  6 -1 -1</clus>
<clus scale="   56.612">  2  4  1 -1</clus>
<clus scale="  104.261">  2  5  1 -1</clus>
<clus scale="   56.612">  2  3  1 -1</clus>
</clustering>
</event>
<event>
 6    0  0.1361744E+002  0.1348764E+03  0.7546771E-02  0.1220394E+00
         21   -1    0    0  504  502  0.00000000000E+00  0.00000000000E+00  0.17161271425E+03  0.17161271425E+03  0.00000000000E+00 0.  1.
          4   -1    0    0  503    0 -0.00000000000E+00 -0.00000000000E+00 -0.56850759319E+03  0.56850759319E+03  0.00000000000E+00 0. -1.
         21    1    1    2  503  505  0.15180055455E+03  0.65337280390E+01 -0.25208719548E+03  0.29433663056E+03  0.00000000000E+00 0. -1.
         21    1    1    2  504  501 -0.11376675181E+03  0.20204831913E+02  0.63434568014E+02  0.13181446608E+03  0.00000000000E+00 0.  1.
         21    1    1    2  505  502 -0.20314632895E+02 -0.51680293822E+02  0.37063702400E+02  0.66762677559E+02  0.00000000000E+00 0.  1.
          4    1    1    2  501    0 -0.17719169847E+02  0.24941733870E+02 -0.24530595388E+03  0.24720653324E+03  0.00000000000E+00 0. -1.
<scales pt_clust_3="134.87638" pt_clust_4="14000.00000" pt_clust_5="54.77138" pt_clust_6="30.59508"></scales>
<clustering>
<clus scale="   30.595">  2  6  1 -1</clus>
<clus scale="   54.771">  1  5  2 -1</clus>
<clus scale="  134.876">  2  3  1 -1</clus>
<clus scale="   54.771">  1  3  2 -1</clus>
</clustering>
</event>
<event>
 6    0  0.1361744E+002  0.9034465E+02  0.7546771E-02  0.1302019E+00
         21   -1    0    0  503  502  0.00000000000E+00  0.00000000000E+00  0.12431765837E+03  0.12431765837E+03  0.00000000000E+00 0.  1.
          2   -1    0    0  505    0 -0.00000000000E+00 -0.00000000000E+00 -0.27700248702E+04  0.27700248702E+04  0.00000000000E+00 0. -1.
         21    1    1    2  503  501  0.88419885976E+02  0.36799048385E+02  0.68225202183E+02  0.11758794331E+03  0.00000000000E+00 0.  1.
         21    1    1    2  504  502 -0.37724453464E+02 -0.85585053075E+02 -0.49138121166E+02  0.10565268880E+03  0.00000000000E+00 0.  1.
         21    1    1    2  505  504  0.22451526478E+02  0.24002593245E+02 -0.10242439187E+03  0.10756835768E+03  0.00000000000E+00 0. -1.
          2    1    1    2  501    0 -0.73146958990E+02  0.24783411445E+02 -0.25623699009E+04  0.25635335388E+04  0.00000000000E+00 0. -1.
<scales pt_clust_3="14000.00000" pt_clust_4="90.34465" pt_clust_5="32.86633" pt_clust_6="70.35036"></scales>
<clustering>
<clus scale="   32.866">  2  5  1 -1</clus>
<clus scale="   70.350">  2  6  1 -1</clus>
<clus scale="   90.345">  2  4  1 -1</clus>
<clus scale="   90.345">  1  3  2 -1</clus>
</clustering>
</event>
<event>
 6    0  0.1361744E+002  0.1039432E+03  0.7546771E-02  0.1272216E+00
         21   -1    0    0  503  502  0.00000000000E+00  0.00000000000E+00  0.43674822435E+02  0.43674822435E+02  0.00000000000E+00 0. -1.
          2   -1    0    0  504    0 -0.00000000000E+00 -0.00000000000E+00 -0.11479989909E+04  0.11479989909E+04  0.00000000000E+00 0. -1.
         21    1    1    2  503  505 -0.30867605185E+02 -0.98616817296E+02 -0.10802030759E+03  0.14948736587E+03  0.00000000000E+00 0. -1.
         21    1    1    2  504  502  0.35119414156E+02 -0.24172149888E+02 -0.10866573163E+02  0.43997141875E+02  0.00000000000E+00 0. -1.
         21    1    1    2  505  501 -0.51307459709E+02  0.74622109679E+02 -0.50490231377E+03  0.51295931722E+03  0.00000000000E+00 0. -1.
          2    1    1    2  501    0  0.47055650738E+02  0.48166857506E+02 -0.48053497391E+03  0.48522998834E+03  0.00000000000E+00 0. -1.
<scales pt_clust_3="103.94321" pt_clust_4="42.63410" pt_clust_5="14000.00000" pt_clust_6="68.06227"></scales>
<clustering>
<clus scale="   42.634">  1  4  2 -1</clus>
<clus scale="   68.062">  2  6  1 -1</clus>
<clus scale="  103.943">  1  3  2 -1</clus>
<clus scale="   42.634">  1  3  2 -1</clus>
</clustering>
</event>
<event>
 6    0  0.1361744E+002  0.1008340E+03  0.7546771E-02  0.1278552E+00
         21   -1    0    0  503  502  0.00000000000E+00  0.00000000000E+00  0.76738365112E+03  0.76738365112E+03  0.00000000000E+00 0. -1.
         -4   -1    0    0    0  501 -0.00000000000E+00 -0.00000000000E+00 -0.13888277848E+03  0.13888277848E+03  0.00000000000E+00 0.  1.
         21    1    1    2  503  505  0.99794227768E+02  0.73250151937E+02  0.51872796255E+03  0.53329463881E+03  0.00000000000E+00 0. -1.
         21    1    1    2  504  502 -0.43090623699E+02  0.13166677752E+02  0.20755246757E+03  0.21238688765E+03  0.00000000000E+00 0. -1.
         21    1    1    2  505  501 -0.17449154441E+02 -0.43264825974E+02  0.87202550500E-01  0.46651106756E+02  0.00000000000E+00 0.  1.
         -4    1    1    2    0  504 -0.39254449628E+02 -0.43152003715E+02 -0.97866760022E+02  0.11393379638E+03  0.00000000000E+00 0.  1.
<scales pt_clust_3="100.83405" pt_clust_4="45.05733" pt_clust_5="46.85261" pt_clust_6="14000.00000"></scales>
<clustering>
<clus scale="   45.057">  1  4  2 -1</clus>
<clus scale="   46.853">  2  5  1 -1</clus>
<clus scale="  100.834">  1  3  2 -1</clus>
<clus scale="   45.057">  1  3  2 -1</clus>
</clustering>
</event>
<event>
 6    0  0.1361744E+002  0.9170046E+02  0.7546771E-02  0.1298785E+00
         -3   -1    0    0    0  501 -0.00000000000E+00  0.00000000000E+00  0.26875373185E+03  0.26875373185E+03  0.00000000000E+00 0.  1.
         21   -1    0    0  504  502  0.00000000000E+00 -0.00000000000E+00 -0.19048347856E+03  0.19048347856E+03  0.00000000000E+00 0.  1.
         21    1    1    2  503  501 -0.39886531431E+02  0.85553993404E+02  0.44955237332E+02  0.10455330956E+03  0.00000000000E+00 0. -1.
         21    1    1    2  504  503  0.24887763853E+02  0.66490251165E+02 -0.10037110406E+03  0.12294190831E+03  0.00000000000E+00 0.  1.
         21    1    1    2  505  502  0.27189393307E+02 -0.57497853411E+02 -0.46146230931E+01  0.63769593079E+02  0.00000000000E+00 0.  1.
         -3    1    1    2    0  505 -0.12190625729E+02 -0.94546391159E+02  0.13830074310E+03  0.16797239946E+03  0.00000000000E+00 0.  1.
<scales pt_clust_3="14000.00000" pt_clust_4="51.08224" pt_clust_5="63.60241" pt_clust_6="91.70046"></scales>
<clustering>
<clus scale="   63.602">  2  5  1 -1</clus>
<clus scale="   51.082">  2  4  1 -1</clus>
<clus scale="   91.700">  1  6  2 -1</clus>
<clus scale="   63.602">  2  3  1 -1</clus>
</clustering>
</event>
<event>
 6    0  0.1361744E+002  0.4077428E+03  0.7546771E-02  0.1041131E+00
         21   -1    0    0  505  502  0.00000000000E+00  0.00000000000E+00  0.54987287623E+03  0.54987287623E+03  0.00000000000E+00 0.  1.
          1   -1    0    0  502    0 -0.00000000000E+00 -0.00000000000E+00 -0.25937799227E+04  0.25937799227E+04  0.00000000000E+00 0. -1.
         21    1    1    2  503  504  0.32146885854E+03  0.18919478994E+03  0.37595648944E+03  0.52960379295E+03  0.00000000000E+00 0.  1.
         21    1    1    2  504  501 -0.16175133185E+03 -0.10713666538E+03 -0.13857101573E+04  0.13992263572E+04  0.00000000000E+00 0. -1.
         21    1    1    2  505  503 -0.40355687362E+01  0.59215473462E+02  0.69460228224E+02  0.91364552302E+02  0.00000000000E+00 0.  1.
          1    1    1    2  501    0 -0.15568195796E+03 -0.14127359801E+03 -0.11036136067E+04  0.11234580965E+04  0.00000000000E+00 0. -1.
<scales pt_clust_3="401.89766" pt_clust_4="66.13787" pt_clust_5="59.35283" pt_clust_6="66.13787"></scales>
<clustering>
<clus scale="   59.353">  1  5  2 -1</clus>
<clus scale="   66.138">  4  6 -1 -1</clus>
<clus scale="  401.898">  1  3  2 -1</clus>
<clus scale="   59.353">  1  3  2 -1</clus>
</clustering>
</event>
<event>
 6    0  0.1361744E+002  0.1738563E+03  0.7546771E-02  0.1173885E+00
         21   -1    0    0  504  502  0.00000000000E+00  0.00000000000E+00  0.81607992936E+02  0.81607992936E+02  0.00000000000E+00 0.  1.
          2   -1    0    0  503    0 -0.00000000000E+00 -0.00000000000E+00 -0.37210675547E+03  0.37210675547E+03  0.00000000000E+00 0.  1.
         21    1    1    2  503  505  0.42190927706E+01 -0.11068209228E+03 -0.86560127081E+02  0.14057375963E+03  0.00000000000E+00 0.  1.
         21    1    1    2  504  501 -0.62938519140E+01  0.68768231860E+02 -0.98216669051E+02  0.12006330149E+03  0.00000000000E+00 0.  1.
         21    1    1    2  505  502 -0.35659176402E+02 -0.45822164411E+02 -0.12045019464E+02  0.59298651813E+02  0.00000000000E+00 0.  1.
          2    1    1    2  501    0  0.37733935546E+02  0.87736024833E+02 -0.93676946940E+02  0.13377903548E+03  0.00000000000E+00 0.  1.
<scales pt_clust_3="49.86791" pt_clust_4="39.25055" pt_clust_5="49.86791" pt_clust_6="166.17091"></scales>
<clustering>
<clus scale="   39.251">  4  6 -1 -1</clus>
<clus scale="   49.868">  3  5 -1 -1</clus>
<clus scale="  166.171">  2  4  1 -1</clus>
<clus scale="  173.856">  1  3  2 -1</clus>
</clustering>
</event>
<event>
 6    0  0.1361744E+002  0.1020221E+03  0.7546771E-02  0.1276100E+00
         21   -1    0    0  505  502  0.00000000000E+00  0.00000000000E+00  0.22298460796E+03  0.22298460796E+03  0.00000000000E+00 0. -1.
          2   -1    0    0  504    0 -0.00000000000E+00 -0.00000000000E+00 -0.29679130998E+04  0.29679130998E+04  0.00000000000E+00 0. -1.
         21    1    1    2  503  502 -0.23332158640E+02  0.74068681301E+02  0.19035127849E+03  0.20558250995E+03  0.00000000000E+00 0. -1.
         21    1    1    2  504  503 -0.25915086483E+02 -0.43467347245E+02 -0.21544829044E+03  0.22131192430E+03  0.00000000000E+00 0. -1.
         21    1    1    2  505  501 -0.36164955483E+02  0.97461215581E+01  0.47762800957E+01  0.37758492317E+02  0.00000000000E+00 0. -1.
          2    1    1    2  501    0  0.85412200605E+02 -0.40347455613E+02 -0.27246077600E+04  0.27262447812E+04  0.00000000000E+00 0. -1.
<scales pt_clust_3="14000.00000" pt_clust_4="50.75655" pt_clust_5="37.45519" pt_clust_6="102.02209"></scales>
<clustering>
<clus scale="   37.455">  1  5  2 -1</clus>
<clus scale="   50.757">  2  4  1 -1</clus>
<clus scale="  102.022">  2  6  1 -1</clus>
<clus scale="   37.455">  1  3  2 -1</clus>
</clustering>
</event>
<event>
 6    0  0.1361744E+002  0.2182668E+03  0.7546771E-02  0.1135182E+00
          2   -1    0    0  504    0 -0.00000000000E+00  0.00000000000E+00  0.37630579401E+04  0.37630579401E+04  0.00000000000E+00 0. -1.
         21   -1    0    0  505  502  0.00000000000E+00 -0.00000000000E+00 -0.46670664553E+03  0.46670664553E+03  0.00000000000E+00 0. -1.
         21    1    1    2  503  502  0.17324463328E+03 -0.16215531488E+03 -0.40985175334E+03  0.47358896611E+03  0.00000000000E+00 0. -1.
         21    1    1    2  504  503 -0.10119776847E+03  0.18452108331E+03  0.13614503949E+04  0.13776197575E+04  0.00000000000E+00 0. -1.
         21    1    1    2  505  501  0.82037696640E+01  0.39356177496E+02  0.97606179722E+01  0.41370039969E+02  0.00000000000E+00 0. -1.
          2    1    1    2  501    0 -0.80250634468E+02 -0.61721945929E+02  0.23349920351E+04  0.23371858220E+04  0.00000000000E+00 0. -1.
<scales pt_clust_3="218.26678" pt_clust_4="14000.00000" pt_clust_5="40.20212" pt_clust_6="101.16695"></scales>
<clustering>
<clus scale="   40.202">  2  5  1 -1</clus>
<clus scale="  101.167">  1  6  2 -1</clus>
<clus scale="  218.267">  2  3  1 -1</clus>
<clus scale="   40.202">  2  3  1 -1</clus>
</clustering>
</event>
<event>
 6    0  0.1361744E+002  0.1680842E+03  0.7546771E-02  0.1179861E+00
          2   -1    0    0  504    0 -0.00000000000E+00  0.00000000000E+00  0.42327521406E+04  0.42327521406E+04  0.00000000000E+00 0. -1.
         21   -1    0    0  505  502  0.00000000000E+00 -0.00000000000E+00 -0.59442448954E+02  0.59442448954E+02  0.00000000000E+00 0.  1.
         21    1    1    2  503  501  0.22759136309E+02  0.64379362367E+02  0.16149604291E+04  0.16164033742E+04  0.00000000000E+00 0.  1.
         21    1    1    2  504  502 -0.70168293305E+02 -0.88534587993E+02  0.66409081277E+01  0.11316388257E+03  0.00000000000E+00 0.  1.
         21    1    1    2  505  503 -0.27629386072E+02 -0.44103731501E+02  0.14989382827E+03  0.15867161643E+03  0.00000000000E+00 0.  1.
          2    1    1    2  501    0  0.75038543068E+02  0.68258957127E+02  0.24018145261E+04  0.24039557163E+04  0.00000000000E+00 0. -1.
<scales pt_clust_3="33.31555" pt_clust_4="163.10557" pt_clust_5="52.04346" pt_clust_6="33.31555"></scales>
<clustering>
<clus scale="   33.316">  3  6 -1 -1</clus>
<clus scale="   52.043">  2  5  1 -1</clus>
<clus scale="  163.106">  2  4  1 -1</clus>
<clus scale="   52.043">  2  3  1 -1</clus>
</clustering>
</event>
<event>
 6    0  0.1361744E+002  0.1422708E+03  0.7546771E-02  0.1210306E+00
         21   -1    0    0  504  502  0.00000000000E+00  0.00000000000E+00  0.37413151922E+03  0.37413151922E+03  0.00000000000E+00 0. -1.
          2   -1    0    0  505    0 -0.00000000000E+00 -0.00000000000E+00 -0.67797560825E+03  0.67797560825E+03  0.00000000000E+00 0. -1.
         21    1    1    2  503  502  0.21859247659E+02  0.18804536842E+03  0.21609863240E+03  0.28729341485E+03  0.00000000000E+00 0. -1.
         21    1    1    2  504  501 -0.80853594532E+02 -0.65012215995E+02  0.73366544859E+02  0.12706904376E+03  0.00000000000E+00 0. -1.
         21    1    1    2  505  503 -0.35268251717E+02  0.30595297786E+02 -0.68938469108E+02  0.83261241576E+02  0.00000000000E+00 0. -1.
          2    1    1    2  501    0  0.94262598590E+02 -0.15362845021E+03 -0.52437079718E+03  0.55448342729E+03  0.00000000000E+00 0. -1.
<scales pt_clust_3="14000.00000" pt_clust_4="104.14023" pt_clust_5="46.68963" pt_clust_6="142.27077"></scales>
<clustering>
<clus scale="   46.690">  2  5  1 -1</clus>
<clus scale="  104.140">  1  4  2 -1</clus>
<clus scale="  142.271">  2  6  1 -1</clus>
<clus scale="  104.140">  1  3  2 -1</clus>
</clustering>
</event>
<event>
 6    0  0.1361744E+002  0.1037748E+03  0.7546771E-02  0.1272553E+00
          2   -1    0    0  504    0 -0.00000000000E+00  0.00000000000E+00  0.12994910637E+04  0.12994910637E+04  0.00000000000E+00 0. -1.
         21   -1    0    0  501  502  0.00000000000E+00 -0.00000000000E+00 -0.87273374962E+02  0.87273374962E+02  0.00000000000E+00 0.  1.
         21    1    1    2  503  505 -0.66223339907E+02 -0.49922136317E+02  0.12627908664E+02  0.83888107143E+02  0.00000000000E+00 0.  1.
         21    1    1    2  504  503 -0.21843872173E+02 -0.20905854768E+02  0.12209824521E+03  0.12578629098E+03  0.00000000000E+00 0.  1.
         21    1    1    2  505  502  0.92974691995E+01 -0.38621127852E+02 -0.37109661297E+02  0.54361396337E+02  0.00000000000E+00 0.  1.
          2    1    1    2  501    0  0.78769742880E+02  0.10944911894E+03  0.11146011962E+04  0.11227286442E+04  0.00000000000E+00 0. -1.
<scales pt_clust_3="103.77476" pt_clust_4="30.23590" pt_clust_5="39.83657" pt_clust_6="14000.00000"></scales>
<clustering>
<clus scale="   30.236">  1  4  2 -1</clus>
<clus scale="   39.837">  2  5  1 -1</clus>
<clus scale="  103.775">  2  3  1 -1</clus>
<clus scale="   39.837">  2  3  1 -1</clus>
</clustering>
</event>
<event>
 6    0  0.1361744E+002  0.1044321E+03  0.7546771E-02  0.1271243E+00
         21   -1    0    0  505  502  0.00000000000E+00  0.00000000000E+00  0.13134441598E+03  0.13134441598E+03  0.00000000000E+00 0. -1.
          2   -1    0    0  504    0 -0.00000000000E+00 -0.00000000000E+00 -0.12643880518E+04  0.12643880518E+04  0.00000000000E+00 0. -1.
         21    1    1    2  503  502 -0.34608094937E+02  0.82792554321E+02  0.82651874111E+02  0.12199860483E+03  0.00000000000E+00 0. -1.
         21    1    1    2  504  503  0.70081749587E+02  0.17139821984E+02 -0.24635629483E+03  0.25670342640E+03  0.00000000000E+00 0. -1.
         21    1    1    2  505  501  0.58005437675E+02  0.19386220805E+02 -0.34979317131E+02  0.70455723571E+02  0.00000000000E+00 0. -1.
          2    1    1    2  501    0 -0.93479092325E+02 -0.11931859711E+03 -0.93435989798E+03  0.94657471299E+03  0.00000000000E+00 0. -1.
<scales pt_clust_3="104.43213" pt_clust_4="74.92324" pt_clust_5="61.15927" pt_clust_6="14000.00000"></scales>
<clustering>
<clus scale="   61.159">  1  5  2 -1</clus>
<clus scale="   74.923">  2  4  1 -1</clus>
<clus scale="  104.432">  1  3  2 -1</clus>
<clus scale="   61.159">  1  3  2 -1</clus>
</clustering>
</event>
<event>
 6    0  0.1361744E+002  0.8817849E+02  0.7546771E-02  0.1307324E+00
         21   -1    0    0  501  502  0.00000000000E+00  0.00000000000E+00  0.64706457615E+03  0.64706457615E+03  0.00000000000E+00 0. -1.
          2   -1    0    0  504    0 -0.00000000000E+00 -0.00000000000E+00 -0.26257307765E+03  0.26257307765E+03  0.00000000000E+00 0.  1.
         21    1    1    2  503  502 -0.87810389425E+02 -0.17419429889E+02  0.57279464219E+03  0.57974805144E+03  0.00000000000E+00 0. -1.
         21    1    1    2  504  505  0.33896383148E+02  0.30204540358E+01 -0.97473689893E+02  0.10324344122E+03  0.00000000000E+00 0. -1.
         21    1    1    2  505  503  0.33836226942E+02 -0.58385917774E+02  0.37908512498E+02  0.77400652244E+02  0.00000000000E+00 0. -1.
          2    1    1    2  501    0  0.20077779335E+02  0.72784893627E+02 -0.12873796629E+03  0.14924550890E+03  0.00000000000E+00 0.  1.
<scales pt_clust_3="88.17849" pt_clust_4="34.03069" pt_clust_5="69.33439" pt_clust_6="14000.00000"></scales>
<clustering>
<clus scale="   34.031">  2  4  1 -1</clus>
<clus scale="   69.334">  2  5  1 -1</clus>
<clus scale="   88.178">  1  3  2 -1</clus>
<clus scale="   88.178">  1  3  2 -1</clus>
</clustering>
</event>
<event>
 6    0  0.1361744E+002  0.8473143E+02  0.7546771E-02  0.1316136E+00
          2   -1    0    0  502    0 -0.00000000000E+00  0.00000000000E+00  0.58694687587E+03  0.58694687587E+03  0.00000000000E+00 0.  1.
         21   -1    0    0  503  502  0.00000000000E+00 -0.00000000000E+00 -0.35051543246E+03  0.35051543246E+03  0.00000000000E+00 0. -1.
         21    1    1    2  503  504 -0.85856315035E+02  0.31413433339E+02 -0.30280984079E+03  0.31630983277E+03  0.00000000000E+00 0. -1.
         21    1    1    2  504  505  0.53520264349E+02 -0.22396879875E+02 -0.41653966968E+01  0.58166910299E+02  0.00000000000E+00 0.  1.
         21    1    1    2  505  501  0.36253258852E+02 -0.58122505220E+02  0.13272715357E+03  0.14936204902E+03  0.00000000000E+00 0.  1.
          2    1    1    2  501    0 -0.39172081654E+01  0.49105951756E+02  0.41067952733E+03  0.41362351624E+03  0.00000000000E+00 0.  1.
<scales pt_clust_3="84.73143" pt_clust_4="14000.00000" pt_clust_5="37.91167" pt_clust_6="49.26194"></scales>
<clustering>
<clus scale="   49.262">  1  6  2 -1</clus>
<clus scale="   37.912">  1  5  2 -1</clus>
<clus scale="   84.731">  2  3  1 -1</clus>
<clus scale="   84.731">  2  3  1 -1</clus>
</clustering>
</event>
<event>
 6    0  0.1361744E+002  0.1139468E+03  0.7546771E-02  0.1253431E+00
         21   -1    0    0  503  502  0.00000000000E+00  0.00000000000E+00  0.17671587491E+03  0.17671587491E+03  0.00000000000E+00 0.  1.
          1   -1    0    0  505    0 -0.00000000000E+00 -0.00000000000E+00 -0.73493306883E+03  0.73493306883E+03  0.00000000000E+00 0.  1.
         21    1    1    2  503  504 -0.34681669706E+02 -0.16231546264E+02  0.47257766347E+02  0.60824154642E+02  0.00000000000E+00 0.  1.
         21    1    1    2  504  501 -0.76120838957E+02  0.52955405831E+02  0.95339524172E+02  0.13299730072E+03  0.00000000000E+00 0.  1.
         21    1    1    2  505  502  0.50803521344E+01 -0.34785506739E+02 -0.71314617429E+02  0.79508591460E+02  0.00000000000E+00 0.  1.
          1    1    1    2  501    0  0.10572215653E+03 -0.19383528285E+01 -0.62949986701E+03  0.63831889692E+03  0.00000000000E+00 0.  1.
<scales pt_clust_3="38.39794" pt_clust_4="14000.00000" pt_clust_5="35.15454" pt_clust_6="113.94680"></scales>
<clustering>
<clus scale="   35.155">  2  5  1 -1</clus>
<clus scale="   38.398">  1  3  2 -1</clus>
<clus scale="  113.947">  2  6  1 -1</clus>
<clus scale="   38.398">  1  3  2 -1</clus>
</clustering>
</event>
<event>
 6    0  0.1361744E+002  0.2507998E+03  0.7546771E-02  0.1112800E+00
         21   -1    0    0  504  502  0.00000000000E+00  0.00000000000E+00  0.64242694475E+03  0.64242694475E+03  0.00000000000E+00 0.  1.
         -4   -1    0    0    0  501 -0.00000000000E+00 -0.00000000000E+00 -0.27611089976E+03  0.27611089976E+03  0.00000000000E+00 0. -1.
         21    1    1    2  503  505  0.23663483451E+02 -0.40334430912E+02 -0.14997344299E+02  0.49109541864E+02  0.00000000000E+00 0. -1.
         21    1    1    2  504  501 -0.22903087867E+03  0.73875666976E+01  0.35097324223E+03  0.41915621943E+03  0.00000000000E+00 0.  1.
         21    1    1    2  505  502  0.12598329592E+02  0.11219380460E+03  0.16660738265E+03  0.20125652201E+03  0.00000000000E+00 0. -1.
         -4    1    1    2    0  503  0.19276906563E+03 -0.79246940382E+02 -0.13626723559E+03  0.24901556120E+03  0.00000000000E+00 0. -1.
<scales pt_clust_3="33.00419" pt_clust_4="240.92676" pt_clust_5="112.89893" pt_clust_6="33.00419"></scales>
<clustering>
<clus scale="   33.004">  3  6 -1 -1</clus>
<clus scale="  112.899">  1  5  2 -1</clus>
<clus scale="  240.927">  1  4  2 -1</clus>
<clus scale="  112.899">  1  3  2 -1</clus>
</clustering>
</event>
<event>
 6    0  0.1361744E+002  0.1750258E+03  0.7546771E-02  0.1172706E+00
         21   -1    0    0  503  502  0.00000000000E+00  0.00000000000E+00  0.27547447496E+03  0.27547447496E+03  0.00000000000E+00 0.  1.
          2   -1    0    0  504    0 -0.00000000000E+00 -0.00000000000E+00 -0.79692737681E+03  0.79692737681E+03  0.00000000000E+00 0.  1.
         21    1    1    2  503  505 -0.20725928633E+02  0.36921545934E+02  0.70601213631E+02  0.82324334421E+02  0.00000000000E+00 0.  1.
         21    1    1    2  504  502  0.13135994506E+03  0.77958429597E+02  0.15798897360E+03  0.21975774774E+03  0.00000000000E+00 0.  1.
         21    1    1    2  505  501 -0.10713527074E+03 -0.70957561330E+02 -0.48997670492E+03  0.50654724667E+03  0.00000000000E+00 0.  1.
          2    1    1    2  501    0 -0.34987456835E+01 -0.43922414200E+02 -0.26006638416E+03  0.26377252295E+03  0.00000000000E+00 0.  1.
<scales pt_clust_3="42.34105" pt_clust_4="158.88176" pt_clust_5="42.85236" pt_clust_6="42.85236"></scales>
<clustering>
<clus scale="   42.341">  1  3  2 -1</clus>
<clus scale="   42.852">  5  6 -1 -1</clus>
<clus scale="  158.882">  1  4  2 -1</clus>
<clus scale="   42.341">  1  3  2 -1</clus>
</clustering>
</event>
<event>
 6    0  0.1361744E+002  0.9871183E+02  0.7546771E-02  0.1283028E+00
          2   -1    0    0  505    0 -0.00000000000E+00  0.00000000000E+00  0.13149420854E+04  0.13149420854E+04  0.00000000000E+00 0. -1.
         21   -1    0    0  501  502  0.00000000000E+00 -0.00000000000E+00 -0.12037595504E+03  0.12037595504E+03  0.00000000000E+00 0. -1.
         21    1    1    2  503  504  0.73012769223E+02  0.40645788318E+01 -0.57742086026E+02  0.93174748560E+02  0.00000000000E+00 0. -1.
         21    1    1    2  504  502  0.11110894097E+02 -0.66032281891E+02 -0.73117955815E+01  0.67358567190E+02  0.00000000000E+00 0. -1.
         21    1    1    2  505  503  0.19176353387E+02  0.73907142778E+02  0.30069120273E+03  0.31023410142E+03  0.00000000000E+00 0. -1.
          2    1    1    2  501    0 -0.10330001671E+03 -0.11939439719E+02  0.95892880922E+03  0.96455062325E+03  0.00000000000E+00 0. -1.
<scales pt_clust_3="14000.00000" pt_clust_4="66.96054" pt_clust_5="72.85915" pt_clust_6="98.71183"></scales>
<clustering>
<clus scale="   66.961">  2  4  1 -1</clus>
<clus scale="   72.859">  1  5  2 -1</clus>
<clus scale="   98.712">  1  6  2 -1</clus>
<clus scale="   66.961">  2  3  1 -1</clus>
</clustering>
</event>
<event>
 6    0  0.1361744E+002  0.2614604E+03  0.7546771E-02  0.1106269E+00
          2   -1    0    0  505    0 -0.00000000000E+00  0.00000000000E+00  0.19997778584E+04  0.19997778584E+04  0.00000000000E+00 0. -1.
         21   -1    0    0  504  502  0.00000000000E+00 -0.00000000000E+00 -0.68696765642E+02  0.68696765642E+02  0.00000000000E+00 0. -1.
         21    1    1    2  503  501  0.13429982006E+03 -0.16979458151E+02  0.65600806954E+03  0.66982932973E+03  0.00000000000E+00 0.  1.
         21    1    1    2  504  503 -0.15635204650E+02 -0.32705091139E+02  0.49714775604E+02  0.61527567189E+02  0.00000000000E+00 0.  1.
         21    1    1    2  505  502 -0.21210611991E+03  0.11946465278E+03  0.22984803711E+03  0.33479983502E+03  0.00000000000E+00 0. -1.
          2    1    1    2  501    0  0.93441504501E+02 -0.69780103491E+02  0.99551021049E+03  0.10023178921E+04  0.00000000000E+00 0. -1.
<scales pt_clust_3="89.43335" pt_clust_4="36.25028" pt_clust_5="243.29233" pt_clust_6="89.43335"></scales>
<clustering>
<clus scale="   36.250">  2  4  1 -1</clus>
<clus scale="   89.433">  3  6 -1 -1</clus>
<clus scale="  243.292">  2  5  1 -1</clus>
<clus scale="   36.250">  2  3  1 -1</clus>
</clustering>
</event>
<event>
 6    0  0.1361744E+002  0.1009759E+03  0.7546771E-02  0.1278257E+00
          2   -1    0    0  504    0 -0.00000000000E+00  0.00000000000E+00  0.28386559937E+04  0.28386559937E+04  0.00000000000E+00 0.  1.
         21   -1    0    0  505  502  0.00000000000E+00 -0.00000000000E+00 -0.16698853966E+03  0.16698853966E+03  0.00000000000E+00 0.  1.
         21    1    1    2  503  502 -0.68313275088E+02  0.26589303438E+01 -0.30196714831E+02  0.74736972446E+02  0.00000000000E+00 0.  1.
         21    1    1    2  504  503  0.65916243370E+02  0.47564679213E+02  0.14160999438E+04  0.14184309644E+04  0.00000000000E+00 0.  1.
         21    1    1    2  505  501 -0.34912238678E+02  0.10840619356E+02 -0.10946788505E+03  0.11541057705E+03  0.00000000000E+00 0.  1.
          2    1    1    2  501    0  0.37309270396E+02 -0.61064228913E+02  0.13952321101E+04  0.13970660195E+04  0.00000000000E+00 0.  1.
<scales pt_clust_3="14000.00000" pt_clust_4="100.97592" pt_clust_5="36.55658" pt_clust_6="71.09960"></scales>
<clustering>
<clus scale="   36.557">  2  5  1 -1</clus>
<clus scale="   71.100">  1  6  2 -1</clus>
<clus scale="  100.976">  1  4  2 -1</clus>
<clus scale="   36.557">  2  3  1 -1</clus>
</clustering>
</event>
<event>
 6    0  0.1361744E+002  0.1074846E+03  0.7546771E-02  0.1265300E+00
         21   -1    0    0  501  502  0.00000000000E+00  0.00000000000E+00  0.20711400413E+02  0.20711400413E+02  0.00000000000E+00 0.  1.
          1   -1    0    0  504    0 -0.00000000000E+00 -0.00000000000E+00 -0.38045727391E+04  0.38045727391E+04  0.00000000000E+00 0.  1.
         21    1    1    2  503  505  0.22038941245E+02  0.38063062616E+02 -0.32339191219E+03  0.32636917829E+03  0.00000000000E+00 0. -1.
         21    1    1    2  504  503 -0.11457811315E+02 -0.33211565859E+02 -0.40481765760E+03  0.40633929843E+03  0.00000000000E+00 0. -1.
         21    1    1    2  505  502 -0.65174024665E+02 -0.86163343343E+02 -0.14780209329E+03  0.18307712584E+03  0.00000000000E+00 0.  1.
          1    1    1    2  501    0  0.54592894735E+02  0.81311846586E+02 -0.29078496756E+04  0.29094985369E+04  0.00000000000E+00 0.  1.
<scales pt_clust_3="40.69227" pt_clust_4="35.13246" pt_clust_5="107.48464" pt_clust_6="14000.00000"></scales>
<clustering>
<clus scale="   35.132">  2  4  1 -1</clus>
<clus scale="   40.692">  2  3  1 -1</clus>
<clus scale="  107.485">  1  5  2 -1</clus>
<clus scale="  107.485">  1  3  2 -1</clus>
</clustering>
</event>
<event>
 6    0  0.1361744E+002  0.1287826E+03  0.7546771E-02  0.1229273E+00
         21   -1    0    0  504  502  0.00000000000E+00  0.00000000000E+00  0.35925323539E+03  0.35925323539E+03  0.00000000000E+00 0. -1.
          2   -1    0    0  503    0 -0.00000000000E+00 -0.00000000000E+00 -0.49459643260E+03  0.49459643260E+03  0.00000000000E+00 0.  1.
         21    1    1    2  503  505 -0.72936030206E+02 -0.16642603921E+02 -0.11763599164E+03  0.13940899288E+03  0.00000000000E+00 0.  1.
         21    1    1    2  504  501  0.27041450281E+01  0.37577749231E+02  0.24164841228E+03  0.24456768960E+03  0.00000000000E+00 0. -1.
         21    1    1    2  505  502  0.10318460899E+03  0.55842826419E+02  0.65550411602E+02  0.13439620998E+03  0.00000000000E+00 0. -1.
          2    1    1    2  501    0 -0.32952723815E+02 -0.76777971729E+02 -0.32490602945E+03  0.33547677553E+03  0.00000000000E+00 0.  1.
<scales pt_clust_3="73.85729" pt_clust_4="37.67492" pt_clust_5="128.78262" pt_clust_6="14000.00000"></scales>
<clustering>
<clus scale="   37.675">  1  4  2 -1</clus>
<clus scale="   73.857">  2  3  1 -1</clus>
<clus scale="  128.783">  1  5  2 -1</clus>
<clus scale="   37.675">  1  3  2 -1</clus>
</clustering>
</event>
<event>
 6    0  0.1361744E+002  0.1608883E+03  0.7546771E-02  0.1187697E+00
         21   -1    0    0  505  502  0.00000000000E+00  0.00000000000E+00  0.93039799641E+02  0.93039799641E+02  0.00000000000E+00 0. -1.
          1   -1    0    0  502    0 -0.00000000000E+00 -0.00000000000E+00 -0.31178302152E+04  0.31178302152E+04  0.00000000000E+00 0.  1.
         21    1    1    2  503  504  0.49285387905E+02 -0.67448503450E+01 -0.62423089567E+02  0.79819700439E+02  0.00000000000E+00 0.  1.
         21    1    1    2  504  501  0.10335313758E+03 -0.28518931364E+02  0.40211930214E+02  0.11450851420E+03  0.00000000000E+00 0. -1.
         21    1    1    2  505  503  0.98878515714E+01  0.39982352810E+02 -0.85178335997E+02  0.94613461347E+02  0.00000000000E+00 0.  1.
          1    1    1    2  501    0 -0.16252637705E+03 -0.47185711013E+01 -0.29174009202E+04  0.29219283388E+04  0.00000000000E+00 0.  1.
<scales pt_clust_3="50.33752" pt_clust_4="160.88834" pt_clust_5="41.18687" pt_clust_6="14000.00000"></scales>
<clustering>
<clus scale="   41.187">  1  5  2 -1</clus>
<clus scale="   50.338">  1  3  2 -1</clus>
<clus scale="  160.888">  1  4  2 -1</clus>
<clus scale="   41.187">  1  3  2 -1</clus>
</clustering>
</event>
<event>
 6    0  0.1361744E+002  0.1091197E+03  0.7546771E-02  0.1262209E+00
          3   -1    0    0  505    0 -0.00000000000E+00  0.00000000000E+00  0.22015063616E+02  0.22015063616E+02  0.00000000000E+00 0.  1.
         21   -1    0    0  504  502  0.00000000000E+00 -0.00000000000E+00 -0.26204448865E+04  0.26204448865E+04  0.00000000000E+00 0. -1.
         21    1    1    2  503  502 -0.10687536999E+03 -0.27084321148E+02 -0.18983687117E+04  0.19015676876E+04  0.00000000000E+00 0. -1.
         21    1    1    2  504  501  0.75491764341E+02  0.99702965360E+02 -0.33737327530E+03  0.35980607926E+03  0.00000000000E+00 0.  1.
         21    1    1    2  505  503 -0.25228507388E+02 -0.49740615696E+02 -0.18268539915E+03  0.19100932306E+03  0.00000000000E+00 0. -1.
          3    1    1    2  501    0  0.56612113036E+02 -0.22878028516E+02 -0.18000243677E+03  0.19007686018E+03  0.00000000000E+00 0.  1.
<scales pt_clust_3="109.11967" pt_clust_4="14000.00000" pt_clust_5="55.77281" pt_clust_6="61.74272"></scales>
<clustering>
<clus scale="   55.773">  1  5  2 -1</clus>
<clus scale="   61.743">  1  6  2 -1</clus>
<clus scale="  109.120">  2  3  1 -1</clus>
<clus scale="  109.120">  2  3  1 -1</clus>
</clustering>
</event>
<event>
 6    0  0.1361744E+002  0.2292145E+03  0.7546771E-02  0.1127194E+00
         21   -1    0    0  505  502  0.00000000000E+00  0.00000000000E+00  0.24548711032E+03  0.24548711032E+03  0.00000000000E+00 0. -1.
          1   -1    0    0  504    0 -0.00000000000E+00 -0.00000000000E+00 -0.91212580424E+03  0.91212580424E+03  0.00000000000E+00 0. -1.
         21    1    1    2  503  502  0.39868822991E+02  0.54393283417E+01  0.31371760329E+01  0.40360267752E+02  0.00000000000E+00 0.  1.
         21    1    1    2  504  503  0.37681779042E+02 -0.25218248345E+02 -0.80728866225E+02  0.92590638638E+02  0.00000000000E+00 0.  1.
         21    1    1    2  505  501  0.88613755982E+01  0.22163655762E+03  0.14064773901E+03  0.26264629093E+03  0.00000000000E+00 0. -1.
          1    1    1    2  501    0 -0.86411977631E+02 -0.20185763761E+03 -0.72969474274E+03  0.76201571724E+03  0.00000000000E+00 0. -1.
<scales pt_clust_3="40.23816" pt_clust_4="46.14531" pt_clust_5="229.21450" pt_clust_6="14000.00000"></scales>
<clustering>
<clus scale="   40.238">  1  3  2 -1</clus>
<clus scale="   46.145">  2  4  1 -1</clus>
<clus scale="  229.214">  1  5  2 -1</clus>
<clus scale="   40.238">  1  3  2 -1</clus>
</clustering>
</event>
<event>
 6    0  0.1361744E+002  0.9286659E+02  0.7546771E-02  0.1296055E+00
          2   -1    0    0  505    0 -0.00000000000E+00  0.00000000000E+00  0.42416800041E+03  0.42416800041E+03  0.00000000000E+00 0.  1.
         21   -1    0    0  503  502  0.00000000000E+00 -0.00000000000E+00 -0.66682120263E+02  0.66682120263E+02  0.00000000000E+00 0. -1.
         21    1    1    2  503  501 -0.74741228644E+02  0.34834048667E+01  0.40764113941E+02  0.85206210772E+02  0.00000000000E+00 0.  1.
         21    1    1    2  504  502  0.12167802236E+03 -0.41778498631E+02  0.79758587867E+02  0.15136847892E+03  0.00000000000E+00 0. -1.
         21    1    1    2  505  504  0.67152647498E+01  0.34687445398E+02  0.63486033839E+02  0.72655282956E+02  0.00000000000E+00 0.  1.
          2    1    1    2  501    0 -0.53652058463E+02  0.36076483666E+01  0.17347714450E+03  0.18162014803E+03  0.00000000000E+00 0.  1.
<scales pt_clust_3="92.86659" pt_clust_4="14000.00000" pt_clust_5="35.33148" pt_clust_6="54.47384"></scales>
<clustering>
<clus scale="   35.331">  1  5  2 -1</clus>
<clus scale="   54.474">  1  6  2 -1</clus>
<clus scale="   92.867">  2  3  1 -1</clus>
<clus scale="   92.867">  2  3  1 -1</clus>
</clustering>
</event>
<event>
 6    0  0.1361744E+002  0.1148631E+03  0.7546771E-02  0.1251820E+00
          1   -1    0    0  503    0 -0.00000000000E+00  0.00000000000E+00  0.13828223548E+04  0.13828223548E+04  0.00000000000E+00 0.  1.
         21   -1    0    0  504  502  0.00000000000E+00 -0.00000000000E+00 -0.10931496050E+03  0.10931496050E+03  0.00000000000E+00 0. -1.
         21    1    1    2  503  505  0.13530925677E+03  0.18727419315E+02  0.55013449658E+03  0.56683972649E+03  0.00000000000E+00 0.  1.
         21    1    1    2  504  501  0.60816548389E+01  0.63390386082E+02 -0.29074747035E+02  0.70004774754E+02  0.00000000000E+00 0. -1.
         21    1    1    2  505  502 -0.68223407543E+02  0.76115441310E+01 -0.22117917815E+02  0.72121919202E+02  0.00000000000E+00 0. -1.
          1    1    1    2  501    0 -0.73167504065E+02 -0.89729349528E+02  0.77456556252E+03  0.78317089480E+03  0.00000000000E+00 0.  1.
<scales pt_clust_3="114.86310" pt_clust_4="63.68145" pt_clust_5="85.66727" pt_clust_6="14000.00000"></scales>
<clustering>
<clus scale="   63.681">  2  4  1 -1</clus>
<clus scale="   85.667">  2  5  1 -1</clus>
<clus scale="  114.863">  2  3  1 -1</clus>
<clus scale="   63.681">  2  3  1 -1</clus>
</clustering>
</event>
<event>
 6    0  0.1361744E+002  0.1943341E+03  0.7546771E-02  0.1154609E+00
          2   -1    0    0  504    0 -0.00000000000E+00  0.00000000000E+00  0.26379908361E+04  0.26379908361E+04  0.00000000000E+00 0. -1.
         21   -1    0    0  501  502  0.00000000000E+00 -0.00000000000E+00 -0.92007834544E+02  0.92007834544E+02  0.00000000000E+00 0.  1.
         21    1    1    2  503  502  0.17130488013E+02  0.80340853285E+02  0.29935184384E+02  0.87431239213E+02  0.00000000000E+00 0.  1.
         21    1    1    2  504  505  0.34943777106E+02 -0.18247822896E+02  0.17942065787E+03  0.18370036219E+03  0.00000000000E+00 0.  1.
         21    1    1    2  505  503  0.35161049442E+02  0.10266343922E+03 -0.61428028542E+01  0.10869137582E+03  0.00000000000E+00 0.  1.
          2    1    1    2  501    0 -0.87235314560E+02 -0.16475646961E+03  0.23427699621E+04  0.23501756934E+04  0.00000000000E+00 0. -1.
<scales pt_clust_3="35.58744" pt_clust_4="39.42145" pt_clust_5="35.58744" pt_clust_6="189.98082"></scales>
<clustering>
<clus scale="   35.587">  3  5 -1 -1</clus>
<clus scale="   39.421">  1  4  2 -1</clus>
<clus scale="  189.981">  1  6  2 -1</clus>
<clus scale="  194.334">  2  3  1 -1</clus>
</clustering>
</event>
<event>
 6    0  0.1361744E+002  0.9635300E+02  0.7546771E-02  0.1288158E+00
          2   -1    0    0  504    0 -0.00000000000E+00  0.00000000000E+00  0.30128895859E+04  0.30128895859E+04  0.00000000000E+00 0. -1.
         21   -1    0    0  501  502  0.00000000000E+00 -0.00000000000E+00 -0.20920142455E+02  0.20920142455E+02  0.00000000000E+00 0. -1.
         21    1    1    2  503  502  0.11218401703E+02 -0.41986620761E+02  0.39965088067E+02  0.59041825208E+02  0.00000000000E+00 0. -1.
         21    1    1    2  504  505  0.75584470434E+02  0.55510475964E+02  0.18145146514E+04  0.18169363900E+04  0.00000000000E+00 0. -1.
         21    1    1    2  505  503 -0.56182471352E+02 -0.51830216502E+02  0.14312162025E+03  0.16225486006E+03  0.00000000000E+00 0. -1.
          2    1    1    2  501    0 -0.30620400785E+02  0.38306361300E+02  0.99436808378E+03  0.99557665315E+03  0.00000000000E+00 0. -1.
<scales pt_clust_3="43.45951" pt_clust_4="14000.00000" pt_clust_5="96.35300" pt_clust_6="46.93668"></scales>
<clustering>
<clus scale="   43.460">  2  3  1 -1</clus>
<clus scale="   46.937">  1  6  2 -1</clus>
<clus scale="   96.353">  2  5  1 -1</clus>
<clus scale="   43.460">  2  3  1 -1</clus>
</clustering>
</event>
<event>
 6    0  0.1361744E+002  0.1325387E+03  0.7546771E-02  0.1223737E+00
         21   -1    0    0  505  502  0.00000000000E+00  0.00000000000E+00  0.95529552137E+03  0.95529552137E+03  0.00000000000E+00 0. -1.
         -1   -1    0    0    0  501 -0.00000000000E+00 -0.00000000000E+00 -0.22954931737E+03  0.22954931737E+03  0.00000000000E+00 0. -1.
         21    1    1    2  503  502  0.50809518200E+02  0.90626717013E+02  0.83664446804E+03  0.84307103786E+03  0.00000000000E+00 0. -1.
         21    1    1    2  504  503 -0.16310665623E+02 -0.73012914726E+02 -0.83144862269E+02  0.11184807397E+03  0.00000000000E+00 0. -1.
         21    1    1    2  505  501 -0.17399602651E+02  0.32189993189E+02  0.92052397659E+02  0.99058496600E+02  0.00000000000E+00 0. -1.
         -1    1    1    2    0  504 -0.17099249925E+02 -0.49803795476E+02 -0.11980579943E+03  0.13086723031E+03  0.00000000000E+00 0. -1.
<scales pt_clust_3="126.66852" pt_clust_4="32.72577" pt_clust_5="36.59155" pt_clust_6="32.72577"></scales>
<clustering>
<clus scale="   32.726">  4  6 -1 -1</clus>
<clus scale="   36.592">  1  5  2 -1</clus>
<clus scale="  126.669">  1  3  2 -1</clus>
<clus scale="   36.592">  1  3  2 -1</clus>
</clustering>
</event>
<event>
 6    0  0.1361744E+002  0.8702073E+02  0.7546771E-02  0.1310231E+00
         -3   -1    0    0    0  501 -0.00000000000E+00  0.00000000000E+00  0.85173353655E+03  0.85173353655E+03  0.00000000000E+00 0.  1.
         21   -1    0    0  505  502  0.00000000000E+00 -0.00000000000E+00 -0.25780589696E+03  0.25780589696E+03  0.00000000000E+00 0. -1.
         21    1    1    2  503  504  0.44780114469E+01  0.83713778138E+02 -0.77151357252E+02  0.11393147573E+03  0.00000000000E+00 0. -1.
         21    1    1    2  504  502  0.53221659266E+02 -0.16705050379E+02 -0.15243023611E+03  0.16231629802E+03  0.00000000000E+00 0. -1.
         21    1    1    2  505  501 -0.32792923022E+02  0.15159113202E+02  0.14789484082E+03  0.15224341842E+03  0.00000000000E+00 0.  1.
         -3    1    1    2    0  503 -0.24906747691E+02 -0.82167840961E+02  0.67561439213E+03  0.68104824133E+03  0.00000000000E+00 0.  1.
<scales pt_clust_3="87.02073" pt_clust_4="55.52936" pt_clust_5="36.12720" pt_clust_6="14000.00000"></scales>
<clustering>
<clus scale="   36.127">  1  5  2 -1</clus>
<clus scale="   55.529">  2  4  1 -1</clus>
<clus scale="   87.021">  2  3  1 -1</clus>
<clus scale="   55.529">  2  3  1 -1</clus>
</clustering>
</event>
<event>
 6    0  0.1361744E+002  0.6326830E+02  0.7546771E-02  0.1384606E+00
         21   -1    0    0  504  502  0.00000000000E+00  0.00000000000E+00  0.86149184427E+03  0.86149184427E+03  0.00000000000E+00 0.  1.
          1   -1    0    0  505    0 -0.00000000000E+00 -0.00000000000E+00 -0.37517259733E+03  0.37517259733E+03  0.00000000000E+00 0. -1.
         21    1    1    2  503  501 -0.37205012055E+02  0.65135858811E+02 -0.25312463748E+03  0.26400563464E+03  0.00000000000E+00 0. -1.
         21    1    1    2  504  503  0.58652325716E+02 -0.55544627643E+02  0.36031383890E+03  0.36925785500E+03  0.00000000000E+00 0.  1.
         21    1    1    2  505  502 -0.59951689907E+02 -0.78522348376E+01  0.48602386280E+03  0.48977041349E+03  0.00000000000E+00 0.  1.
          1    1    1    2  501    0  0.38504376246E+02 -0.17389963297E+01 -0.10689381729E+03  0.11363053847E+03  0.00000000000E+00 0. -1.
<scales pt_clust_3="63.26830" pt_clust_4="14000.00000" pt_clust_5="60.19537" pt_clust_6="38.54363"></scales>
<clustering>
<clus scale="   38.544">  2  6  1 -1</clus>
<clus scale="   60.195">  1  5  2 -1</clus>
<clus scale="   63.268">  2  3  1 -1</clus>
<clus scale="   60.195">  1  3  2 -1</clus>
</clustering>
</event>
<event>
 6    0  0.1361744E+002  0.9790830E+02  0.7546771E-02  0.1284757E+00
          2   -1    0    0  504    0 -0.00000000000E+00  0.00000000000E+00  0.18553734781E+04  0.18553734781E+04  0.00000000000E+00 0.  1.
         21   -1    0    0  503  502  0.00000000000E+00 -0.00000000000E+00 -0.10345176800E+04  0.10345176800E+04  0.00000000000E+00 0.  1.
         21    1    1    2  503  501  0.43653740442E+02 -0.12362771430E+02 -0.97713131765E+03  0.97818408242E+03  0.00000000000E+00 0.  1.
         21    1    1    2  504  505 -0.12032419637E+03  0.15791138657E+02  0.12578082448E+04  0.12636490228E+04  0.00000000000E+00 0.  1.
         21    1    1    2  505  502  0.53802047318E+01  0.30469014106E+02 -0.46631208424E+02  0.55962282143E+02  0.00000000000E+00 0.  1.
          2    1    1    2  501    0  0.71290251198E+02 -0.33897381333E+02  0.58681007944E+03  0.59209577073E+03  0.00000000000E+00 0.  1.
<scales pt_clust_3="52.18205" pt_clust_4="14000.00000" pt_clust_5="30.94038" pt_clust_6="97.90830"></scales>
<clustering>
<clus scale="   30.940">  2  5  1 -1</clus>
<clus scale="   52.182">  2  3  1 -1</clus>
<clus scale="   97.908">  1  6  2 -1</clus>
<clus scale="   30.940">  2  3  1 -1</clus>
</clustering>
</event>
<event>
 6    0  0.1361744E+002  0.1403682E+03  0.7546771E-02  0.1212834E+00
         21   -1    0    0  505  502  0.00000000000E+00  0.00000000000E+00  0.73857364280E+03  0.73857364280E+03  0.00000000000E+00 0.  1.
          2   -1    0    0  503    0 -0.00000000000E+00 -0.00000000000E+00 -0.84037968050E+03  0.84037968050E+03  0.00000000000E+00 0. -1.
         21    1    1    2  503  504  0.38036101478E+02 -0.46188887472E+02 -0.12615623833E+03  0.13962648320E+03  0.00000000000E+00 0. -1.
         21    1    1    2  504  502 -0.37876565867E+02  0.75081163163E+01  0.10386288993E+02  0.39986010698E+02  0.00000000000E+00 0.  1.
         21    1    1    2  505  501  0.20277072378E+02  0.13350794223E+03  0.69674132357E+03  0.70970698339E+03  0.00000000000E+00 0.  1.
          2    1    1    2  501    0 -0.20436607989E+02 -0.94827171079E+02 -0.68277741193E+03  0.68963384601E+03  0.00000000000E+00 0. -1.
<scales pt_clust_3="59.55283" pt_clust_4="38.61355" pt_clust_5="14000.00000" pt_clust_6="140.36818"></scales>
<clustering>
<clus scale="   38.614">  1  4  2 -1</clus>
<clus scale="   59.553">  2  3  1 -1</clus>
<clus scale="  140.368">  2  6  1 -1</clus>
<clus scale="   38.614">  1  3  2 -1</clus>
</clustering>
</event>
<event>
 6    0  0.1361744E+002  0.1398688E+03  0.7546771E-02  0.1213506E+00
         21   -1    0    0  505  502  0.00000000000E+00  0.00000000000E+00  0.10867048853E+03  0.10867048853E+03  0.00000000000E+00 0. -1.
          1   -1    0    0  504    0 -0.00000000000E+00 -0.00000000000E+00 -0.51422505952E+03  0.51422505952E+03  0.00000000000E+00 0. -1.
         21    1    1    2  503  502  0.43222771395E+02  0.12649492311E+02  0.17805914941E+02  0.48427969498E+02  0.00000000000E+00 0. -1.
         21    1    1    2  504  503  0.87451303907E+02 -0.50294483251E+02  0.70459013896E+01  0.10112818760E+03  0.00000000000E+00 0. -1.
         21    1    1    2  505  501 -0.33351195172E+01  0.38955704082E+02 -0.20580133077E+02  0.44183840714E+02  0.00000000000E+00 0. -1.
          1    1    1    2  501    0 -0.12733895578E+03 -0.13107131427E+01 -0.40982625425E+03  0.42915555024E+03  0.00000000000E+00 0. -1.
<scales pt_clust_3="38.12863" pt_clust_4="38.12863" pt_clust_5="39.09821" pt_clust_6="127.69769"></scales>
<clustering>
<clus scale="   38.129">  3  4 -1 -1</clus>
<clus scale="   39.098">  1  5  2 -1</clus>
<clus scale="  127.698">  2  6  1 -1</clus>
<clus scale="   39.098">  1  3  2 -1</clus>
</clustering>
</event>
<event>
 6    0  0.1361744E+002  0.2402124E+03  0.7546771E-02  0.1119651E+00
          2   -1    0    0  503    0 -0.00000000000E+00  0.00000000000E+00  0.10563761592E+04  0.10563761592E+04  0.00000000000E+00 0.  1.
         21   -1    0    0  504  502  0.00000000000E+00 -0.00000000000E+00 -0.99667663036E+02  0.99667663036E+02  0.00000000000E+00 0.  1.
         21    1    1    2  503  505  0.20595650493E+03 -0.12683326744E+03  0.13223979425E+03  0.27566668793E+03  0.00000000000E+00 0.  1.
         21    1    1    2  504  501 -0.11919237422E+03  0.90379405999E+02  0.40639490160E+03  0.43304973749E+03  0.00000000000E+00 0.  1.
         21    1    1    2  505  502 -0.38641581166E+02 -0.32206237478E+02  0.54314835709E+02  0.74030499834E+02  0.00000000000E+00 0.  1.
          2    1    1    2  501    0 -0.48122549547E+02  0.68660098917E+02  0.36375896458E+03  0.37329689695E+03  0.00000000000E+00 0.  1.
<scales pt_clust_3="232.23244" pt_clust_4="45.96966" pt_clust_5="50.30322" pt_clust_6="45.96966"></scales>
<clustering>
<clus scale="   45.970">  4  6 -1 -1</clus>
<clus scale="   50.303">  2  5  1 -1</clus>
<clus scale="  232.232">  2  3  1 -1</clus>
<clus scale="   50.303">  2  3  1 -1</clus>
</clustering>
</event>
<event>
 6    0  0.1361744E+002  0.8588485E+02  0.7546771E-02  0.1313135E+00
         21   -1    0    0  505  502  0.00000000000E+00  0.00000000000E+00  0.16151246042E+03  0.16151246042E+03  0.00000000000E+00 0. -1.
          4   -1    0    0  503    0 -0.00000000000E+00 -0.00000000000E+00 -0.69100304232E+03  0.69100304232E+03  0.00000000000E+00 0.  1.
         21    1    1    2  503  502  0.42874543243E+02  0.45277319483E+02  0.12980996027E+03  0.14401002709E+03  0.00000000000E+00 0. -1.
         21    1    1    2  504  501  0.40651627308E+02  0.51811081484E+02 -0.98518904669E+02  0.11850281661E+03  0.00000000000E+00 0.  1.
         21    1    1    2  505  504 -0.11442783820E+02 -0.35840233513E+02 -0.23282894421E+02  0.44244240443E+02  0.00000000000E+00 0.  1.
          4    1    1    2  501    0 -0.72083386732E+02 -0.61248167455E+02 -0.53749874308E+03  0.54575841860E+03  0.00000000000E+00 0.  1.
<scales pt_clust_3="34.92704" pt_clust_4="85.88485" pt_clust_5="37.62259" pt_clust_6="14000.00000"></scales>
<clustering>
<clus scale="   37.623">  1  5  2 -1</clus>
<clus scale="   34.927">  1  3  2 -1</clus>
<clus scale="   85.885">  1  4  2 -1</clus>
<clus scale="   37.623">  1  3  2 -1</clus>
</clustering>
</event>
<event>
 6    0  0.1361744E+002  0.4997818E+03  0.7546771E-02  0.1013836E+00
         21   -1    0    0  504  502  0.00000000000E+00  0.00000000000E+00  0.46331425551E+03  0.46331425551E+03  0.00000000000E+00 0.  1.
          1   -1    0    0  505    0 -0.00000000000E+00 -0.00000000000E+00 -0.10051137835E+04  0.10051137835E+04  0.00000000000E+00 0.  1.
         21    1    1    2  503  502  0.40948770570E+02 -0.77706246236E+02  0.73866105159E+02  0.11476612744E+03  0.00000000000E+00 0.  1.
         21    1    1    2  504  501 -0.19541485611E+02  0.73661281608E+02  0.33365334365E+02  0.83193146384E+02  0.00000000000E+00 0.  1.
         21    1    1    2  505  503  0.10875465265E+03 -0.48137766093E+03 -0.61522270299E+02  0.49732988716E+03  0.00000000000E+00 0.  1.
          1    1    1    2  501    0 -0.13016193761E+03  0.48542262556E+03 -0.58750869720E+03  0.77313887801E+03  0.00000000000E+00 0.  1.
<scales pt_clust_3="70.65106" pt_clust_4="76.20928" pt_clust_5="499.78185" pt_clust_6="14000.00000"></scales>
<clustering>
<clus scale="   76.209">  1  4  2 -1</clus>
<clus scale="   70.651">  1  3  2 -1</clus>
<clus scale="  499.782">  1  5  2 -1</clus>
<clus scale="   76.209">  1  3  2 -1</clus>
</clustering>
</event>
<event>
 6    0  0.1361744E+002  0.1130176E+03  0.7546771E-02  0.1255082E+00
          2   -1    0    0  504    0 -0.00000000000E+00  0.00000000000E+00  0.12167469199E+04  0.12167469199E+04  0.00000000000E+00 0. -1.
         21   -1    0    0  501  502  0.00000000000E+00 -0.00000000000E+00 -0.44942991787E+02  0.44942991787E+02  0.00000000000E+00 0. -1.
         21    1    1    2  503  502 -0.55234489561E+02 -0.38093014627E+02  0.26200379825E+02  0.72030455388E+02  0.00000000000E+00 0. -1.
         21    1    1    2  504  505  0.26867740786E+02  0.25728147691E+02  0.15124696137E+03  0.15575447474E+03  0.00000000000E+00 0. -1.
         21    1    1    2  505  503  0.10400714822E+03  0.52758168686E+02  0.17640074555E+03  0.21146662686E+03  0.00000000000E+00 0.  1.
          2    1    1    2  501    0 -0.75640399443E+02 -0.40393301749E+02  0.81795584132E+03  0.82243835465E+03  0.00000000000E+00 0. -1.
<scales pt_clust_3="67.09640" pt_clust_4="36.64522" pt_clust_5="36.64522" pt_clust_6="92.53642"></scales>
<clustering>
<clus scale="   36.645">  4  5 -1 -1</clus>
<clus scale="   67.096">  2  3  1 -1</clus>
<clus scale="   92.536">  1  6  2 -1</clus>
<clus scale="   67.096">  2  3  1 -1</clus>
</clustering>
</event>
<event>
 6    0  0.1361744E+002  0.1572915E+03  0.7546771E-02  0.1191789E+00
         -4   -1    0    0    0  501 -0.00000000000E+00  0.00000000000E+00  0.41187188549E+02  0.41187188549E+02  0.00000000000E+00 0. -1.
         21   -1    0    0  503  502  0.00000000000E+00 -0.00000000000E+00 -0.11056321717E+04  0.11056321717E+04  0.00000000000E+00 0.  1.
         21    1    1    2  503  505  0.66317328447E+02 -0.41052207216E+02 -0.55330976034E+03  0.55877988749E+03  0.00000000000E+00 0.  1.
         21    1    1    2  504  501 -0.57686535342E+02 -0.22947982239E+01 -0.81268177227E+02  0.99687105929E+02  0.00000000000E+00 0. -1.
         21    1    1    2  505  504  0.52938694504E+02 -0.61167123759E+02 -0.29970592298E+03  0.31043125273E+03  0.00000000000E+00 0.  1.
         -4    1    1    2    0  502 -0.61569487609E+02  0.10451412920E+03 -0.13016112262E+03  0.17792111411E+03  0.00000000000E+00 0. -1.
<scales pt_clust_3="55.73155" pt_clust_4="57.73216" pt_clust_5="55.73155" pt_clust_6="146.69405"></scales>
<clustering>
<clus scale="   55.732">  3  5 -1 -1</clus>
<clus scale="   57.732">  1  4  2 -1</clus>
<clus scale="  146.694">  1  6  2 -1</clus>
<clus scale="  157.291">  2  3  1 -1</clus>
</clustering>
</event>
<event>
 6    0  0.1361744E+002  0.8848805E+02  0.7546771E-02  0.1306555E+00
          2   -1    0    0  504    0 -0.00000000000E+00  0.00000000000E+00  0.14969352591E+04  0.14969352591E+04  0.00000000000E+00 0.  1.
         21   -1    0    0  503  502  0.00000000000E+00 -0.00000000000E+00 -0.38523673164E+03  0.38523673164E+03  0.00000000000E+00 0. -1.
         21    1    1    2  503  501 -0.76200776779E+02  0.44880898978E+02 -0.36480879539E+03  0.37537489350E+03  0.00000000000E+00 0. -1.
         21    1    1    2  504  505 -0.21365468495E+02  0.30320987316E+02  0.69564696642E+02  0.78835858178E+02  0.00000000000E+00 0.  1.
         21    1    1    2  505  502 -0.53476981468E+01 -0.49305674529E+02  0.64657811829E+02  0.81487913501E+02  0.00000000000E+00 0.  1.
          2    1    1    2  501    0  0.10291394342E+03 -0.25896211765E+02  0.13422848143E+04  0.13464733255E+04  0.00000000000E+00 0.  1.
<scales pt_clust_3="88.48805" pt_clust_4="37.09239" pt_clust_5="48.18137" pt_clust_6="14000.00000"></scales>
<clustering>
<clus scale="   37.092">  1  4  2 -1</clus>
<clus scale="   48.181">  1  5  2 -1</clus>
<clus scale="   88.488">  2  3  1 -1</clus>
<clus scale="   88.488">  2  3  1 -1</clus>
</clustering>
</event>
<event>
 6    0  0.1361744E+002  0.9982826E+02  0.7546771E-02  0.1280658E+00
         -1   -1    0    0    0  501 -0.00000000000E+00  0.00000000000E+00  0.12985530849E+03  0.12985530849E+03  0.00000000000E+00 0. -1.
         21   -1    0    0  501  502  0.00000000000E+00 -0.00000000000E+00 -0.19218413784E+03  0.19218413784E+03  0.00000000000E+00 0.  1.
         21    1    1    2  503  505 -0.56136539217E+02 -0.50696746290E+01 -0.57787374115E+02  0.80724180041E+02  0.00000000000E+00 0.  1.
         21    1    1    2  504  503  0.98306548455E+02  0.29083806164E+02  0.38904922607E+02  0.10965235179E+03  0.00000000000E+00 0.  1.
         21    1    1    2  505  502 -0.31105150927E+02  0.29329856373E+02 -0.60942445595E+02  0.74442948385E+02  0.00000000000E+00 0.  1.
         -1    1    1    2    0  504 -0.11064858310E+02 -0.53343987909E+02  0.17496067760E+02  0.57219966117E+02  0.00000000000E+00 0. -1.
<scales pt_clust_3="36.74805" pt_clust_4="90.47255" pt_clust_5="36.74805" pt_clust_6="54.47947"></scales>
<clustering>
<clus scale="   36.748">  3  5 -1 -1</clus>
<clus scale="   54.479">  1  6  2 -1</clus>
<clus scale="   90.473">  1  4  2 -1</clus>
<clus scale="   99.828">  2  3  1 -1</clus>
</clustering>
</event>
<event>
 6    0  0.1361744E+002  0.1021210E+03  0.7546771E-02  0.1275898E+00
         -1   -1    0    0    0  501 -0.00000000000E+00  0.00000000000E+00  0.52791801266E+03  0.52791801266E+03  0.00000000000E+00 0. -1.
         21   -1    0    0  505  502  0.00000000000E+00 -0.00000000000E+00 -0.15681524880E+03  0.15681524880E+03  0.00000000000E+00 0. -1.
         21    1    1    2  503  502  0.33980919594E+02 -0.18313898606E+02 -0.58053315493E+02  0.69715774530E+02  0.00000000000E+00 0. -1.
         21    1    1    2  504  503  0.20885858433E+02  0.99530839104E+02 -0.25133830228E+02  0.10475837168E+03  0.00000000000E+00 0. -1.
         21    1    1    2  505  501  0.74371485261E+02 -0.10780083327E+02  0.23018847767E+03  0.24214471555E+03  0.00000000000E+00 0. -1.
         -1    1    1    2    0  504 -0.12923826329E+03 -0.70436857171E+02  0.22410143190E+03  0.26811439970E+03  0.00000000000E+00 0. -1.
<scales pt_clust_3="38.60184" pt_clust_4="14000.00000" pt_clust_5="77.48574" pt_clust_6="102.12100"></scales>
<clustering>
<clus scale="   38.602">  2  3  1 -1</clus>
<clus scale="   77.486">  1  5  2 -1</clus>
<clus scale="  102.121">  1  6  2 -1</clus>
<clus scale="   38.602">  2  3  1 -1</clus>
</clustering>
</event>
<event>
 6    0  0.1361744E+002  0.1431438E+03  0.7546771E-02  0.1209160E+00
         21   -1    0    0  501  502  0.00000000000E+00  0.00000000000E+00  0.22053551642E+03  0.22053551642E+03  0.00000000000E+00 0.  1.
          1   -1    0    0  505    0 -0.00000000000E+00 -0.00000000000E+00 -0.30654642817E+03  0.30654642817E+03  0.00000000000E+00 0.  1.
         21    1    1    2  503  502 -0.44630529394E+01 -0.62335252807E+02  0.97805556085E+02  0.11606691770E+03  0.00000000000E+00 0. -1.
         21    1    1    2  504  503  0.20267969349E+01 -0.79468564961E+02  0.66329015888E+02  0.10353211614E+03  0.00000000000E+00 0.  1.
         21    1    1    2  505  504 -0.28124710124E+02  0.29244064735E+02 -0.12002337550E+02  0.42311591184E+02  0.00000000000E+00 0.  1.
          1    1    1    2  501    0  0.30560966129E+02  0.11255975303E+03 -0.23814314618E+03  0.26517131957E+03  0.00000000000E+00 0.  1.
<scales pt_clust_3="30.31939" pt_clust_4="30.31939" pt_clust_5="40.57357" pt_clust_6="138.99940"></scales>
<clustering>
<clus scale="   30.319">  3  4 -1 -1</clus>
<clus scale="   40.574">  2  5  1 -1</clus>
<clus scale="  138.999">  2  6  1 -1</clus>
<clus scale="  143.144">  1  3  2 -1</clus>
</clustering>
</event>
<event>
 6    0  0.1361744E+002  0.1209226E+03  0.7546771E-02  0.1241583E+00
          2   -1    0    0  504    0 -0.00000000000E+00  0.00000000000E+00  0.83839009262E+03  0.83839009262E+03  0.00000000000E+00 0. -1.
         21   -1    0    0  505  502  0.00000000000E+00 -0.00000000000E+00 -0.58793611474E+02  0.58793611474E+02  0.00000000000E+00 0. -1.
         21    1    1    2  503  501  0.24741067731E+02  0.60018481902E+02  0.33634017332E+03  0.34254788102E+03  0.00000000000E+00 0. -1.
         21    1    1    2  504  502  0.20884301182E+01 -0.43983046574E+02  0.43446020577E+02  0.61858116931E+02  0.00000000000E+00 0. -1.
         21    1    1    2  505  503 -0.81394054455E+02 -0.33710709075E+02 -0.77989248112E+00  0.88102282826E+02  0.00000000000E+00 0. -1.
          2    1    1    2  501    0  0.54564556605E+02  0.17675273746E+02  0.40059017973E+03  0.40467542331E+03  0.00000000000E+00 0. -1.
<scales pt_clust_3="51.85952" pt_clust_4="44.03260" pt_clust_5="108.03542" pt_clust_6="51.85952"></scales>
<clustering>
<clus scale="   44.033">  2  4  1 -1</clus>
<clus scale="   51.860">  3  6 -1 -1</clus>
<clus scale="  108.035">  2  5  1 -1</clus>
<clus scale="   44.033">  2  3  1 -1</clus>
</clustering>
</event>
<event>
 6    0  0.1361744E+002  0.7938344E+02  0.7546771E-02  0.1330810E+00
         21   -1    0    0  505  502  0.00000000000E+00  0.00000000000E+00  0.60537180967E+02  0.60537180967E+02  0.00000000000E+00 0. -1.
          2   -1    0    0  503    0 -0.00000000000E+00 -0.00000000000E+00 -0.84066488599E+03  0.84066488599E+03  0.00000000000E+00 0. -1.
         21    1    1    2  503  504  0.79636176145E+02  0.24303692159E+02 -0.24599701162E+03  0.25970583307E+03  0.00000000000E+00 0.  1.
         21    1    1    2  504  502  0.44542209223E+01 -0.48824692513E+02  0.21500992733E+02  0.53534879952E+02  0.00000000000E+00 0. -1.
         21    1    1    2  505  501 -0.16938766069E+02 -0.42755710796E+02 -0.32622601970E+02  0.56384454958E+02  0.00000000000E+00 0.  1.
          2    1    1    2  501    0 -0.67151630998E+02  0.67276711149E+02 -0.52300908417E+03  0.53157689898E+03  0.00000000000E+00 0. -1.
<scales pt_clust_3="79.38344" pt_clust_4="14000.00000" pt_clust_5="45.98883" pt_clust_6="79.20721"></scales>
<clustering>
<clus scale="   45.989">  1  5  2 -1</clus>
<clus scale="   79.383">  2  3  1 -1</clus>
<clus scale="   79.207">  2  6  1 -1</clus>
<clus scale="   45.989">  1  3  2 -1</clus>
</clustering>
</event>
<event>
 6    0  0.1361744E+002  0.8292353E+02  0.7546771E-02  0.1320954E+00
          2   -1    0    0  504    0 -0.00000000000E+00  0.00000000000E+00  0.29554377843E+04  0.29554377843E+04  0.00000000000E+00 0.  1.
         21   -1    0    0  501  502  0.00000000000E+00 -0.00000000000E+00 -0.70687381730E+02  0.70687381730E+02  0.00000000000E+00 0. -1.
         21    1    1    2  503  505 -0.19683398532E+01  0.12283081462E+03  0.24798433819E+03  0.27674449474E+03  0.00000000000E+00 0. -1.
         21    1    1    2  504  503 -0.57700691444E+02 -0.35187722347E+02  0.34984981769E+03  0.35631789252E+03  0.00000000000E+00 0. -1.
         21    1    1    2  505  502  0.46325892237E+02 -0.40621331057E+02 -0.34847165081E+02  0.70784925956E+02  0.00000000000E+00 0. -1.
          2    1    1    2  501    0  0.13343139060E+02 -0.47021761217E+02  0.23217634118E+04  0.23222778528E+04  0.00000000000E+00 0.  1.
<scales pt_clust_3="14000.00000" pt_clust_4="82.92353" pt_clust_5="62.78173" pt_clust_6="48.87827"></scales>
<clustering>
<clus scale="   48.878">  1  6  2 -1</clus>
<clus scale="   62.782">  2  5  1 -1</clus>
<clus scale="   82.924">  1  4  2 -1</clus>
<clus scale="   62.782">  2  3  1 -1</clus>
</clustering>
</event>
<event>
 6    0  0.1361744E+002  0.5845957E+02  0.7546771E-02  0.1404412E+00
          2   -1    0    0  505    0 -0.00000000000E+00  0.00000000000E+00  0.58040894527E+03  0.58040894527E+03  0.00000000000E+00 0. -1.
         21   -1    0    0  503  502  0.00000000000E+00 -0.00000000000E+00 -0.13961761630E+03  0.13961761630E+03  0.00000000000E+00 0. -1.
         21    1    1    2  503  501  0.20647929694E+02  0.47930498351E+02  0.45067415078E+01  0.52383016254E+02  0.00000000000E+00 0. -1.
         21    1    1    2  504  502 -0.20221422209E+02 -0.10606060347E+03 -0.84099399227E+02  0.13685929444E+03  0.00000000000E+00 0. -1.
         21    1    1    2  505  504 -0.37470140555E+02  0.20012726765E+02  0.12916414751E+03  0.13597020875E+03  0.00000000000E+00 0. -1.
          2    1    1    2  501    0  0.37043633069E+02  0.38117378353E+02  0.39121983918E+03  0.39481404212E+03  0.00000000000E+00 0. -1.
<scales pt_clust_3="52.48351" pt_clust_4="58.45957" pt_clust_5="42.47965" pt_clust_6="14000.00000"></scales>
<clustering>
<clus scale="   42.480">  1  5  2 -1</clus>
<clus scale="   52.484">  2  3  1 -1</clus>
<clus scale="   58.460">  2  4  1 -1</clus>
<clus scale="   52.484">  2  3  1 -1</clus>
</clustering>
</event>
<event>
 6    0  0.1361744E+002  0.2048088E+03  0.7546771E-02  0.1145744E+00
         21   -1    0    0  505  502  0.00000000000E+00  0.00000000000E+00  0.47671438938E+02  0.47671438938E+02  0.00000000000E+00 0. -1.
         -1   -1    0    0    0  501 -0.00000000000E+00 -0.00000000000E+00 -0.14007937199E+04  0.14007937199E+04  0.00000000000E+00 0. -1.
         21    1    1    2  503  504  0.48314291632E+02  0.24388846511E+02 -0.24615380224E+03  0.25203329338E+03  0.00000000000E+00 0. -1.
         21    1    1    2  504  501 -0.38228687293E+02  0.92267706058E+01 -0.13591651660E+03  0.14149157329E+03  0.00000000000E+00 0. -1.
         21    1    1    2  505  503  0.19145542359E+02  0.18786575098E+03 -0.44969768382E+03  0.48773773590E+03  0.00000000000E+00 0. -1.
         -1    1    1    2    0  502 -0.29231146698E+02 -0.22148136809E+03 -0.52135427833E+03  0.56720255631E+03  0.00000000000E+00 0. -1.
<scales pt_clust_3="48.46742" pt_clust_4="39.32640" pt_clust_5="204.80882" pt_clust_6="14000.00000"></scales>
<clustering>
<clus scale="   39.326">  2  4  1 -1</clus>
<clus scale="   48.467">  2  3  1 -1</clus>
<clus scale="  204.809">  1  5  2 -1</clus>
<clus scale="  204.809">  1  3  2 -1</clus>
</clustering>
</event>
<event>
 6    0  0.1361744E+002  0.1394009E+03  0.7546771E-02  0.1214137E+00
          1   -1    0    0  505    0 -0.00000000000E+00  0.00000000000E+00  0.22797189994E+04  0.22797189994E+04  0.00000000000E+00 0. -1.
         21   -1    0    0  503  502  0.00000000000E+00 -0.00000000000E+00 -0.37845915893E+02  0.37845915893E+02  0.00000000000E+00 0.  1.
         21    1    1    2  503  501  0.55132568457E+02  0.15656231908E+02  0.12250060575E+04  0.12263460191E+04  0.00000000000E+00 0. -1.
         21    1    1    2  504  502 -0.25278519897E+02 -0.48331128486E+02  0.60136659238E+02  0.81186940657E+02  0.00000000000E+00 0.  1.
         21    1    1    2  505  504 -0.77234606634E+02 -0.25059157095E+02  0.40455503637E+02  0.90718209808E+02  0.00000000000E+00 0.  1.
          1    1    1    2  501    0  0.47380558074E+02  0.57734053674E+02  0.91627486318E+03  0.91931374575E+03  0.00000000000E+00 0. -1.
<scales pt_clust_3="46.98452" pt_clust_4="48.74663" pt_clust_5="48.74663" pt_clust_6="137.01038"></scales>
<clustering>
<clus scale="   46.985">  3  6 -1 -1</clus>
<clus scale="   48.747">  4  5 -1 -1</clus>
<clus scale="  137.010">  1  3  2 -1</clus>
<clus scale="  139.401">  2  3  1 -1</clus>
</clustering>
</event>
<event>
 6    0  0.1361744E+002  0.1739818E+03  0.7546771E-02  0.1173758E+00
          2   -1    0    0  503    0 -0.00000000000E+00  0.00000000000E+00  0.30919753998E+04  0.30919753998E+04  0.00000000000E+00 0. -1.
         21   -1    0    0  504  502  0.00000000000E+00 -0.00000000000E+00 -0.30210031701E+03  0.30210031701E+03  0.00000000000E+00 0. -1.
         21    1    1    2  503  502 -0.18028554976E+03  0.16300147166E+03  0.26628631709E+04  0.26739320534E+04  0.00000000000E+00 0. -1.
         21    1    1    2  504  505  0.54156009082E+02 -0.18024641909E+02 -0.12803009189E+03  0.14017655105E+03  0.00000000000E+00 0. -1.
         21    1    1    2  505  501  0.77950644795E+02 -0.79586080380E+02 -0.13872058008E+03  0.17791471708E+03  0.00000000000E+00 0. -1.
          2    1    1    2  501    0  0.48178895883E+02 -0.65390749375E+02  0.39376258382E+03  0.40205239525E+03  0.00000000000E+00 0. -1.
<scales pt_clust_3="164.99561" pt_clust_4="39.50551" pt_clust_5="39.50551" pt_clust_6="81.22288"></scales>
<clustering>
<clus scale="   39.506">  4  5 -1 -1</clus>
<clus scale="   81.223">  1  6  2 -1</clus>
<clus scale="  164.996">  1  3  2 -1</clus>
<clus scale="  173.982">  2  3  1 -1</clus>
</clustering>
</event>
<event>
 6    0  0.1361744E+002  0.9789251E+02  0.7546771E-02  0.1284791E+00
          2   -1    0    0  503    0 -0.00000000000E+00  0.00000000000E+00  0.21813913736E+04  0.21813913736E+04  0.00000000000E+00 0. -1.
         21   -1    0    0  504  502  0.00000000000E+00 -0.00000000000E+00 -0.35125597524E+02  0.35125597524E+02  0.00000000000E+00 0.  1.
         21    1    1    2  503  505 -0.11390370230E+03 -0.57547517786E+02  0.20513854115E+03  0.24159385602E+03  0.00000000000E+00 0.  1.
         21    1    1    2  504  501  0.67911855969E+02  0.18915482000E+02  0.21163047450E+03  0.22306338421E+03  0.00000000000E+00 0. -1.
         21    1    1    2  505  502 -0.79410753269E+01  0.37098920048E+02  0.22702850189E+02  0.44213232779E+02  0.00000000000E+00 0.  1.
          2    1    1    2  501    0  0.53932921663E+02  0.15331157378E+01  0.17067939102E+04  0.17076464981E+04  0.00000000000E+00 0. -1.
<scales pt_clust_3="14000.00000" pt_clust_4="97.89251" pt_clust_5="37.93930" pt_clust_6="53.83825"></scales>
<clustering>
<clus scale="   37.939">  2  5  1 -1</clus>
<clus scale="   53.838">  1  6  2 -1</clus>
<clus scale="   97.893">  1  4  2 -1</clus>
<clus scale="   37.939">  2  3  1 -1</clus>
</clustering>
</event>
<event>
 6    0  0.1361744E+002  0.9616675E+02  0.7546771E-02  0.1288570E+00
         21   -1    0    0  501  502  0.00000000000E+00  0.00000000000E+00  0.42754222786E+02  0.42754222786E+02  0.00000000000E+00 0.  1.
          2   -1    0    0  505    0 -0.00000000000E+00 -0.00000000000E+00 -0.18586346761E+04  0.18586346761E+04  0.00000000000E+00 0. -1.
         21    1    1    2  503  502  0.35442273098E+02  0.34090158616E+02 -0.12459602954E+02  0.50730024074E+02  0.00000000000E+00 0.  1.
         21    1    1    2  504  503  0.45392501674E+02  0.48954705138E+01 -0.21933044006E+02  0.50650797221E+02  0.00000000000E+00 0.  1.
         21    1    1    2  505  504  0.55089180466E+02 -0.77410360807E+02 -0.39159942532E+03  0.40296065773E+03  0.00000000000E+00 0. -1.
          2    1    1    2  501    0 -0.13592395524E+03  0.38424731677E+02 -0.13898883810E+04  0.13970474199E+04  0.00000000000E+00 0. -1.
<scales pt_clust_3="31.08935" pt_clust_4="31.08935" pt_clust_5="95.01148" pt_clust_6="90.59231"></scales>
<clustering>
<clus scale="   31.089">  3  4 -1 -1</clus>
<clus scale="   95.011">  2  5  1 -1</clus>
<clus scale="   90.592">  2  6  1 -1</clus>
<clus scale="   96.167">  1  3  2 -1</clus>
</clustering>
</event>
<event>
 6    0  0.1361744E+002  0.1408113E+03  0.7546771E-02  0.1212241E+00
         21   -1    0    0  503  502  0.00000000000E+00  0.00000000000E+00  0.18784305193E+03  0.18784305193E+03  0.00000000000E+00 0.  1.
          2   -1    0    0  504    0 -0.00000000000E+00 -0.00000000000E+00 -0.88034773086E+03  0.88034773086E+03  0.00000000000E+00 0.  1.
         21    1    1    2  503  501  0.13939257517E+02  0.80966474322E+02  0.11366360152E+03  0.14024723589E+03  0.00000000000E+00 0.  1.
         21    1    1    2  504  505  0.12046757442E+01 -0.68671607733E+02 -0.11815956042E+03  0.13667085523E+03  0.00000000000E+00 0.  1.
         21    1    1    2  505  502 -0.37538009032E+02  0.71285423861E+02  0.15855034767E+02  0.82110266743E+02  0.00000000000E+00 0.  1.
          2    1    1    2  501    0  0.22394075770E+02 -0.83580290450E+02 -0.70386375481E+03  0.70916242492E+03  0.00000000000E+00 0.  1.
<scales pt_clust_3="14000.00000" pt_clust_4="68.68217" pt_clust_5="77.87875" pt_clust_6="140.81128"></scales>
<clustering>
<clus scale="   68.682">  2  4  1 -1</clus>
<clus scale="   77.879">  1  5  2 -1</clus>
<clus scale="  140.811">  2  6  1 -1</clus>
<clus scale="   77.879">  1  3  2 -1</clus>
</clustering>
</event>
<event>
 6    0  0.1361744E+002  0.3614389E+03  0.7546771E-02  0.1058016E+00
          1   -1    0    0  505    0 -0.00000000000E+00  0.00000000000E+00  0.30226100093E+04  0.30226100093E+04  0.00000000000E+00 0. -1.
         21   -1    0    0  501  502  0.00000000000E+00 -0.00000000000E+00 -0.15548167970E+04  0.15548167970E+04  0.00000000000E+00 0. -1.
         21    1    1    2  503  504 -0.26818195085E+02 -0.27503269957E+02 -0.80894613943E+02  0.89552130131E+02  0.00000000000E+00 0.  1.
         21    1    1    2  504  502 -0.28521155438E+03 -0.12989757878E+03 -0.14396977167E+04  0.14734139022E+04  0.00000000000E+00 0. -1.
         21    1    1    2  505  503  0.18961092585E+02 -0.27171023402E+02  0.99135693249E+02  0.10452594520E+03  0.00000000000E+00 0. -1.
          1    1    1    2  501    0  0.29306865688E+03  0.18457187214E+03  0.28892498497E+04  0.29099348288E+04  0.00000000000E+00 0. -1.
<scales pt_clust_3="32.32386" pt_clust_4="32.32386" pt_clust_5="33.13288" pt_clust_6="349.44794"></scales>
<clustering>
<clus scale="   32.324">  3  4 -1 -1</clus>
<clus scale="   33.133">  1  5  2 -1</clus>
<clus scale="  349.448">  1  6  2 -1</clus>
<clus scale="  361.439">  2  3  1 -1</clus>
</clustering>
</event>
<event>
 6    0  0.1361744E+002  0.8246373E+02  0.7546771E-02  0.1322202E+00
         21   -1    0    0  505  502  0.00000000000E+00  0.00000000000E+00  0.60259757575E+03  0.60259757575E+03  0.00000000000E+00 0. -1.
         -2   -1    0    0    0  501 -0.00000000000E+00 -0.00000000000E+00 -0.57563780424E+03  0.57563780424E+03  0.00000000000E+00 0. -1.
         21    1    1    2  503  502 -0.14834829917E+02 -0.50182031755E+02  0.39322186472E+03  0.39668847145E+03  0.00000000000E+00 0. -1.
         21    1    1    2  504  501 -0.70960267765E+02 -0.89786794379E+01 -0.65917216608E+02  0.97267958399E+02  0.00000000000E+00 0.  1.
         21    1    1    2  505  504 -0.41938554301E+02 -0.11592636179E+02  0.17846801979E+03  0.18369557871E+03  0.00000000000E+00 0. -1.
         -2    1    1    2    0  503  0.12773365198E+03  0.70753347372E+02 -0.47881289638E+03  0.50058337143E+03  0.00000000000E+00 0. -1.
<scales pt_clust_3="14000.00000" pt_clust_4="73.12782" pt_clust_5="43.51128" pt_clust_6="82.46373"></scales>
<clustering>
<clus scale="   43.511">  1  5  2 -1</clus>
<clus scale="   73.128">  2  4  1 -1</clus>
<clus scale="   82.464">  2  6  1 -1</clus>
<clus scale="   43.511">  1  3  2 -1</clus>
</clustering>
</event>
<event>
 6    0  0.1361744E+002  0.9360589E+02  0.7546771E-02  0.1294347E+00
         -3   -1    0    0    0  501 -0.00000000000E+00  0.00000000000E+00  0.27897888119E+04  0.27897888119E+04  0.00000000000E+00 0.  1.
         21   -1    0    0  505  502  0.00000000000E+00 -0.00000000000E+00 -0.18254019342E+03  0.18254019342E+03  0.00000000000E+00 0. -1.
         21    1    1    2  503  502 -0.46386235297E+02  0.23579939702E+00  0.65176809735E+02  0.79998468445E+02  0.00000000000E+00 0. -1.
         21    1    1    2  504  501 -0.74329369345E+02 -0.35009132847E+02 -0.83771809991E+02  0.11733801890E+03  0.00000000000E+00 0. -1.
         21    1    1    2  505  504  0.33055293306E+02  0.16754287166E+01 -0.70047619043E+02  0.77473404537E+02  0.00000000000E+00 0. -1.
         -3    1    1    2    0  503  0.87660311335E+02  0.33097904734E+02  0.26958912378E+04  0.26975191134E+04  0.00000000000E+00 0.  1.
<scales pt_clust_3="44.13567" pt_clust_4="93.60589" pt_clust_5="33.09773" pt_clust_6="14000.00000"></scales>
<clustering>
<clus scale="   33.098">  2  5  1 -1</clus>
<clus scale="   44.136">  2  3  1 -1</clus>
<clus scale="   93.606">  2  4  1 -1</clus>
<clus scale="   33.098">  2  3  1 -1</clus>
</clustering>
</event>
<event>
 6    0  0.1361744E+002  0.2333891E+03  0.7546771E-02  0.1124277E+00
         21   -1    0    0  503  502  0.00000000000E+00  0.00000000000E+00  0.11516394856E+04  0.11516394856E+04  0.00000000000E+00 0.  1.
          2   -1    0    0  504    0 -0.00000000000E+00 -0.00000000000E+00 -0.30402850453E+04  0.30402850453E+04  0.00000000000E+00 0. -1.
         21    1    1    2  503  505 -0.12144669088E+03 -0.82161284051E+02  0.35119931854E+03  0.38057947483E+03  0.00000000000E+00 0.  1.
         21    1    1    2  504  502 -0.56166978152E+02 -0.50234056116E+02  0.77939586635E+03  0.78303008008E+03  0.00000000000E+00 0.  1.
         21    1    1    2  505  501  0.45908768724E+01  0.31686812459E+02 -0.29637712102E+03  0.29810153991E+03  0.00000000000E+00 0. -1.
          2    1    1    2  501    0  0.17302279216E+03  0.10070852771E+03 -0.27228636235E+04  0.27302134361E+04  0.00000000000E+00 0. -1.
<scales pt_clust_3="220.60982" pt_clust_4="75.35376" pt_clust_5="30.46112" pt_clust_6="30.46112"></scales>
<clustering>
<clus scale="   30.461">  5  6 -1 -1</clus>
<clus scale="   75.354">  1  4  2 -1</clus>
<clus scale="  220.610">  1  3  2 -1</clus>
<clus scale="   75.354">  1  3  2 -1</clus>
</clustering>
</event>
<event>
 6    0  0.1361744E+002  0.1990044E+03  0.7546771E-02  0.1150582E+00
          2   -1    0    0  503    0 -0.00000000000E+00  0.00000000000E+00  0.18449112060E+04  0.18449112060E+04  0.00000000000E+00 0. -1.
         21   -1    0    0  505  502  0.00000000000E+00 -0.00000000000E+00 -0.18315775310E+03  0.18315775310E+03  0.00000000000E+00 0.  1.
         21    1    1    2  503  504  0.24998386829E+02 -0.32552300499E+02  0.12059299789E+03  0.12738619530E+03  0.00000000000E+00 0. -1.
         21    1    1    2  504  502 -0.14956256866E+03  0.48916641431E+02  0.20265229948E+02  0.15865837292E+03  0.00000000000E+00 0.  1.
         21    1    1    2  505  501  0.32946247762E+03 -0.12644256906E+02  0.16125497322E+03  0.36702665813E+03  0.00000000000E+00 0.  1.
          2    1    1    2  501    0 -0.20489829579E+03 -0.37200840257E+01  0.13596402518E+04  0.13749977327E+04  0.00000000000E+00 0. -1.
<scales pt_clust_3="41.04353" pt_clust_4="155.60229" pt_clust_5="199.00440" pt_clust_6="14000.00000"></scales>
<clustering>
<clus scale="   41.044">  1  3  2 -1</clus>
<clus scale="  155.602">  2  4  1 -1</clus>
<clus scale="  199.004">  2  5  1 -1</clus>
<clus scale="  155.602">  2  3  1 -1</clus>
</clustering>
</event>
<event>
 6    0  0.1361744E+002  0.8923074E+02  0.7546771E-02  0.1304725E+00
          2   -1    0    0  504    0 -0.00000000000E+00  0.00000000000E+00  0.82473420018E+03  0.82473420018E+03  0.00000000000E+00 0. -1.
         21   -1    0    0  501  502  0.00000000000E+00 -0.00000000000E+00 -0.13401190664E+03  0.13401190664E+03  0.00000000000E+00 0. -1.
         21    1    1    2  503  502 -0.13317492122E+02  0.59324667953E+02 -0.34847796188E+01  0.60900866276E+02  0.00000000000E+00 0. -1.
         21    1    1    2  504  505 -0.21209474775E+02 -0.25705313947E+02  0.64244947476E+02  0.72374154652E+02  0.00000000000E+00 0.  1.
         21    1    1    2  505  503  0.10122432174E+03 -0.34570725831E+02 -0.66415021049E+02  0.12590652650E+03  0.00000000000E+00 0. -1.
          2    1    1    2  501    0 -0.66697354840E+02  0.95137182527E+00  0.69637714673E+03  0.69956455938E+03  0.00000000000E+00 0. -1.
<scales pt_clust_3="60.03382" pt_clust_4="33.32574" pt_clust_5="14000.00000" pt_clust_6="89.23074"></scales>
<clustering>
<clus scale="   33.326">  1  4  2 -1</clus>
<clus scale="   60.034">  2  3  1 -1</clus>
<clus scale="   89.231">  1  6  2 -1</clus>
<clus scale="   60.034">  2  3  1 -1</clus>
</clustering>
</event>
<event>
 6    0  0.1361744E+002  0.8251450E+02  0.7546771E-02  0.1322063E+00
          2   -1    0    0  503    0 -0.00000000000E+00  0.00000000000E+00  0.24944653113E+04  0.24944653113E+04  0.00000000000E+00 0.  1.
         21   -1    0    0  504  502  0.00000000000E+00 -0.00000000000E+00 -0.29093936444E+03  0.29093936444E+03  0.00000000000E+00 0.  1.
         21    1    1    2  503  505 -0.60247227334E+02 -0.40806641458E+01  0.89219371168E+03  0.89423486813E+03  0.00000000000E+00 0.  1.
         21    1    1    2  504  501  0.69988960840E+02  0.29248371923E+02 -0.18996835232E+03  0.20455291927E+03  0.00000000000E+00 0.  1.
         21    1    1    2  505  502  0.20666378436E+00 -0.75386823975E+02 -0.76840240077E+02  0.10764589372E+03  0.00000000000E+00 0.  1.
          2    1    1    2  501    0 -0.99483972910E+01  0.50219116198E+02  0.15781408276E+04  0.15789709947E+04  0.00000000000E+00 0.  1.
<scales pt_clust_3="82.51450" pt_clust_4="14000.00000" pt_clust_5="74.54230" pt_clust_6="51.19502"></scales>
<clustering>
<clus scale="   51.195">  1  6  2 -1</clus>
<clus scale="   74.542">  2  5  1 -1</clus>
<clus scale="   82.514">  1  3  2 -1</clus>
<clus scale="   74.542">  2  3  1 -1</clus>
</clustering>
</event>
<event>
 6    0  0.1361744E+002  0.1408447E+03  0.7546771E-02  0.1212197E+00
         21   -1    0    0  504  502  0.00000000000E+00  0.00000000000E+00  0.65613959372E+03  0.65613959372E+03  0.00000000000E+00 0. -1.
          1   -1    0    0  505    0 -0.00000000000E+00 -0.00000000000E+00 -0.90220643387E+03  0.90220643387E+03  0.00000000000E+00 0.  1.
         21    1    1    2  503  501  0.58738457708E+02 -0.49902893662E+02  0.25398790821E+03  0.26542487209E+03  0.00000000000E+00 0. -1.
         21    1    1    2  504  503  0.39870491958E+02  0.25079994760E+02  0.36421446215E+03  0.36724765038E+03  0.00000000000E+00 0. -1.
         21    1    1    2  505  502  0.22999897717E+02 -0.49077648739E+02 -0.46981954562E+01  0.54402977320E+02  0.00000000000E+00 0. -1.
          1    1    1    2  501    0 -0.12160884738E+03  0.73900547641E+02 -0.85957101505E+03  0.87127052781E+03  0.00000000000E+00 0.  1.
<scales pt_clust_3="14000.00000" pt_clust_4="47.10268" pt_clust_5="53.85297" pt_clust_6="140.84470"></scales>
<clustering>
<clus scale="   47.103">  1  4  2 -1</clus>
<clus scale="   53.853">  1  5  2 -1</clus>
<clus scale="  140.845">  2  6  1 -1</clus>
<clus scale="   47.103">  1  3  2 -1</clus>
</clustering>
</event>
<event>
 6    0  0.1361744E+002  0.1022722E+03  0.7546771E-02  0.1275589E+00
         21   -1    0    0  503  502  0.00000000000E+00  0.00000000000E+00  0.34524975036E+02  0.34524975036E+02  0.00000000000E+00 0. -1.
          2   -1    0    0  505    0 -0.00000000000E+00 -0.00000000000E+00 -0.22738931568E+04  0.22738931568E+04  0.00000000000E+00 0.  1.
         21    1    1    2  503  501  0.20875997050E+02 -0.21549861452E+02 -0.11752509132E+03  0.12129447997E+03  0.00000000000E+00 0. -1.
         21    1    1    2  504  502 -0.43270794372E+02  0.40892721034E+02 -0.83882099227E+02  0.10286293234E+03  0.00000000000E+00 0. -1.
         21    1    1    2  505  504 -0.79494263663E+02 -0.36742089480E+02 -0.66170177156E+02  0.10976252293E+03  0.00000000000E+00 0. -1.
          2    1    1    2  501    0  0.10188906099E+03  0.17399229898E+02 -0.19717908140E+04  0.19744981966E+04  0.00000000000E+00 0.  1.
<scales pt_clust_3="30.00340" pt_clust_4="50.82257" pt_clust_5="14000.00000" pt_clust_6="102.27225"></scales>
<clustering>
<clus scale="   30.003">  1  3  2 -1</clus>
<clus scale="   50.823">  1  4  2 -1</clus>
<clus scale="  102.272">  2  6  1 -1</clus>
<clus scale="   30.003">  1  3  2 -1</clus>
</clustering>
</event>
<event>
 6    0  0.1361744E+002  0.1268217E+03  0.7546771E-02  0.1232249E+00
         21   -1    0    0  504  502  0.00000000000E+00  0.00000000000E+00  0.68263662054E+03  0.68263662054E+03  0.00000000000E+00 0. -1.
         -2   -1    0    0    0  501 -0.00000000000E+00 -0.00000000000E+00 -0.12402704608E+03  0.12402704608E+03  0.00000000000E+00 0. -1.
         21    1    1    2  503  502  0.83849947695E+02  0.16555967585E+03  0.49858905147E+03  0.53200738928E+03  0.00000000000E+00 0. -1.
         21    1    1    2  504  505 -0.53955626089E+02 -0.28201805760E+02  0.94097259221E+02  0.11207517846E+03  0.00000000000E+00 0.  1.
         21    1    1    2  505  501  0.15619390702E+01 -0.59614831314E+02 -0.49263241577E+02  0.77351371914E+02  0.00000000000E+00 0. -1.
         -2    1    1    2    0  503 -0.31456260675E+02 -0.77743038776E+02  0.15186505340E+02  0.85229726964E+02  0.00000000000E+00 0. -1.
<scales pt_clust_3="14000.00000" pt_clust_4="65.24817" pt_clust_5="59.63529" pt_clust_6="126.82168"></scales>
<clustering>
<clus scale="   59.635">  2  5  1 -1</clus>
<clus scale="   65.248">  1  4  2 -1</clus>
<clus scale="  126.822">  2  6  1 -1</clus>
<clus scale="   65.248">  1  3  2 -1</clus>
</clustering>
</event>
<event>
 6    0  0.1361744E+002  0.1228612E+03  0.7546771E-02  0.1238450E+00
         21   -1    0    0  505  502  0.00000000000E+00  0.00000000000E+00  0.19010891457E+04  0.19010891457E+04  0.00000000000E+00 0.  1.
         -3   -1    0    0    0  501 -0.00000000000E+00 -0.00000000000E+00 -0.34594285983E+02  0.34594285983E+02  0.00000000000E+00 0.  1.
         21    1    1    2  503  502  0.21220340836E+02  0.24868155306E+02  0.12252335046E+03  0.12680969766E+03  0.00000000000E+00 0.  1.
         21    1    1    2  504  501 -0.24801059923E+02 -0.59448510600E+02  0.39278281914E+02  0.75445353840E+02  0.00000000000E+00 0.  1.
         21    1    1    2  505  504 -0.32959146287E+02  0.11595513682E+03  0.15513550171E+04  0.15560315833E+04  0.00000000000E+00 0.  1.
         -3    1    1    2    0  503  0.36539865374E+02 -0.81374781525E+02  0.15333821023E+03  0.17739679689E+03  0.00000000000E+00 0.  1.
<scales pt_clust_3="32.69141" pt_clust_4="63.41032" pt_clust_5="14000.00000" pt_clust_6="122.86124"></scales>
<clustering>
<clus scale="   32.691">  1  3  2 -1</clus>
<clus scale="   63.410">  2  4  1 -1</clus>
<clus scale="  122.861">  2  6  1 -1</clus>
<clus scale="   32.691">  1  3  2 -1</clus>
</clustering>
</event>
<event>
 6    0  0.1361744E+002  0.1023929E+03  0.7546771E-02  0.1275343E+00
         -4   -1    0    0    0  501 -0.00000000000E+00  0.00000000000E+00  0.31215849049E+03  0.31215849049E+03  0.00000000000E+00 0.  1.
         21   -1    0    0  505  502  0.00000000000E+00 -0.00000000000E+00 -0.33282378019E+03  0.33282378019E+03  0.00000000000E+00 0. -1.
         21    1    1    2  503  502 -0.10317387559E+03 -0.23894046801E+01 -0.28479009330E+03  0.30291245452E+03  0.00000000000E+00 0. -1.
         21    1    1    2  504  501 -0.40977538392E+02 -0.10213137722E+02  0.10207330894E+02  0.43447168363E+02  0.00000000000E+00 0. -1.
         21    1    1    2  505  504  0.60724714375E+02  0.27490699819E+01  0.52246146224E+02  0.80154276972E+02  0.00000000000E+00 0. -1.
         -4    1    1    2    0  503  0.83426699611E+02  0.98534724205E+01  0.20167132648E+03  0.21846837082E+03  0.00000000000E+00 0.  1.
<scales pt_clust_3="14000.00000" pt_clust_4="42.23111" pt_clust_5="51.21885" pt_clust_6="102.39287"></scales>
<clustering>
<clus scale="   42.231">  1  4  2 -1</clus>
<clus scale="   51.219">  1  5  2 -1</clus>
<clus scale="  102.393">  1  6  2 -1</clus>
<clus scale="  102.393">  2  3  1 -1</clus>
</clustering>
</event>
<event>
 6    0  0.1361744E+002  0.1849351E+03  0.7546771E-02  0.1163110E+00
         21   -1    0    0  503  502  0.00000000000E+00  0.00000000000E+00  0.49541786456E+03  0.49541786456E+03  0.00000000000E+00 0.  1.
          2   -1    0    0  504    0 -0.00000000000E+00 -0.00000000000E+00 -0.47068161570E+03  0.47068161570E+03  0.00000000000E+00 0.  1.
         21    1    1    2  503  501  0.16711959064E+03 -0.78378597034E+01  0.26217029012E+03  0.31100426145E+03  0.00000000000E+00 0.  1.
         21    1    1    2  504  505 -0.10323193984E+02  0.36714927823E+02 -0.67026705247E+02  0.77117659945E+02  0.00000000000E+00 0. -1.
         21    1    1    2  505  502  0.17645474060E+02 -0.27117186682E+02  0.18194777935E+03  0.18480178295E+03  0.00000000000E+00 0.  1.
          2    1    1    2  501    0 -0.17444187071E+03 -0.17598814369E+01 -0.35235511537E+03  0.39317577592E+03  0.00000000000E+00 0.  1.
<scales pt_clust_3="184.93513" pt_clust_4="37.63962" pt_clust_5="32.35281" pt_clust_6="14000.00000"></scales>
<clustering>
<clus scale="   32.353">  1  5  2 -1</clus>
<clus scale="   37.640">  2  4  1 -1</clus>
<clus scale="  184.935">  1  3  2 -1</clus>
<clus scale="   32.353">  1  3  2 -1</clus>
</clustering>
</event>
<event>
 6    0  0.1361744E+002  0.1927541E+03  0.7546771E-02  0.1156000E+00
         21   -1    0    0  501  502  0.00000000000E+00  0.00000000000E+00  0.27697902382E+03  0.27697902382E+03  0.00000000000E+00 0. -1.
          1   -1    0    0  504    0 -0.00000000000E+00 -0.00000000000E+00 -0.18976015101E+04  0.18976015101E+04  0.00000000000E+00 0. -1.
         21    1    1    2  503  502  0.29057161606E+02  0.13889812117E+02  0.55957847857E+01  0.32688810450E+02  0.00000000000E+00 0.  1.
         21    1    1    2  504  505 -0.35061236914E+02  0.17333457760E+02 -0.19145672708E+03  0.19541089385E+03  0.00000000000E+00 0.  1.
         21    1    1    2  505  503  0.10432391945E+03  0.12688316043E+03  0.22373796744E+03  0.27756349660E+03  0.00000000000E+00 0. -1.
          1    1    1    2  501    0 -0.98319844145E+02 -0.15810643031E+03 -0.16584995114E+04  0.16689173330E+04  0.00000000000E+00 0. -1.
<scales pt_clust_3="32.20630" pt_clust_4="38.95983" pt_clust_5="192.75412" pt_clust_6="14000.00000"></scales>
<clustering>
<clus scale="   32.206">  1  3  2 -1</clus>
<clus scale="   38.960">  2  4  1 -1</clus>
<clus scale="  192.754">  1  5  2 -1</clus>
<clus scale="   32.206">  1  3  2 -1</clus>
</clustering>
</event>
<event>
 6    0  0.1361744E+002  0.8912192E+02  0.7546771E-02  0.1304992E+00
         21   -1    0    0  503  502  0.00000000000E+00  0.00000000000E+00  0.60132894571E+03  0.60132894571E+03  0.00000000000E+00 0. -1.
          1   -1    0    0  504    0 -0.00000000000E+00 -0.00000000000E+00 -0.41554215086E+02  0.41554215086E+02  0.00000000000E+00 0.  1.
         21    1    1    2  503  505  0.41629460148E+01 -0.38344071813E+02  0.22226805863E+03  0.22558964482E+03  0.00000000000E+00 0. -1.
         21    1    1    2  504  502  0.45511635054E+02  0.29613062001E+02  0.53165602196E+02  0.75992260285E+02  0.00000000000E+00 0.  1.
         21    1    1    2  505  501 -0.51408030765E+02 -0.69915077634E+02  0.22963057048E+03  0.24548136917E+03  0.00000000000E+00 0. -1.
          1    1    1    2  501    0  0.17334496958E+01  0.78646087445E+02  0.54710499318E+02  0.95819886526E+02  0.00000000000E+00 0.  1.
<scales pt_clust_3="38.56939" pt_clust_4="51.65309" pt_clust_5="89.12192" pt_clust_6="14000.00000"></scales>
<clustering>
<clus scale="   38.569">  1  3  2 -1</clus>
<clus scale="   51.653">  2  4  1 -1</clus>
<clus scale="   89.122">  1  5  2 -1</clus>
<clus scale="   38.569">  1  3  2 -1</clus>
</clustering>
</event>
<event>
 6    0  0.1361744E+002  0.1167534E+03  0.7546771E-02  0.1248551E+00
         21   -1    0    0  503  502  0.00000000000E+00  0.00000000000E+00  0.78961671299E+02  0.78961671299E+02  0.00000000000E+00 0. -1.
         -1   -1    0    0    0  501 -0.00000000000E+00 -0.00000000000E+00 -0.12866852599E+04  0.12866852599E+04  0.00000000000E+00 0.  1.
         21    1    1    2  503  501  0.23080534894E+02  0.19176505197E+02 -0.55771085556E+03  0.55851754480E+03  0.00000000000E+00 0.  1.
         21    1    1    2  504  502 -0.55188353953E+02  0.31520804921E+02  0.32589314125E+02  0.71423938214E+02  0.00000000000E+00 0. -1.
         21    1    1    2  505  504 -0.31046276193E+02  0.37625632394E+02 -0.45249734433E+01  0.48990150675E+02  0.00000000000E+00 0. -1.
         -1    1    1    2    0  505  0.63154095253E+02 -0.88322942512E+02 -0.67807707369E+03  0.68671529747E+03  0.00000000000E+00 0.  1.
<scales pt_clust_3="30.00749" pt_clust_4="33.94569" pt_clust_5="33.94569" pt_clust_6="110.16827"></scales>
<clustering>
<clus scale="   30.007">  2  3  1 -1</clus>
<clus scale="   33.946">  4  5 -1 -1</clus>
<clus scale="  110.168">  2  6  1 -1</clus>
<clus scale="  116.753">  1  3  2 -1</clus>
</clustering>
</event>
<event>
 6    0  0.1361744E+002  0.1948938E+03  0.7546771E-02  0.1154120E+00
          4   -1    0    0  504    0 -0.00000000000E+00  0.00000000000E+00  0.73416080465E+03  0.73416080465E+03  0.00000000000E+00 0. -1.
         21   -1    0    0  505  502  0.00000000000E+00 -0.00000000000E+00 -0.74611292879E+02  0.74611292879E+02  0.00000000000E+00 0. -1.
         21    1    1    2  503  501 -0.88892965164E+02  0.21671087895E+02  0.14128321176E+03  0.16832272940E+03  0.00000000000E+00 0. -1.
         21    1    1    2  504  502  0.65186710935E+01 -0.40055821380E+02  0.74552868761E+02  0.84882814160E+02  0.00000000000E+00 0. -1.
         21    1    1    2  505  503  0.16252456632E+03 -0.58163370128E+02  0.11185759654E+03  0.20569232894E+03  0.00000000000E+00 0. -1.
          4    1    1    2  501    0 -0.80150272251E+02  0.76548103614E+02  0.33185583470E+03  0.34987422502E+03  0.00000000000E+00 0. -1.
<scales pt_clust_3="77.42340" pt_clust_4="40.58278" pt_clust_5="177.59132" pt_clust_6="77.42340"></scales>
<clustering>
<clus scale="   40.583">  1  4  2 -1</clus>
<clus scale="   77.423">  3  6 -1 -1</clus>
<clus scale="  177.591">  2  5  1 -1</clus>
<clus scale="  177.591">  2  3  1 -1</clus>
</clustering>
</event>
<event>
 6    0  0.1361744E+002  0.1698279E+03  0.7546771E-02  0.1178027E+00
         21   -1    0    0  504  502  0.00000000000E+00  0.00000000000E+00  0.41324162130E+03  0.41324162130E+03  0.00000000000E+00 0.  1.
          2   -1    0    0  505    0 -0.00000000000E+00 -0.00000000000E+00 -0.96299771779E+02  0.96299771779E+02  0.00000000000E+00 0.  1.
         21    1    1    2  503  502  0.15099512149E+03  0.18345998362E+02  0.15602077042E+03  0.21789580806E+03  0.00000000000E+00 0.  1.
         21    1    1    2  504  501 -0.10103887183E+03 -0.44566193383E+02  0.10277734534E+03  0.15085815168E+03  0.00000000000E+00 0.  1.
         21    1    1    2  505  503  0.28663243756E+02  0.28798080603E+02 -0.35958393148E+01  0.40790207764E+02  0.00000000000E+00 0.  1.
          2    1    1    2  501    0 -0.78619493413E+02 -0.25778855813E+01  0.61739573076E+02  0.99997225573E+02  0.00000000000E+00 0.  1.
<scales pt_clust_3="165.76671" pt_clust_4="31.15804" pt_clust_5="40.63140" pt_clust_6="31.15804"></scales>
<clustering>
<clus scale="   31.158">  4  6 -1 -1</clus>
<clus scale="   40.631">  2  5  1 -1</clus>
<clus scale="  165.767">  1  3  2 -1</clus>
<clus scale="  165.767">  1  3  2 -1</clus>
</clustering>
</event>
<event>
 6    0  0.1361744E+002  0.1267846E+03  0.7546771E-02  0.1232306E+00
         21   -1    0    0  505  502  0.00000000000E+00  0.00000000000E+00  0.17175985135E+03  0.17175985135E+03  0.00000000000E+00 0. -1.
          2   -1    0    0  503    0 -0.00000000000E+00 -0.00000000000E+00 -0.50952545806E+03  0.50952545806E+03  0.00000000000E+00 0.  1.
         21    1    1    2  503  504 -0.29137565817E+02  0.91246812327E+01 -0.32316253776E+02  0.44458945191E+02  0.00000000000E+00 0. -1.
         21    1    1    2  504  502 -0.13989980592E+01 -0.50963901796E+02 -0.21440485054E+02  0.55307963995E+02  0.00000000000E+00 0.  1.
         21    1    1    2  505  501  0.37211249412E+02 -0.77611210320E+02  0.12701858051E+03  0.15343368875E+03  0.00000000000E+00 0. -1.
          2    1    1    2  501    0 -0.66746855357E+01  0.11945043088E+03 -0.41102744839E+03  0.42808471147E+03  0.00000000000E+00 0.  1.
<scales pt_clust_3="30.53289" pt_clust_4="50.36217" pt_clust_5="126.78460" pt_clust_6="14000.00000"></scales>
<clustering>
<clus scale="   30.533">  2  3  1 -1</clus>
<clus scale="   50.362">  1  4  2 -1</clus>
<clus scale="  126.785">  1  5  2 -1</clus>
<clus scale="   50.362">  1  3  2 -1</clus>
</clustering>
</event>
<event>
 6    0  0.1361744E+002  0.1122609E+03  0.7546771E-02  0.1256439E+00
         21   -1    0    0  504  502  0.00000000000E+00  0.00000000000E+00  0.13433371652E+04  0.13433371652E+04  0.00000000000E+00 0. -1.
          2   -1    0    0  505    0 -0.00000000000E+00 -0.00000000000E+00 -0.78387988215E+02  0.78387988215E+02  0.00000000000E+00 0. -1.
         21    1    1    2  503  501 -0.23020208397E+02  0.30354313689E+02  0.23468237419E+03  0.23775435035E+03  0.00000000000E+00 0. -1.
         21    1    1    2  504  503  0.37526267091E+00  0.31377004054E+02  0.88784263505E+03  0.88839698436E+03  0.00000000000E+00 0. -1.
         21    1    1    2  505  502  0.13767182496E+02  0.67675511084E+02  0.15052320599E+03  0.16561022208E+03  0.00000000000E+00 0. -1.
          2    1    1    2  501    0  0.88777632303E+01 -0.12940682883E+03 -0.80990382542E+01  0.12996359662E+03  0.00000000000E+00 0. -1.
<scales pt_clust_3="51.92247" pt_clust_4="31.37925" pt_clust_5="14000.00000" pt_clust_6="112.26086"></scales>
<clustering>
<clus scale="   31.379">  1  4  2 -1</clus>
<clus scale="   51.922">  1  3  2 -1</clus>
<clus scale="  112.261">  2  6  1 -1</clus>
<clus scale="   31.379">  1  3  2 -1</clus>
</clustering>
</event>
<event>
 6    0  0.1361744E+002  0.8706138E+02  0.7546771E-02  0.1310128E+00
         21   -1    0    0  501  502  0.00000000000E+00  0.00000000000E+00  0.15654413907E+04  0.15654413907E+04  0.00000000000E+00 0. -1.
          1   -1    0    0  504    0 -0.00000000000E+00 -0.00000000000E+00 -0.16934934131E+02  0.16934934131E+02  0.00000000000E+00 0. -1.
         21    1    1    2  503  505 -0.80635128828E+02  0.14011122750E+02  0.40635467369E+03  0.41451472397E+03  0.00000000000E+00 0.  1.
         21    1    1    2  504  503  0.48908599952E+02 -0.41184945108E+02  0.26881703052E+03  0.27631656980E+03  0.00000000000E+00 0.  1.
         21    1    1    2  505  502  0.50385113623E+02  0.92489912496E+02  0.63673114151E+03  0.64538328934E+03  0.00000000000E+00 0. -1.
          1    1    1    2  501    0 -0.18658584747E+02 -0.65316090139E+02  0.23660361088E+03  0.24616174174E+03  0.00000000000E+00 0. -1.
<scales pt_clust_3="65.51307" pt_clust_4="63.93943" pt_clust_5="87.06138" pt_clust_6="14000.00000"></scales>
<clustering>
<clus scale="   63.939">  2  4  1 -1</clus>
<clus scale="   65.513">  2  3  1 -1</clus>
<clus scale="   87.061">  1  5  2 -1</clus>
<clus scale="   87.061">  1  3  2 -1</clus>
</clustering>
</event>
<event>
 6    0  0.1361744E+002  0.1116756E+03  0.7546771E-02  0.1257498E+00
          2   -1    0    0  503    0 -0.00000000000E+00  0.00000000000E+00  0.12174776643E+04  0.12174776643E+04  0.00000000000E+00 0.  1.
         21   -1    0    0  505  502  0.00000000000E+00 -0.00000000000E+00 -0.18576477266E+02  0.18576477266E+02  0.00000000000E+00 0. -1.
         21    1    1    2  503  502 -0.53861732676E+02  0.33443715687E+02  0.14607476497E+03  0.15924008706E+03  0.00000000000E+00 0. -1.
         21    1    1    2  504  501  0.56587888393E+02  0.31709637780E+02  0.22060644621E+03  0.22994541602E+03  0.00000000000E+00 0. -1.
         21    1    1    2  505  504  0.56383427254E+01  0.43820389520E+02  0.16777982987E+03  0.17349953532E+03  0.00000000000E+00 0. -1.
          2    1    1    2  501    0 -0.83644984415E+01 -0.10897374299E+03  0.66444014600E+03  0.67336910318E+03  0.00000000000E+00 0.  1.
<scales pt_clust_3="63.40007" pt_clust_4="39.98253" pt_clust_5="39.98253" pt_clust_6="100.62004"></scales>
<clustering>
<clus scale="   39.983">  4  5 -1 -1</clus>
<clus scale="   63.400">  2  3  1 -1</clus>
<clus scale="  100.620">  1  6  2 -1</clus>
<clus scale="   63.400">  2  3  1 -1</clus>
</clustering>
</event>
<event>
 6    0  0.1361744E+002  0.9337213E+02  0.7546771E-02  0.1294885E+00
          2   -1    0    0  503    0 -0.00000000000E+00  0.00000000000E+00  0.72546401422E+03  0.72546401422E+03  0.00000000000E+00 0.  1.
         21   -1    0    0  505  502  0.00000000000E+00 -0.00000000000E+00 -0.65459567292E+02  0.65459567292E+02  0.00000000000E+00 0. -1.
         21    1    1    2  503  504 -0.26434377748E+02  0.35008878429E+02  0.13092069084E+03  0.13807470871E+03  0.00000000000E+00 0. -1.
         21    1    1    2  504  502  0.44196152909E+02  0.68345631094E+02 -0.12023301272E+02  0.82273841499E+02  0.00000000000E+00 0. -1.
         21    1    1    2  505  501  0.32730132956E+02 -0.11212107189E+02  0.22131735732E+02  0.41070508609E+02  0.00000000000E+00 0. -1.
          2    1    1    2  501    0 -0.50491908117E+02 -0.92142402334E+02  0.51897532163E+03  0.52950452269E+03  0.00000000000E+00 0.  1.
<scales pt_clust_3="42.05449" pt_clust_4="93.37213" pt_clust_5="34.59730" pt_clust_6="14000.00000"></scales>
<clustering>
<clus scale="   34.597">  2  5  1 -1</clus>
<clus scale="   42.054">  1  3  2 -1</clus>
<clus scale="   93.372">  2  4  1 -1</clus>
<clus scale="   34.597">  2  3  1 -1</clus>
</clustering>
</event>
<event>
 6    0  0.1361744E+002  0.1685030E+03  0.7546771E-02  0.1179418E+00
         21   -1    0    0  504  502  0.00000000000E+00  0.00000000000E+00  0.61568702742E+03  0.61568702742E+03  0.00000000000E+00 0. -1.
          3   -1    0    0  503    0 -0.00000000000E+00 -0.00000000000E+00 -0.84774452570E+03  0.84774452570E+03  0.00000000000E+00 0.  1.
         21    1    1    2  503  505 -0.76346111341E+02 -0.78078377299E+02 -0.24931867189E+03  0.27218516101E+03  0.00000000000E+00 0.  1.
         21    1    1    2  504  501 -0.17141738294E+00  0.13022715659E+03  0.53782043441E+03  0.55336241413E+03  0.00000000000E+00 0. -1.
         21    1    1    2  505  502  0.11570504850E+02  0.42381390589E+02  0.43771745638E+02  0.62016325003E+02  0.00000000000E+00 0. -1.
          3    1    1    2  501    0  0.64947023874E+02 -0.94530169884E+02 -0.56433100643E+03  0.57586765298E+03  0.00000000000E+00 0.  1.
<scales pt_clust_3="108.42241" pt_clust_4="168.50298" pt_clust_5="43.93244" pt_clust_6="14000.00000"></scales>
<clustering>
<clus scale="   43.932">  1  5  2 -1</clus>
<clus scale="  108.422">  2  3  1 -1</clus>
<clus scale="  168.503">  1  4  2 -1</clus>
<clus scale="   43.932">  1  3  2 -1</clus>
</clustering>
</event>
<event>
 6    0  0.1361744E+002  0.2272957E+03  0.7546771E-02  0.1128558E+00
         21   -1    0    0  501  502  0.00000000000E+00  0.00000000000E+00  0.84891150127E+02  0.84891150127E+02  0.00000000000E+00 0.  1.
          2   -1    0    0  505    0 -0.00000000000E+00 -0.00000000000E+00 -0.13110412863E+04  0.13110412863E+04  0.00000000000E+00 0.  1.
         21    1    1    2  503  504  0.94371576956E+01 -0.14376324885E+03 -0.76985974667E+02  0.16335168184E+03  0.00000000000E+00 0.  1.
         21    1    1    2  504  502 -0.42537949806E+02 -0.79695268341E+02 -0.48509079910E+02  0.10253752388E+03  0.00000000000E+00 0. -1.
         21    1    1    2  505  503 -0.41768913659E+02  0.48513093949E+02 -0.22371125204E+03  0.23269053853E+03  0.00000000000E+00 0.  1.
          2    1    1    2  501    0  0.74869705769E+02  0.17494542324E+03 -0.87694382955E+03  0.89735269217E+03  0.00000000000E+00 0.  1.
<scales pt_clust_3="49.56932" pt_clust_4="49.56932" pt_clust_5="64.01689" pt_clust_6="218.50553"></scales>
<clustering>
<clus scale="   49.569">  3  4 -1 -1</clus>
<clus scale="   64.017">  2  5  1 -1</clus>
<clus scale="  218.506">  2  6  1 -1</clus>
<clus scale="  227.296">  1  3  2 -1</clus>
</clustering>
</event>
<event>
 6    0  0.1361744E+002  0.1638978E+03  0.7546771E-02  0.1184365E+00
         21   -1    0    0  505  502  0.00000000000E+00  0.00000000000E+00  0.10361148901E+04  0.10361148901E+04  0.00000000000E+00 0. -1.
          2   -1    0    0  503    0 -0.00000000000E+00 -0.00000000000E+00 -0.91799842251E+03  0.91799842251E+03  0.00000000000E+00 0.  1.
         21    1    1    2  503  504  0.16636896912E+01  0.21225471671E+03 -0.25611027624E+03  0.33263689847E+03  0.00000000000E+00 0.  1.
         21    1    1    2  504  502  0.12779095545E+03 -0.78924485871E+02  0.76078492403E+03  0.77546973080E+03  0.00000000000E+00 0. -1.
         21    1    1    2  505  501 -0.58432179296E+02  0.52837236547E+01  0.21590605803E+03  0.22373569945E+03  0.00000000000E+00 0. -1.
          2    1    1    2  501    0 -0.71022465848E+02 -0.13861395449E+03 -0.60246423823E+03  0.62227098389E+03  0.00000000000E+00 0.  1.
<scales pt_clust_3="163.89782" pt_clust_4="103.77758" pt_clust_5="58.67058" pt_clust_6="14000.00000"></scales>
<clustering>
<clus scale="   58.671">  1  5  2 -1</clus>
<clus scale="  103.778">  1  4  2 -1</clus>
<clus scale="  163.898">  1  3  2 -1</clus>
<clus scale="   58.671">  1  3  2 -1</clus>
</clustering>
</event>
<event>
 6    0  0.1361744E+002  0.1172316E+03  0.7546771E-02  0.1247735E+00
         -1   -1    0    0    0  501 -0.00000000000E+00  0.00000000000E+00  0.70152459715E+03  0.70152459715E+03  0.00000000000E+00 0.  1.
         21   -1    0    0  504  502  0.00000000000E+00 -0.00000000000E+00 -0.69683847521E+02  0.69683847521E+02  0.00000000000E+00 0.  1.
         21    1    1    2  503  502 -0.36621206011E+00 -0.67975396148E+02  0.58732961868E+02  0.89835123435E+02  0.00000000000E+00 0. -1.
         21    1    1    2  504  505 -0.86834028212E+02 -0.22956034422E+02  0.11423888576E+02  0.90540781983E+02  0.00000000000E+00 0.  1.
         21    1    1    2  505  501 -0.31456529842E+02  0.21360078153E+02  0.63545733941E+02  0.74052862947E+02  0.00000000000E+00 0.  1.
         -1    1    1    2    0  503  0.11865677011E+03  0.69571352417E+02  0.49813816524E+03  0.51677967630E+03  0.00000000000E+00 0.  1.
<scales pt_clust_3="65.59338" pt_clust_4="14000.00000" pt_clust_5="38.02323" pt_clust_6="117.23158"></scales>
<clustering>
<clus scale="   38.023">  1  5  2 -1</clus>
<clus scale="   65.593">  2  3  1 -1</clus>
<clus scale="  117.232">  1  6  2 -1</clus>
<clus scale="   65.593">  2  3  1 -1</clus>
</clustering>
</event>
<event>
 6    0  0.1361744E+002  0.1044858E+03  0.7546771E-02  0.1271136E+00
         21   -1    0    0  504  502  0.00000000000E+00  0.00000000000E+00  0.12803795795E+03  0.12803795795E+03  0.00000000000E+00 0.  1.
          1   -1    0    0  503    0 -0.00000000000E+00 -0.00000000000E+00 -0.14813865547E+04  0.14813865547E+04  0.00000000000E+00 0.  1.
         21    1    1    2  503  505 -0.16332579131E+02  0.26334433560E+02 -0.31606591858E+03  0.31758136032E+03  0.00000000000E+00 0. -1.
         21    1    1    2  504  501 -0.40746967319E+02 -0.19717992052E+02  0.99163427923E+02  0.10900688049E+03  0.00000000000E+00 0.  1.
         21    1    1    2  505  502 -0.39715952963E+02 -0.57308704746E+02 -0.38856887717E+02  0.79821690551E+02  0.00000000000E+00 0. -1.
          1    1    1    2  501    0  0.96795499412E+02  0.50692263239E+02 -0.10975892184E+04  0.11030145813E+04  0.00000000000E+00 0.  1.
<scales pt_clust_3="30.98799" pt_clust_4="45.28099" pt_clust_5="14000.00000" pt_clust_6="104.48582"></scales>
<clustering>
<clus scale="   30.988">  2  3  1 -1</clus>
<clus scale="   45.281">  1  4  2 -1</clus>
<clus scale="  104.486">  2  6  1 -1</clus>
<clus scale="   45.281">  1  3  2 -1</clus>
</clustering>
</event>
<event>
 6    0  0.1361744E+002  0.7182224E+02  0.7546771E-02  0.1354004E+00
          1   -1    0    0  504    0 -0.00000000000E+00  0.00000000000E+00  0.85595983007E+03  0.85595983007E+03  0.00000000000E+00 0. -1.
         21   -1    0    0  503  502  0.00000000000E+00 -0.00000000000E+00 -0.30412438604E+03  0.30412438604E+03  0.00000000000E+00 0.  1.
         21    1    1    2  503  501 -0.44396829563E+02 -0.59546469220E+02 -0.27293457570E+03  0.28286064252E+03  0.00000000000E+00 0.  1.
         21    1    1    2  504  505 -0.25074694700E+02 -0.52022053573E+02  0.16556233342E+03  0.17534514712E+03  0.00000000000E+00 0. -1.
         21    1    1    2  505  502  0.35315961835E+02 -0.96978217829E+01  0.65898144009E+01  0.37211430522E+02  0.00000000000E+00 0.  1.
          1    1    1    2  501    0  0.34155562428E+02  0.12126634458E+03  0.65261787191E+03  0.66466699595E+03  0.00000000000E+00 0. -1.
<scales pt_clust_3="14000.00000" pt_clust_4="57.64124" pt_clust_5="36.62328" pt_clust_6="71.82224"></scales>
<clustering>
<clus scale="   36.623">  2  5  1 -1</clus>
<clus scale="   57.641">  1  4  2 -1</clus>
<clus scale="   71.822">  1  6  2 -1</clus>
<clus scale="   36.623">  2  3  1 -1</clus>
</clustering>
</event>
<event>
 6    0  0.1361744E+002  0.1773378E+03  0.7546771E-02  0.1170405E+00
          2   -1    0    0  504    0 -0.00000000000E+00  0.00000000000E+00  0.77063856735E+03  0.77063856735E+03  0.00000000000E+00 0.  1.
         21   -1    0    0  505  502  0.00000000000E+00 -0.00000000000E+00 -0.93312266153E+02  0.93312266153E+02  0.00000000000E+00 0.  1.
         21    1    1    2  503  502 -0.45267265258E+01  0.51275647523E+02 -0.45374081173E+01  0.51674668401E+02  0.00000000000E+00 0.  1.
         21    1    1    2  504  503 -0.83408757077E+02  0.89937047729E+02  0.16596703682E+02  0.12377860835E+03  0.00000000000E+00 0.  1.
         21    1    1    2  505  501  0.61378829250E+01 -0.48677707333E+02  0.12478201826E+03  0.13408111306E+03  0.00000000000E+00 0. -1.
          2    1    1    2  501    0  0.81797600678E+02 -0.92534987919E+02  0.54048498738E+03  0.55441644370E+03  0.00000000000E+00 0.  1.
<scales pt_clust_3="35.27277" pt_clust_4="175.03835" pt_clust_5="38.72528" pt_clust_6="38.72528"></scales>
<clustering>
<clus scale="   35.273">  3  4 -1 -1</clus>
<clus scale="   38.725">  5  6 -1 -1</clus>
<clus scale="  175.038">  2  3  1 -1</clus>
<clus scale="  175.038">  2  3  1 -1</clus>
</clustering>
</event>
<event>
 6    0  0.1361744E+002  0.2030814E+03  0.7546771E-02  0.1147165E+00
          2   -1    0    0  503    0 -0.00000000000E+00  0.00000000000E+00  0.16610175089E+03  0.16610175089E+03  0.00000000000E+00 0.  1.
         21   -1    0    0  505  502  0.00000000000E+00 -0.00000000000E+00 -0.98252143745E+03  0.98252143745E+03  0.00000000000E+00 0.  1.
         21    1    1    2  503  502 -0.20216541583E+03 -0.27565566786E+02  0.89359567338E+01  0.20423165071E+03  0.00000000000E+00 0.  1.
         21    1    1    2  504  501 -0.10335944120E+02 -0.47317526378E+02 -0.24299936455E+03  0.24777907744E+03  0.00000000000E+00 0.  1.
         21    1    1    2  505  504  0.14625970018E+02  0.36755629455E+02 -0.45823362696E+03  0.45993798731E+03  0.00000000000E+00 0.  1.
          2    1    1    2  501    0  0.19787538993E+03  0.38127463710E+02 -0.12412265178E+03  0.23667447288E+03  0.00000000000E+00 0.  1.
<scales pt_clust_3="14000.00000" pt_clust_4="30.28681" pt_clust_5="39.55876" pt_clust_6="203.08142"></scales>
<clustering>
<clus scale="   39.559">  2  5  1 -1</clus>
<clus scale="   30.287">  2  4  1 -1</clus>
<clus scale="  203.081">  2  6  1 -1</clus>
<clus scale="   39.559">  2  3  1 -1</clus>
</clustering>
</event>
<event>
 6    0  0.1361744E+002  0.1067162E+03  0.7546771E-02  0.1266775E+00
          2   -1    0    0  503    0 -0.00000000000E+00  0.00000000000E+00  0.26458355876E+03  0.26458355876E+03  0.00000000000E+00 0. -1.
         21   -1    0    0  505  502  0.00000000000E+00 -0.00000000000E+00 -0.25339967751E+03  0.25339967751E+03  0.00000000000E+00 0. -1.
         21    1    1    2  503  504 -0.13985326149E+02  0.50371960330E+02  0.39753397914E+02  0.65675386414E+02  0.00000000000E+00 0. -1.
         21    1    1    2  504  502 -0.19450118241E+02 -0.45683865186E+02 -0.16293071159E+03  0.17032832829E+03  0.00000000000E+00 0. -1.
         21    1    1    2  505  501  0.11751485991E+03 -0.19400000166E+02 -0.42653466628E+01  0.11918177498E+03  0.00000000000E+00 0. -1.
          2    1    1    2  501    0 -0.84079415516E+02  0.14711905023E+02  0.13862654158E+03  0.16279774659E+03  0.00000000000E+00 0. -1.
<scales pt_clust_3="46.70898" pt_clust_4="49.65202" pt_clust_5="14000.00000" pt_clust_6="106.71620"></scales>
<clustering>
<clus scale="   49.652">  2  4  1 -1</clus>
<clus scale="   46.709">  1  3  2 -1</clus>
<clus scale="  106.716">  1  6  2 -1</clus>
<clus scale="   49.652">  2  3  1 -1</clus>
</clustering>
</event>
<event>
 6    0  0.1361744E+002  0.1372913E+03  0.7546771E-02  0.1217021E+00
         21   -1    0    0  505  502  0.00000000000E+00  0.00000000000E+00  0.21224107415E+03  0.21224107415E+03  0.00000000000E+00 0. -1.
          1   -1    0    0  503    0 -0.00000000000E+00 -0.00000000000E+00 -0.12003339437E+04  0.12003339437E+04  0.00000000000E+00 0.  1.
         21    1    1    2  503  504  0.94177537923E+02  0.58816007088E+02 -0.66839399529E+02  0.12960029579E+03  0.00000000000E+00 0. -1.
         21    1    1    2  504  502  0.15802032464E+02  0.47657813516E+02  0.10965003380E+03  0.12059892757E+03  0.00000000000E+00 0. -1.
         21    1    1    2  505  501  0.28273298029E+02 -0.73960603212E+02  0.35344217095E+02  0.86710806080E+02  0.00000000000E+00 0.  1.
          1    1    1    2  501    0 -0.13825286842E+03 -0.32513217392E+02 -0.10662477209E+04  0.10756649884E+04  0.00000000000E+00 0.  1.
<scales pt_clust_3="137.29126" pt_clust_4="50.20928" pt_clust_5="58.28038" pt_clust_6="14000.00000"></scales>
<clustering>
<clus scale="   50.209">  1  4  2 -1</clus>
<clus scale="   58.280">  1  5  2 -1</clus>
<clus scale="  137.291">  1  3  2 -1</clus>
<clus scale="   50.209">  1  3  2 -1</clus>
</clustering>
</event>
<event>
 6    0  0.1361744E+002  0.3905436E+03  0.7546771E-02  0.1047104E+00
         21   -1    0    0  505  502  0.00000000000E+00  0.00000000000E+00  0.12692194356E+04  0.12692194356E+04  0.00000000000E+00 0.  1.
          1   -1    0    0  503    0 -0.00000000000E+00 -0.00000000000E+00 -0.88194942871E+03  0.88194942871E+03  0.00000000000E+00 0.  1.
         21    1    1    2  503  502  0.56537690797E+02 -0.42258417595E+02  0.94498277828E-01  0.70585361572E+02  0.00000000000E+00 0.  1.
         21    1    1    2  504  501 -0.96306198450E+01 -0.43764682333E+02  0.10064747443E+03  0.11017263892E+03  0.00000000000E+00 0. -1.
         21    1    1    2  505  504  0.15018613040E+03 -0.30713949327E+03  0.10417751690E+04  0.10964424494E+04  0.00000000000E+00 0.  1.
          1    1    1    2  501    0 -0.19709320135E+03  0.39316259320E+03 -0.75524713483E+03  0.87396841440E+03  0.00000000000E+00 0.  1.
<scales pt_clust_3="70.58530" pt_clust_4="32.18023" pt_clust_5="32.18023" pt_clust_6="380.29390"></scales>
<clustering>
<clus scale="   32.180">  4  5 -1 -1</clus>
<clus scale="   70.585">  2  3  1 -1</clus>
<clus scale="  380.294">  2  6  1 -1</clus>
<clus scale="  390.544">  1  3  2 -1</clus>
</clustering>
</event>
<event>
 6    0  0.1361744E+002  0.1036143E+03  0.7546771E-02  0.1272874E+00
          2   -1    0    0  504    0 -0.00000000000E+00  0.00000000000E+00  0.83236695651E+03  0.83236695651E+03  0.00000000000E+00 0. -1.
         21   -1    0    0  501  502  0.00000000000E+00 -0.00000000000E+00 -0.70629447165E+02  0.70629447165E+02  0.00000000000E+00 0. -1.
         21    1    1    2  503  502 -0.59049042851E+01 -0.55299768134E+02 -0.20920700736E+02  0.59418919290E+02  0.00000000000E+00 0. -1.
         21    1    1    2  504  505 -0.48801330695E+02 -0.74939805974E+01  0.85850717707E+02  0.99035727662E+02  0.00000000000E+00 0. -1.
         21    1    1    2  505  503 -0.22125996889E+02 -0.37065291975E+02  0.75001002816E+01  0.43813777648E+02  0.00000000000E+00 0. -1.
          2    1    1    2  501    0  0.76832231870E+02  0.99859040706E+02  0.68930739210E+03  0.70072797908E+03  0.00000000000E+00 0. -1.
<scales pt_clust_3="30.00426" pt_clust_4="49.37337" pt_clust_5="30.00426" pt_clust_6="97.85741"></scales>
<clustering>
<clus scale="   30.004">  3  5 -1 -1</clus>
<clus scale="   49.373">  1  4  2 -1</clus>
<clus scale="   97.857">  1  6  2 -1</clus>
<clus scale="  103.614">  2  3  1 -1</clus>
</clustering>
</event>
<event>
 6    0  0.1361744E+002  0.1380738E+03  0.7546771E-02  0.1215945E+00
         -1   -1    0    0    0  501 -0.00000000000E+00  0.00000000000E+00  0.12286353609E+04  0.12286353609E+04  0.00000000000E+00 0.  1.
         21   -1    0    0  503  502  0.00000000000E+00 -0.00000000000E+00 -0.62396108692E+03  0.62396108692E+03  0.00000000000E+00 0. -1.
         21    1    1    2  503  505 -0.39802487668E+02 -0.94929068840E+00 -0.10204415686E+03  0.10953606313E+03  0.00000000000E+00 0. -1.
         21    1    1    2  504  502 -0.66910538090E+02  0.91957116974E+02 -0.49565637563E+03  0.50853551908E+03  0.00000000000E+00 0. -1.
         21    1    1    2  505  501  0.12720539821E+03 -0.25702539039E+02  0.26925440492E+03  0.29889758851E+03  0.00000000000E+00 0.  1.
         -1    1    1    2    0  504 -0.20492372452E+02 -0.65305287246E+02  0.93312040155E+03  0.93562727711E+03  0.00000000000E+00 0.  1.
<scales pt_clust_3="39.81381" pt_clust_4="14000.00000" pt_clust_5="138.07376" pt_clust_6="68.47608"></scales>
<clustering>
<clus scale="   39.814">  2  3  1 -1</clus>
<clus scale="   68.476">  1  6  2 -1</clus>
<clus scale="  138.074">  1  5  2 -1</clus>
<clus scale="   39.814">  2  3  1 -1</clus>
</clustering>
</event>
<event>
 6    0  0.1361744E+002  0.2623845E+03  0.7546771E-02  0.1105719E+00
         21   -1    0    0  504  502  0.00000000000E+00  0.00000000000E+00  0.25662310186E+03  0.25662310186E+03  0.00000000000E+00 0. -1.
          2   -1    0    0  502    0 -0.00000000000E+00 -0.00000000000E+00 -0.10953961347E+04  0.10953961347E+04  0.00000000000E+00 0.  1.
         21    1    1    2  503  501 -0.20298166796E+03 -0.99162856524E+02 -0.23936491552E+03  0.32913582671E+03  0.00000000000E+00 0. -1.
         21    1    1    2  504  505  0.20264550335E+02  0.35862201065E+02  0.62115619670E+02  0.74532541030E+02  0.00000000000E+00 0. -1.
         21    1    1    2  505  503 -0.88208771494E+02 -0.22513331250E+02  0.10017583477E+03  0.13536186806E+03  0.00000000000E+00 0. -1.
          2    1    1    2  501    0  0.27092588912E+03  0.85813986710E+02 -0.76169957179E+03  0.81298900077E+03  0.00000000000E+00 0.  1.
<scales pt_clust_3="262.38447" pt_clust_4="41.19162" pt_clust_5="75.53465" pt_clust_6="14000.00000"></scales>
<clustering>
<clus scale="   41.192">  1  4  2 -1</clus>
<clus scale="   75.535">  1  5  2 -1</clus>
<clus scale="  262.384">  1  3  2 -1</clus>
<clus scale="   41.192">  1  3  2 -1</clus>
</clustering>
</event>
<event>
 6    0  0.1361744E+002  0.7984768E+02  0.7546771E-02  0.1329484E+00
          2   -1    0    0  505    0 -0.00000000000E+00  0.00000000000E+00  0.24960644131E+03  0.24960644131E+03  0.00000000000E+00 0. -1.
         21   -1    0    0  504  502  0.00000000000E+00 -0.00000000000E+00 -0.14423009459E+04  0.14423009459E+04  0.00000000000E+00 0. -1.
         21    1    1    2  503  502 -0.71765088212E+01 -0.39155362567E+02 -0.12515309213E+04  0.12521638438E+04  0.00000000000E+00 0. -1.
         21    1    1    2  504  501 -0.73831262104E+02  0.28023969497E+02 -0.14908976936E+03  0.16871324032E+03  0.00000000000E+00 0. -1.
         21    1    1    2  505  503  0.80773321712E+02 -0.56889943445E+02  0.15917265910E+03  0.18734121428E+03  0.00000000000E+00 0. -1.
          2    1    1    2  501    0  0.23444921292E+00  0.68021336514E+02  0.48753527010E+02  0.83689088796E+02  0.00000000000E+00 0. -1.
<scales pt_clust_3="39.80760" pt_clust_4="79.84768" pt_clust_5="14000.00000" pt_clust_6="64.43153"></scales>
<clustering>
<clus scale="   39.808">  2  3  1 -1</clus>
<clus scale="   64.432">  1  6  2 -1</clus>
<clus scale="   79.848">  2  4  1 -1</clus>
<clus scale="   39.808">  2  3  1 -1</clus>
</clustering>
</event>
<event>
 6    0  0.1361744E+002  0.8284676E+02  0.7546771E-02  0.1321162E+00
         -3   -1    0    0    0  501 -0.00000000000E+00  0.00000000000E+00  0.31393713740E+03  0.31393713740E+03  0.00000000000E+00 0.  1.
         21   -1    0    0  505  502  0.00000000000E+00 -0.00000000000E+00 -0.93058136035E+03  0.93058136035E+03  0.00000000000E+00 0. -1.
         21    1    1    2  503  504  0.48090951142E+02 -0.65734158465E+02 -0.31347251746E+03  0.32388074715E+03  0.00000000000E+00 0. -1.
         21    1    1    2  504  502 -0.96137962791E+02  0.10223790506E+02 -0.59435384896E+03  0.60216570108E+03  0.00000000000E+00 0. -1.
         21    1    1    2  505  501  0.19018305213E+02  0.27860643783E+02  0.11065960221E+02  0.35501646170E+02  0.00000000000E+00 0. -1.
         -3    1    1    2    0  503  0.29028706436E+02  0.27649724176E+02  0.28011618326E+03  0.28297040334E+03  0.00000000000E+00 0.  1.
<scales pt_clust_3="14000.00000" pt_clust_4="82.84676" pt_clust_5="33.73294" pt_clust_6="72.36577"></scales>
<clustering>
<clus scale="   33.733">  1  5  2 -1</clus>
<clus scale="   72.366">  1  6  2 -1</clus>
<clus scale="   82.847">  2  4  1 -1</clus>
<clus scale="   82.847">  2  3  1 -1</clus>
</clustering>
</event>
<event>
 6    0  0.1361744E+002  0.1808262E+03  0.7546771E-02  0.1167006E+00
          1   -1    0    0  505    0 -0.00000000000E+00  0.00000000000E+00  0.51688321625E+03  0.51688321625E+03  0.00000000000E+00 0.  1.
         21   -1    0    0  504  502  0.00000000000E+00 -0.00000000000E+00 -0.14292767447E+03  0.14292767447E+03  0.00000000000E+00 0.  1.
         21    1    1    2  503  501  0.25928488530E+02 -0.96705990324E+02 -0.33018188035E+02  0.10542549892E+03  0.00000000000E+00 0.  1.
         21    1    1    2  504  503 -0.21813251582E+02 -0.82571547277E+02 -0.16402146579E+02  0.86964985924E+02  0.00000000000E+00 0.  1.
         21    1    1    2  505  502 -0.29988762884E+02  0.33100064046E+02  0.59269273621E+02  0.74214465805E+02  0.00000000000E+00 0.  1.
          1    1    1    2  501    0  0.25873525936E+02  0.14617747355E+03  0.36410660277E+03  0.39320594006E+03  0.00000000000E+00 0.  1.
<scales pt_clust_3="45.61608" pt_clust_4="45.61608" pt_clust_5="44.66475" pt_clust_6="174.02226"></scales>
<clustering>
<clus scale="   44.665">  1  5  2 -1</clus>
<clus scale="   45.616">  3  4 -1 -1</clus>
<clus scale="  174.022">  1  6  2 -1</clus>
<clus scale="  180.826">  2  3  1 -1</clus>
</clustering>
</event>
<event>
 6    0  0.1361744E+002  0.2018315E+03  0.7546771E-02  0.1148203E+00
         -2   -1    0    0    0  501 -0.00000000000E+00  0.00000000000E+00  0.55312171925E+03  0.55312171925E+03  0.00000000000E+00 0.  1.
         21   -1    0    0  504  502  0.00000000000E+00 -0.00000000000E+00 -0.16986194648E+03  0.16986194648E+03  0.00000000000E+00 0.  1.
         21    1    1    2  503  505 -0.45148045657E+02  0.13275952481E+02  0.51594983253E+01  0.47341497271E+02  0.00000000000E+00 0.  1.
         21    1    1    2  504  501  0.15832927786E+02 -0.27992193637E+02  0.28479790919E+02  0.42957455670E+02  0.00000000000E+00 0. -1.
         21    1    1    2  505  502 -0.12464569302E+03  0.86377299312E+02 -0.79470373578E+02  0.17121076748E+03  0.00000000000E+00 0.  1.
         -2    1    1    2    0  503  0.15396081089E+03 -0.71661058156E+02  0.42909085710E+03  0.46147394530E+03  0.00000000000E+00 0.  1.
<scales pt_clust_3="32.74384" pt_clust_4="32.15967" pt_clust_5="32.74384" pt_clust_6="193.01209"></scales>
<clustering>
<clus scale="   32.160">  1  4  2 -1</clus>
<clus scale="   32.744">  3  5 -1 -1</clus>
<clus scale="  193.012">  1  6  2 -1</clus>
<clus scale="  201.832">  2  3  1 -1</clus>
</clustering>
</event>
<event>
 6    0  0.1361744E+002  0.1266428E+03  0.7546771E-02  0.1232524E+00
         21   -1    0    0  503  502  0.00000000000E+00  0.00000000000E+00  0.29673265459E+03  0.29673265459E+03  0.00000000000E+00 0. -1.
          1   -1    0    0  504    0 -0.00000000000E+00 -0.00000000000E+00 -0.86530399403E+03  0.86530399403E+03  0.00000000000E+00 0. -1.
         21    1    1    2  503  501 -0.10793958411E+03  0.20101292597E+03  0.17955176215E+03  0.29033770942E+03  0.00000000000E+00 0. -1.
         21    1    1    2  504  505  0.59272923050E+02  0.33151532218E+02 -0.16634675769E+03  0.17967622906E+03  0.00000000000E+00 0. -1.
         21    1    1    2  505  502  0.52432890542E+02 -0.94702731387E+02 -0.16152520775E+02  0.10944733560E+03  0.00000000000E+00 0.  1.
          1    1    1    2  501    0 -0.37662294821E+01 -0.13946172680E+03 -0.56562382312E+03  0.58257537453E+03  0.00000000000E+00 0. -1.
<scales pt_clust_3="126.64283" pt_clust_4="67.91394" pt_clust_5="108.39751" pt_clust_6="14000.00000"></scales>
<clustering>
<clus scale="   67.914">  2  4  1 -1</clus>
<clus scale="  108.398">  1  5  2 -1</clus>
<clus scale="  126.643">  1  3  2 -1</clus>
<clus scale="  108.398">  1  3  2 -1</clus>
</clustering>
</event>
<event>
 6    0  0.1361744E+002  0.1192657E+03  0.7546771E-02  0.1244313E+00
         21   -1    0    0  501  502  0.00000000000E+00  0.00000000000E+00  0.38950390094E+03  0.38950390094E+03  0.00000000000E+00 0.  1.
          1   -1    0    0  505    0 -0.00000000000E+00 -0.00000000000E+00 -0.15089404595E+03  0.15089404595E+03  0.00000000000E+00 0.  1.
         21    1    1    2  503  504 -0.14603548318E+02 -0.52186871611E+02  0.87868610895E+02  0.10323577855E+03  0.00000000000E+00 0.  1.
         21    1    1    2  504  502 -0.33973860218E+02 -0.83921120696E+01  0.17728273526E+03  0.18070367717E+03  0.00000000000E+00 0.  1.
         21    1    1    2  505  503 -0.91402411644E+02 -0.18932728830E+02 -0.27002577522E+00  0.93343033962E+02  0.00000000000E+00 0.  1.
          1    1    1    2  501    0  0.13997982018E+03  0.79511712510E+02 -0.26271465391E+02  0.16311545720E+03  0.00000000000E+00 0.  1.
<scales pt_clust_3="63.53767" pt_clust_4="34.99501" pt_clust_5="119.26569" pt_clust_6="14000.00000"></scales>
<clustering>
<clus scale="   34.995">  1  4  2 -1</clus>
<clus scale="   63.538">  1  3  2 -1</clus>
<clus scale="  119.266">  2  5  1 -1</clus>
<clus scale="   34.995">  1  3  2 -1</clus>
</clustering>
</event>
<event>
 6    0  0.1361744E+002  0.2465568E+03  0.7546771E-02  0.1115500E+00
         -1   -1    0    0    0  501 -0.00000000000E+00  0.00000000000E+00  0.16966293504E+03  0.16966293504E+03  0.00000000000E+00 0.  1.
         21   -1    0    0  504  502  0.00000000000E+00 -0.00000000000E+00 -0.10137918749E+04  0.10137918749E+04  0.00000000000E+00 0.  1.
         21    1    1    2  503  502 -0.17522857945E+03  0.71319011881E+02  0.85964129891E+01  0.18938150604E+03  0.00000000000E+00 0.  1.
         21    1    1    2  504  505  0.20519890885E+02  0.34003775830E+02 -0.17584331853E+03  0.18027255854E+03  0.00000000000E+00 0. -1.
         21    1    1    2  505  501  0.20213098742E+03 -0.12079973644E+03 -0.71386689648E+03  0.75170170832E+03  0.00000000000E+00 0.  1.
         -1    1    1    2    0  503 -0.47422298855E+02  0.15476948728E+02  0.36984862161E+02  0.62099037027E+02  0.00000000000E+00 0.  1.
<scales pt_clust_3="32.71027" pt_clust_4="39.71552" pt_clust_5="238.18567" pt_clust_6="32.71027"></scales>
<clustering>
<clus scale="   32.710">  3  6 -1 -1</clus>
<clus scale="   39.716">  2  4  1 -1</clus>
<clus scale="  238.186">  2  5  1 -1</clus>
<clus scale="   39.716">  2  3  1 -1</clus>
</clustering>
</event>
<event>
 6    0  0.1361744E+002  0.3817727E+03  0.7546771E-02  0.1050281E+00
         21   -1    0    0  503  502  0.00000000000E+00  0.00000000000E+00  0.46073588533E+03  0.46073588533E+03  0.00000000000E+00 0. -1.
          2   -1    0    0  504    0 -0.00000000000E+00 -0.00000000000E+00 -0.24076954070E+04  0.24076954070E+04  0.00000000000E+00 0. -1.
         21    1    1    2  503  501 -0.18036689363E+03  0.25949773729E+03  0.31180060967E+03  0.44394922251E+03  0.00000000000E+00 0. -1.
         21    1    1    2  504  505 -0.63221094576E+02  0.12072480547E+01 -0.24897583489E+03  0.25687999262E+03  0.00000000000E+00 0.  1.
         21    1    1    2  505  502 -0.17162022274E+03 -0.11216561989E+03 -0.14432004812E+03  0.25072475631E+03  0.00000000000E+00 0. -1.
          2    1    1    2  501    0  0.41520821095E+03 -0.14853936546E+03 -0.18654642483E+04  0.19168773209E+04  0.00000000000E+00 0. -1.
<scales pt_clust_3="381.77266" pt_clust_4="63.23262" pt_clust_5="209.83944" pt_clust_6="14000.00000"></scales>
<clustering>
<clus scale="   63.233">  2  4  1 -1</clus>
<clus scale="  209.839">  1  5  2 -1</clus>
<clus scale="  381.773">  1  3  2 -1</clus>
<clus scale="  209.839">  1  3  2 -1</clus>
</clustering>
</event>
<event>
 6    0  0.1361744E+002  0.1450052E+03  0.7546771E-02  0.1206748E+00
          2   -1    0    0  504    0 -0.00000000000E+00  0.00000000000E+00  0.96151069215E+03  0.96151069215E+03  0.00000000000E+00 0. -1.
         21   -1    0    0  505  502  0.00000000000E+00 -0.00000000000E+00 -0.30133471473E+03  0.30133471473E+03  0.00000000000E+00 0. -1.
         21    1    1    2  503  502 -0.80902743458E+02  0.82558843776E+02 -0.25627710585E+03  0.28113906091E+03  0.00000000000E+00 0. -1.
         21    1    1    2  504  503  0.37517250121E+02  0.14091151817E+02  0.29911903344E+02  0.50008265095E+02  0.00000000000E+00 0.  1.
         21    1    1    2  505  501 -0.25260172858E+02  0.19540089597E+02 -0.29091946709E+01  0.32067972307E+02  0.00000000000E+00 0. -1.
          2    1    1    2  501    0  0.68645666194E+02 -0.11619008519E+03  0.88945037459E+03  0.89963010857E+03  0.00000000000E+00 0. -1.
<scales pt_clust_3="14000.00000" pt_clust_4="39.49405" pt_clust_5="31.93574" pt_clust_6="145.00522"></scales>
<clustering>
<clus scale="   31.936">  2  5  1 -1</clus>
<clus scale="   39.494">  1  4  2 -1</clus>
<clus scale="  145.005">  1  6  2 -1</clus>
<clus scale="   31.936">  2  3  1 -1</clus>
</clustering>
</event>
<event>
 6    0  0.1361744E+002  0.9412621E+02  0.7546771E-02  0.1293156E+00
         21   -1    0    0  501  502  0.00000000000E+00  0.00000000000E+00  0.21885051949E+03  0.21885051949E+03  0.00000000000E+00 0.  1.
          1   -1    0    0  504    0 -0.00000000000E+00 -0.00000000000E+00 -0.48322798899E+03  0.48322798899E+03  0.00000000000E+00 0.  1.
         21    1    1    2  503  502 -0.66243041486E+02  0.70190685402E+02  0.16160227299E+03  0.18822902937E+03  0.00000000000E+00 0.  1.
         21    1    1    2  504  505  0.31806555788E+02 -0.31480951817E+02 -0.22101163353E+02  0.49911609270E+02  0.00000000000E+00 0.  1.
         21    1    1    2  505  503  0.72121563695E+02  0.32930644342E+02 -0.35673543284E+02  0.86939915902E+02  0.00000000000E+00 0.  1.
          1    1    1    2  501    0 -0.37685077998E+02 -0.71640377928E+02 -0.36820503585E+03  0.37699795394E+03  0.00000000000E+00 0.  1.
<scales pt_clust_3="94.12621" pt_clust_4="44.75162" pt_clust_5="81.65953" pt_clust_6="14000.00000"></scales>
<clustering>
<clus scale="   44.752">  2  4  1 -1</clus>
<clus scale="   81.660">  2  5  1 -1</clus>
<clus scale="   94.126">  1  3  2 -1</clus>
<clus scale="   94.126">  1  3  2 -1</clus>
</clustering>
</event>
<event>
 6    0  0.1361744E+002  0.1195536E+03  0.7546771E-02  0.1243835E+00
         21   -1    0    0  503  502  0.00000000000E+00  0.00000000000E+00  0.11571354342E+03  0.11571354342E+03  0.00000000000E+00 0. -1.
          2   -1    0    0  502    0 -0.00000000000E+00 -0.00000000000E+00 -0.17652600779E+04  0.17652600779E+04  0.00000000000E+00 0. -1.
         21    1    1    2  503  504 -0.47473956829E+02  0.10690004622E+02  0.17193934844E+02  0.51610891982E+02  0.00000000000E+00 0.  1.
         21    1    1    2  504  505  0.70261180159E+02  0.11189140885E+03  0.20864315184E+02  0.13375963689E+03  0.00000000000E+00 0. -1.
         21    1    1    2  505  501 -0.16473862751E+02 -0.83377046639E+02 -0.48829433093E+03  0.49563542415E+03  0.00000000000E+00 0.  1.
          2    1    1    2  501    0 -0.63133605793E+01 -0.39204366835E+02 -0.11993104535E+04  0.11999676683E+04  0.00000000000E+00 0. -1.
<scales pt_clust_3="48.60297" pt_clust_4="14000.00000" pt_clust_5="119.55357" pt_clust_6="39.70946"></scales>
<clustering>
<clus scale="   39.709">  2  6  1 -1</clus>
<clus scale="   48.603">  1  3  2 -1</clus>
<clus scale="  119.554">  2  5  1 -1</clus>
<clus scale="   48.603">  1  3  2 -1</clus>
</clustering>
</event>
<event>
 6    0  0.1361744E+002  0.1314035E+03  0.7546771E-02  0.1225388E+00
          2   -1    0    0  503    0 -0.00000000000E+00  0.00000000000E+00  0.19094461395E+04  0.19094461395E+04  0.00000000000E+00 0.  1.
         21   -1    0    0  505  502  0.00000000000E+00 -0.00000000000E+00 -0.45075010310E+02  0.45075010310E+02  0.00000000000E+00 0.  1.
         21    1    1    2  503  502  0.32961660309E+02 -0.48191552483E+02  0.63422351395E+02  0.86204938592E+02  0.00000000000E+00 0.  1.
         21    1    1    2  504  501  0.14109626253E+02  0.40100461883E+02  0.37390814211E+03  0.37631692406E+03  0.00000000000E+00 0. -1.
         21    1    1    2  505  504 -0.14647061599E+02 -0.72730034580E+02  0.13049540419E+02  0.75329176609E+02  0.00000000000E+00 0.  1.
          2    1    1    2  501    0 -0.32424224963E+02  0.80821125180E+02  0.14139910953E+04  0.14166701105E+04  0.00000000000E+00 0.  1.
<scales pt_clust_3="58.38576" pt_clust_4="39.90078" pt_clust_5="118.34487" pt_clust_6="39.90078"></scales>
<clustering>
<clus scale="   39.901">  4  6 -1 -1</clus>
<clus scale="   58.386">  2  3  1 -1</clus>
<clus scale="  118.345">  2  5  1 -1</clus>
<clus scale="   58.386">  2  3  1 -1</clus>
</clustering>
</event>
<event>
 6    0  0.1361744E+002  0.1069877E+03  0.7546771E-02  0.1266252E+00
         21   -1    0    0  503  502  0.00000000000E+00  0.00000000000E+00  0.32705284529E+03  0.32705284529E+03  0.00000000000E+00 0.  1.
         -1   -1    0    0    0  501 -0.00000000000E+00 -0.00000000000E+00 -0.34408435555E+03  0.34408435555E+03  0.00000000000E+00 0. -1.
         21    1    1    2  503  505 -0.33760836477E+02 -0.11318006928E+03  0.25169852747E+03  0.27803178036E+03  0.00000000000E+00 0.  1.
         21    1    1    2  504  502  0.51769006362E+02  0.45103345949E+01  0.25611878809E+02  0.57933940605E+02  0.00000000000E+00 0.  1.
         21    1    1    2  505  501 -0.32110449188E+02  0.29090854954E+02 -0.17423435882E+02  0.46700480800E+02  0.00000000000E+00 0. -1.
         -1    1    1    2    0  504  0.14102279303E+02  0.79578879729E+02 -0.27691848066E+03  0.28847099908E+03  0.00000000000E+00 0. -1.
<scales pt_clust_3="14000.00000" pt_clust_4="50.46586" pt_clust_5="43.32850" pt_clust_6="106.98770"></scales>
<clustering>
<clus scale="   43.328">  2  5  1 -1</clus>
<clus scale="   50.466">  1  4  2 -1</clus>
<clus scale="  106.988">  2  6  1 -1</clus>
<clus scale="   50.466">  1  3  2 -1</clus>
</clustering>
</event>
<event>
 6    0  0.1361744E+002  0.2013859E+03  0.7546771E-02  0.1148575E+00
          1   -1    0    0  503    0 -0.00000000000E+00  0.00000000000E+00  0.18605076815E+04  0.18605076815E+04  0.00000000000E+00 0.  1.
         21   -1    0    0  504  502  0.00000000000E+00 -0.00000000000E+00 -0.20390462240E+04  0.20390462240E+04  0.00000000000E+00 0.  1.
         21    1    1    2  503  502 -0.71932114521E+02 -0.84725783762E+00  0.65506526227E+02  0.97293637631E+02  0.00000000000E+00 0.  1.
         21    1    1    2  504  505  0.38385368260E+02  0.69996709372E+02 -0.10084313173E+04  0.10115862284E+04  0.00000000000E+00 0.  1.
         21    1    1    2  505  501  0.25546739270E+02  0.11515093562E+03 -0.10048990678E+04  0.10117976627E+04  0.00000000000E+00 0.  1.
          1    1    1    2  501    0  0.80000069908E+01 -0.18430038715E+03  0.17692853163E+04  0.17788763767E+04  0.00000000000E+00 0.  1.
<scales pt_clust_3="71.93710" pt_clust_4="38.72902" pt_clust_5="38.72902" pt_clust_6="195.80637"></scales>
<clustering>
<clus scale="   38.729">  4  5 -1 -1</clus>
<clus scale="   71.937">  1  3  2 -1</clus>
<clus scale="  195.806">  1  6  2 -1</clus>
<clus scale="  201.386">  2  3  1 -1</clus>
</clustering>
</event>
<event>
 6    0  0.1361744E+002  0.3708788E+03  0.7546771E-02  0.1054357E+00
          1   -1    0    0  504    0 -0.00000000000E+00  0.00000000000E+00  0.24372561002E+04  0.24372561002E+04  0.00000000000E+00 0. -1.
         21   -1    0    0  503  502  0.00000000000E+00 -0.00000000000E+00 -0.79509997382E+02  0.79509997382E+02  0.00000000000E+00 0. -1.
         21    1    1    2  503  501  0.43915647346E+02 -0.23886665225E+02  0.24621065223E+03  0.25123463561E+03  0.00000000000E+00 0. -1.
         21    1    1    2  504  505 -0.38835664954E+02  0.50809725775E+02  0.42066383940E+03  0.42549724193E+03  0.00000000000E+00 0. -1.
         21    1    1    2  505  502 -0.21628663342E+03  0.26364895994E+03  0.58335146052E+03  0.67571414693E+03  0.00000000000E+00 0. -1.
          1    1    1    2  501    0  0.21120665103E+03 -0.29057202049E+03  0.11075201507E+04  0.11643200731E+04  0.00000000000E+00 0. -1.
<scales pt_clust_3="31.73424" pt_clust_4="63.95183" pt_clust_5="360.99123" pt_clust_6="31.73424"></scales>
<clustering>
<clus scale="   31.734">  3  6 -1 -1</clus>
<clus scale="   63.952">  1  4  2 -1</clus>
<clus scale="  360.991">  2  5  1 -1</clus>
<clus scale="  360.991">  2  3  1 -1</clus>
</clustering>
</event>
<event>
 6    0  0.1361744E+002  0.8618654E+02  0.7546771E-02  0.1312358E+00
         21   -1    0    0  505  502  0.00000000000E+00  0.00000000000E+00  0.18409625186E+02  0.18409625186E+02  0.00000000000E+00 0.  1.
          2   -1    0    0  503    0 -0.00000000000E+00 -0.00000000000E+00 -0.22532200000E+04  0.22532200000E+04  0.00000000000E+00 0.  1.
         21    1    1    2  503  504 -0.49624124149E+02  0.81072644421E+02 -0.16384975697E+04  0.16412524527E+04  0.00000000000E+00 0.  1.
         21    1    1    2  504  502 -0.12185181596E+02  0.33388932756E+02 -0.32580088746E+02  0.48215782310E+02  0.00000000000E+00 0.  1.
         21    1    1    2  505  501  0.36178358830E+02 -0.50578470341E+02 -0.14446053122E+03  0.15727650934E+03  0.00000000000E+00 0.  1.
          2    1    1    2  501    0  0.25630946914E+02 -0.63883106835E+02 -0.41927218517E+03  0.42488488092E+03  0.00000000000E+00 0.  1.
<scales pt_clust_3="14000.00000" pt_clust_4="35.54292" pt_clust_5="41.86462" pt_clust_6="86.18654"></scales>
<clustering>
<clus scale="   35.543">  1  4  2 -1</clus>
<clus scale="   41.865">  1  5  2 -1</clus>
<clus scale="   86.187">  1  6  2 -1</clus>
<clus scale="   35.543">  1  3  2 -1</clus>
</clustering>
</event>
<event>
 6    0  0.1361744E+002  0.2001891E+03  0.7546771E-02  0.1149580E+00
         21   -1    0    0  504  502  0.00000000000E+00  0.00000000000E+00  0.18760481096E+03  0.18760481096E+03  0.00000000000E+00 0. -1.
          1   -1    0    0  505    0 -0.00000000000E+00 -0.00000000000E+00 -0.13073224161E+04  0.13073224161E+04  0.00000000000E+00 0.  1.
         21    1    1    2  503  502  0.27472567746E+02 -0.18403320660E+03  0.59108433745E+02  0.19523516602E+03  0.00000000000E+00 0. -1.
         21    1    1    2  504  501  0.50786858314E+02 -0.13688952120E+02  0.27025361025E+02  0.59135966434E+02  0.00000000000E+00 0. -1.
         21    1    1    2  505  503  0.57941085116E+02  0.10723752878E+03 -0.39489769286E+03  0.41328107234E+03  0.00000000000E+00 0.  1.
          1    1    1    2  501    0 -0.13620051118E+03  0.90484629938E+02 -0.81095370704E+03  0.82727502227E+03  0.00000000000E+00 0.  1.
<scales pt_clust_3="200.18912" pt_clust_4="52.59936" pt_clust_5="122.70218" pt_clust_6="14000.00000"></scales>
<clustering>
<clus scale="   52.599">  1  4  2 -1</clus>
<clus scale="  122.702">  2  5  1 -1</clus>
<clus scale="  200.189">  1  3  2 -1</clus>
<clus scale="   52.599">  1  3  2 -1</clus>
</clustering>
</event>
<event>
 6    0  0.1386860E+002  0.1133827E+03  0.7546771E-02  0.1254431E+00
         21   -1    0    0  504  502  0.00000000000E+00  0.00000000000E+00  0.27529995140E+03  0.27529995140E+03  0.00000000000E+00 0.  1.
         -3   -1    0    0    0  501 -0.00000000000E+00 -0.00000000000E+00 -0.46066746661E+03  0.46066746661E+03  0.00000000000E+00 0. -1.
         21    1    1    2  503  502 -0.28039903405E+02  0.36845137039E+02  0.80059565792E+01  0.46988250097E+02  0.00000000000E+00 0. -1.
         21    1    1    2  504  505  0.74086856119E+02  0.70665397189E+02  0.22383922335E+03  0.24614316671E+03  0.00000000000E+00 0.  1.
         21    1    1    2  505  501 -0.13817459871E+02 -0.27744366406E+02 -0.21116070136E+02  0.37504139538E+02  0.00000000000E+00 0.  1.
         -3    1    1    2    0  503 -0.32229492844E+02 -0.79766167823E+02 -0.39609662500E+03  0.40533186166E+03  0.00000000000E+00 0. -1.
<scales pt_clust_3="45.69895" pt_clust_4="113.38267" pt_clust_5="30.99471" pt_clust_6="14000.00000"></scales>
<clustering>
<clus scale="   30.995">  2  5  1 -1</clus>
<clus scale="   45.699">  1  3  2 -1</clus>
<clus scale="  113.383">  1  4  2 -1</clus>
<clus scale="   45.699">  1  3  2 -1</clus>
</clustering>
</event>
<event>
 6    0  0.1361744E+002  0.8736431E+02  0.7546771E-02  0.1309363E+00
         21   -1    0    0  505  502  0.00000000000E+00  0.00000000000E+00  0.20340960594E+02  0.20340960594E+02  0.00000000000E+00 0. -1.
          2   -1    0    0  503    0 -0.00000000000E+00 -0.00000000000E+00 -0.23008626683E+04  0.23008626683E+04  0.00000000000E+00 0.  1.
         21    1    1    2  503  502  0.15270878908E+03 -0.14817204739E+02 -0.64207360602E+03  0.66015001278E+03  0.00000000000E+00 0. -1.
         21    1    1    2  504  501 -0.42382907821E+02 -0.44670895857E+01 -0.15291234480E+03  0.15874019956E+03  0.00000000000E+00 0. -1.
         21    1    1    2  505  504 -0.33206420478E+02 -0.39455900806E+00 -0.30460048909E+02  0.45062585560E+02  0.00000000000E+00 0. -1.
          2    1    1    2  501    0 -0.77119460780E+02  0.19678853333E+02 -0.14550757079E+04  0.14572508310E+04  0.00000000000E+00 0.  1.
<scales pt_clust_3="14000.00000" pt_clust_4="50.01130" pt_clust_5="33.20876" pt_clust_6="87.36431"></scales>
<clustering>
<clus scale="   33.209">  1  5  2 -1</clus>
<clus scale="   50.011">  1  4  2 -1</clus>
<clus scale="   87.364">  2  6  1 -1</clus>
<clus scale="   33.209">  1  3  2 -1</clus>
</clustering>
</event>
<event>
 6    0  0.1361744E+002  0.1584600E+03  0.7546771E-02  0.1190446E+00
          2   -1    0    0  504    0 -0.00000000000E+00  0.00000000000E+00  0.17456654195E+04  0.17456654195E+04  0.00000000000E+00 0.  1.
         21   -1    0    0  503  502  0.00000000000E+00 -0.00000000000E+00 -0.26226927217E+03  0.26226927217E+03  0.00000000000E+00 0.  1.
         21    1    1    2  503  505  0.10201551224E+03  0.18708576776E+02 -0.27315040968E+01  0.10375276717E+03  0.00000000000E+00 0.  1.
         21    1    1    2  504  502  0.22818956746E+02  0.60381708950E+02 -0.20008582374E+03  0.21024032065E+03  0.00000000000E+00 0.  1.
         21    1    1    2  505  501 -0.50249946981E+02 -0.19205626017E+02  0.32968359249E+03  0.33404368636E+03  0.00000000000E+00 0.  1.
          2    1    1    2  501    0 -0.74584522000E+02 -0.59884659709E+02  0.13565298827E+04  0.13598979175E+04  0.00000000000E+00 0.  1.
<scales pt_clust_3="144.31292" pt_clust_4="64.54964" pt_clust_5="49.08172" pt_clust_6="49.08172"></scales>
<clustering>
<clus scale="   49.082">  5  6 -1 -1</clus>
<clus scale="   64.550">  2  4  1 -1</clus>
<clus scale="  144.313">  2  3  1 -1</clus>
<clus scale="   64.550">  2  3  1 -1</clus>
</clustering>
</event>
<event>
 6    0  0.1361744E+002  0.1353118E+03  0.7546771E-02  0.1219780E+00
          4   -1    0    0  502    0 -0.00000000000E+00  0.00000000000E+00  0.91123089924E+02  0.91123089924E+02  0.00000000000E+00 0.  1.
         21   -1    0    0  505  502  0.00000000000E+00 -0.00000000000E+00 -0.54104532445E+03  0.54104532445E+03  0.00000000000E+00 0.  1.
         21    1    1    2  503  501 -0.18220544120E+02  0.39382824638E+02 -0.14356510619E+02  0.45706722719E+02  0.00000000000E+00 0. -1.
         21    1    1    2  504  503  0.86663871669E+01 -0.37286883543E+02 -0.87860682600E+02  0.95837975239E+02  0.00000000000E+00 0.  1.
         21    1    1    2  505  504  0.69967758260E+02 -0.58710132122E+02 -0.38795646768E+03  0.39856315388E+03  0.00000000000E+00 0.  1.
          4    1    1    2  501    0 -0.60413601307E+02  0.56614191027E+02  0.40251426383E+02  0.92060562535E+02  0.00000000000E+00 0.  1.
<scales pt_clust_3="39.05678" pt_clust_4="33.21171" pt_clust_5="134.27776" pt_clust_6="39.05678"></scales>
<clustering>
<clus scale="   33.212">  4  5 -1 -1</clus>
<clus scale="   39.057">  3  6 -1 -1</clus>
<clus scale="  134.278">  2  4  1 -1</clus>
<clus scale="  134.278">  2  3  1 -1</clus>
</clustering>
</event>
<event>
 6    0  0.1361744E+002  0.1216912E+03  0.7546771E-02  0.1240333E+00
         21   -1    0    0  504  502  0.00000000000E+00  0.00000000000E+00  0.16286568366E+03  0.16286568366E+03  0.00000000000E+00 0. -1.
         -1   -1    0    0    0  501 -0.00000000000E+00 -0.00000000000E+00 -0.80172869796E+03  0.80172869796E+03  0.00000000000E+00 0. -1.
         21    1    1    2  503  505  0.78363662509E+02 -0.92450215171E+02 -0.67134511110E+02  0.13854583526E+03  0.00000000000E+00 0. -1.
         21    1    1    2  504  501 -0.15045042963E+02 -0.38982368989E+02  0.56833170101E+02  0.70540680699E+02  0.00000000000E+00 0. -1.
         21    1    1    2  505  502 -0.53468069214E+02  0.68316036735E+01  0.45141504552E+02  0.70308325733E+02  0.00000000000E+00 0. -1.
         -1    1    1    2    0  503 -0.98505503320E+01  0.12460098049E+03 -0.67370317784E+03  0.68519953993E+03  0.00000000000E+00 0. -1.
<scales pt_clust_3="14000.00000" pt_clust_4="41.78491" pt_clust_5="64.21346" pt_clust_6="121.69121"></scales>
<clustering>
<clus scale="   41.785">  1  4  2 -1</clus>
<clus scale="   64.213">  1  5  2 -1</clus>
<clus scale="  121.691">  2  6  1 -1</clus>
<clus scale="   41.785">  1  3  2 -1</clus>
</clustering>
</event>
<event>
 6    0  0.1361744E+002  0.1250208E+03  0.7546771E-02  0.1235037E+00
         21   -1    0    0  501  502  0.00000000000E+00  0.00000000000E+00  0.52992994269E+02  0.52992994269E+02  0.00000000000E+00 0. -1.
          1   -1    0    0  505    0 -0.00000000000E+00 -0.00000000000E+00 -0.14636444310E+04  0.14636444310E+04  0.00000000000E+00 0.  1.
         21    1    1    2  503  504  0.41562593286E+02 -0.70354776415E+02 -0.18056209354E+03  0.19819160767E+03  0.00000000000E+00 0.  1.
         21    1    1    2  504  502  0.72863130252E+02  0.10954244628E+03 -0.76068704060E+02  0.15197049393E+03  0.00000000000E+00 0. -1.
         21    1    1    2  505  503 -0.72575771463E+02  0.26875647346E+02 -0.33951632819E+03  0.34822532954E+03  0.00000000000E+00 0. -1.
          1    1    1    2  501    0 -0.41849952075E+02 -0.66063317210E+02 -0.81450431090E+03  0.81824999410E+03  0.00000000000E+00 0.  1.
<scales pt_clust_3="72.03273" pt_clust_4="125.02082" pt_clust_5="77.39214" pt_clust_6="14000.00000"></scales>
<clustering>
<clus scale="   77.392">  2  5  1 -1</clus>
<clus scale="   72.033">  2  3  1 -1</clus>
<clus scale="  125.021">  1  4  2 -1</clus>
<clus scale="  125.021">  1  3  2 -1</clus>
</clustering>
</event>
<event>
 6    0  0.1361744E+002  0.1187795E+03  0.7546771E-02  0.1245124E+00
          3   -1    0    0  503    0 -0.00000000000E+00  0.00000000000E+00  0.15600732054E+03  0.15600732054E+03  0.00000000000E+00 0.  1.
         21   -1    0    0  505  502  0.00000000000E+00 -0.00000000000E+00 -0.92437185884E+03  0.92437185884E+03  0.00000000000E+00 0.  1.
         21    1    1    2  503  502  0.13377732401E+03 -0.10289007920E+03 -0.22501843435E+02  0.17026178014E+03  0.00000000000E+00 0.  1.
         21    1    1    2  504  501 -0.76490992064E+02 -0.20965690072E+02 -0.19446421182E+03  0.21001609868E+03  0.00000000000E+00 0.  1.
         21    1    1    2  505  504 -0.41727609951E+02  0.14726430205E+02 -0.58358915045E+03  0.58526434857E+03  0.00000000000E+00 0.  1.
          3    1    1    2  501    0 -0.15558721996E+02  0.10912933907E+03  0.32190667402E+02  0.11483695199E+03  0.00000000000E+00 0.  1.
<scales pt_clust_3="118.77951" pt_clust_4="102.04803" pt_clust_5="44.24999" pt_clust_6="14000.00000"></scales>
<clustering>
<clus scale="   44.250">  2  5  1 -1</clus>
<clus scale="  102.048">  2  4  1 -1</clus>
<clus scale="  118.780">  2  3  1 -1</clus>
<clus scale="   44.250">  2  3  1 -1</clus>
</clustering>
</event>
<event>
 6    0  0.1361744E+002  0.2362666E+03  0.7546771E-02  0.1122305E+00
         21   -1    0    0  504  502  0.00000000000E+00  0.00000000000E+00  0.65751595395E+03  0.65751595395E+03  0.00000000000E+00 0. -1.
          4   -1    0    0  502    0 -0.00000000000E+00 -0.00000000000E+00 -0.25266914048E+03  0.25266914048E+03  0.00000000000E+00 0.  1.
         21    1    1    2  503  501 -0.16043119996E+03 -0.77587099769E+02 -0.11075978989E+03  0.20982292303E+03  0.00000000000E+00 0.  1.
         21    1    1    2  504  505  0.67347478258E+02  0.25879348123E+02  0.28042805098E+03  0.28956055544E+03  0.00000000000E+00 0. -1.
         21    1    1    2  505  503  0.12345923168E+03  0.91030532450E+02  0.29532540836E+03  0.33278497043E+03  0.00000000000E+00 0. -1.
          4    1    1    2  501    0 -0.30375509973E+02 -0.39322780804E+02 -0.60146855977E+02  0.78016645533E+02  0.00000000000E+00 0.  1.
<scales pt_clust_3="31.53857" pt_clust_4="51.99085" pt_clust_5="51.99085" pt_clust_6="231.60858"></scales>
<clustering>
<clus scale="   31.539">  3  6 -1 -1</clus>
<clus scale="   51.991">  4  5 -1 -1</clus>
<clus scale="  231.609">  2  3  1 -1</clus>
<clus scale="  236.267">  1  3  2 -1</clus>
</clustering>
</event>
<event>
 6    0  0.1361744E+002  0.1102834E+03  0.7546771E-02  0.1260046E+00
          2   -1    0    0  502    0 -0.00000000000E+00  0.00000000000E+00  0.57018802660E+03  0.57018802660E+03  0.00000000000E+00 0. -1.
         21   -1    0    0  503  502  0.00000000000E+00 -0.00000000000E+00 -0.46417379237E+03  0.46417379237E+03  0.00000000000E+00 0.  1.
         21    1    1    2  503  505 -0.30072421417E+02  0.97263295329E+00 -0.29471703025E+02  0.42117428980E+02  0.00000000000E+00 0.  1.
         21    1    1    2  504  501  0.40255930167E+02 -0.78492792789E+02  0.10810725095E+03  0.13953077130E+03  0.00000000000E+00 0.  1.
         21    1    1    2  505  504  0.20589865007E+02  0.11236459412E+03 -0.40348739369E+03  0.41934689866E+03  0.00000000000E+00 0.  1.
          2    1    1    2  501    0 -0.30773373757E+02 -0.34844434286E+02  0.43086607999E+03  0.43336672002E+03  0.00000000000E+00 0. -1.
<scales pt_clust_3="30.08815" pt_clust_4="110.28337" pt_clust_5="14000.00000" pt_clust_6="46.54403"></scales>
<clustering>
<clus scale="   30.088">  2  3  1 -1</clus>
<clus scale="   46.544">  1  6  2 -1</clus>
<clus scale="  110.283">  1  4  2 -1</clus>
<clus scale="   30.088">  2  3  1 -1</clus>
</clustering>
</event>
<event>
 6    0  0.1361744E+002  0.1247947E+03  0.7546771E-02  0.1235390E+00
         21   -1    0    0  503  502  0.00000000000E+00  0.00000000000E+00  0.83374142207E+02  0.83374142207E+02  0.00000000000E+00 0.  1.
          1   -1    0    0  502    0 -0.00000000000E+00 -0.00000000000E+00 -0.61543166141E+03  0.61543166141E+03  0.00000000000E+00 0. -1.
         21    1    1    2  503  504 -0.51382267840E+02 -0.45162617416E+01 -0.22547295681E+02  0.56293113353E+02  0.00000000000E+00 0.  1.
         21    1    1    2  504  505 -0.32993210096E+02 -0.10514775700E+03 -0.63182780770E+01  0.11038352845E+03  0.00000000000E+00 0.  1.
         21    1    1    2  505  501  0.99885631894E+02  0.61677885865E+02 -0.40601572672E+03  0.42264650881E+03  0.00000000000E+00 0.  1.
          1    1    1    2  501    0 -0.15510153958E+02  0.47986132876E+02 -0.97176218726E+02  0.10948265301E+03  0.00000000000E+00 0. -1.
<scales pt_clust_3="52.58263" pt_clust_4="124.79470" pt_clust_5="14000.00000" pt_clust_6="50.43049"></scales>
<clustering>
<clus scale="   50.430">  2  6  1 -1</clus>
<clus scale="   52.583">  1  3  2 -1</clus>
<clus scale="  124.795">  1  4  2 -1</clus>
<clus scale="   52.583">  1  3  2 -1</clus>
</clustering>
</event>
<event>
 6    0  0.1361744E+002  0.3120370E+03  0.7546771E-02  0.1079374E+00
         21   -1    0    0  505  502  0.00000000000E+00  0.00000000000E+00  0.56510444492E+03  0.56510444492E+03  0.00000000000E+00 0.  1.
          2   -1    0    0  502    0 -0.00000000000E+00 -0.00000000000E+00 -0.82272205253E+03  0.82272205253E+03  0.00000000000E+00 0. -1.
         21    1    1    2  503  504  0.35568640456E+02 -0.52437758355E+02  0.47400663977E+02  0.79130712310E+02  0.00000000000E+00 0. -1.
         21    1    1    2  504  501 -0.31641812907E+02  0.23339627759E+02 -0.42276401569E+02  0.57734189849E+02  0.00000000000E+00 0.  1.
         21    1    1    2  505  503  0.19678629176E+03 -0.13116674302E+03  0.44177043549E+03  0.50108948979E+03  0.00000000000E+00 0.  1.
          2    1    1    2  501    0 -0.20071311931E+03  0.16026487361E+03 -0.70451230551E+03  0.74987210549E+03  0.00000000000E+00 0. -1.
<scales pt_clust_3="50.89420" pt_clust_4="32.34700" pt_clust_5="50.89420" pt_clust_6="307.46472"></scales>
<clustering>
<clus scale="   32.347">  4  6 -1 -1</clus>
<clus scale="   50.894">  3  5 -1 -1</clus>
<clus scale="  307.465">  2  4  1 -1</clus>
<clus scale="  312.037">  1  3  2 -1</clus>
</clustering>
</event>
<event>
 6    0  0.1361744E+002  0.1040756E+03  0.7546771E-02  0.1271952E+00
         21   -1    0    0  505  502  0.00000000000E+00  0.00000000000E+00  0.45021555043E+03  0.45021555043E+03  0.00000000000E+00 0.  1.
          2   -1    0    0  503    0 -0.00000000000E+00 -0.00000000000E+00 -0.72901594327E+03  0.72901594327E+03  0.00000000000E+00 0. -1.
         21    1    1    2  503  504  0.71296855502E+02  0.10162438854E+03  0.37298693635E+03  0.39310305600E+03  0.00000000000E+00 0.  1.
         21    1    1    2  504  502 -0.50367574839E+02  0.27713858593E+01  0.46529891962E+02  0.68626554778E+02  0.00000000000E+00 0.  1.
         21    1    1    2  505  501 -0.30244373822E+02 -0.75181613794E+02 -0.17032751587E+03  0.18862253276E+03  0.00000000000E+00 0.  1.
          2    1    1    2  501    0  0.93150931595E+01 -0.29214160606E+02 -0.52798970528E+03  0.52887935016E+03  0.00000000000E+00 0. -1.
<scales pt_clust_3="14000.00000" pt_clust_4="49.86803" pt_clust_5="104.07556" pt_clust_6="30.66330"></scales>
<clustering>
<clus scale="   30.663">  2  6  1 -1</clus>
<clus scale="   49.868">  1  4  2 -1</clus>
<clus scale="  104.076">  2  5  1 -1</clus>
<clus scale="   49.868">  1  3  2 -1</clus>
</clustering>
</event>
<event>
 6    0  0.1383020E+002  0.6785401E+02  0.7546771E-02  0.1367546E+00
         21   -1    0    0  501  502  0.00000000000E+00  0.00000000000E+00  0.79908975275E+03  0.79908975275E+03  0.00000000000E+00 0.  1.
          2   -1    0    0  504    0 -0.00000000000E+00 -0.00000000000E+00 -0.11791420434E+04  0.11791420434E+04  0.00000000000E+00 0.  1.
         21    1    1    2  503  502  0.34302882070E+02 -0.16629234209E+02  0.58778386166E+03  0.58901874942E+03  0.00000000000E+00 0.  1.
         21    1    1    2  504  505  0.19418182576E+02  0.24750673140E+02 -0.35053552632E+02  0.47100033838E+02  0.00000000000E+00 0. -1.
         21    1    1    2  505  503 -0.81122550947E+02  0.63966646806E+02  0.19022129827E+03  0.21646418293E+03  0.00000000000E+00 0.  1.
          2    1    1    2  501    0  0.27401486302E+02 -0.72088085737E+02 -0.11230038979E+04  0.11256488299E+04  0.00000000000E+00 0.  1.
<scales pt_clust_3="38.12474" pt_clust_4="31.45889" pt_clust_5="14000.00000" pt_clust_6="67.85401"></scales>
<clustering>
<clus scale="   31.459">  2  4  1 -1</clus>
<clus scale="   38.125">  1  3  2 -1</clus>
<clus scale="   67.854">  2  6  1 -1</clus>
<clus scale="   38.125">  1  3  2 -1</clus>
</clustering>
</event>
<event>
 6    0  0.1361744E+002  0.1262174E+03  0.7546771E-02  0.1233179E+00
          1   -1    0    0  502    0 -0.00000000000E+00  0.00000000000E+00  0.23874117817E+04  0.23874117817E+04  0.00000000000E+00 0. -1.
         21   -1    0    0  503  502  0.00000000000E+00 -0.00000000000E+00 -0.11714600411E+03  0.11714600411E+03  0.00000000000E+00 0. -1.
         21    1    1    2  503  504 -0.28293947912E+02 -0.26076203836E+02 -0.61440162209E+01  0.38964917943E+02  0.00000000000E+00 0. -1.
         21    1    1    2  504  505  0.12250724791E+03 -0.46577425739E+02 -0.46646444564E+02  0.13911640151E+03  0.00000000000E+00 0. -1.
         21    1    1    2  505  501 -0.42425098741E+02  0.46048341788E+02  0.15328335277E+04  0.15341117829E+04  0.00000000000E+00 0. -1.
          1    1    1    2  501    0 -0.51788201257E+02  0.26605287788E+02  0.79022271066E+03  0.79236468344E+03  0.00000000000E+00 0. -1.
<scales pt_clust_3="38.47747" pt_clust_4="119.09266" pt_clust_5="40.36627" pt_clust_6="40.36627"></scales>
<clustering>
<clus scale="   38.477">  2  3  1 -1</clus>
<clus scale="   40.366">  5  6 -1 -1</clus>
<clus scale="  119.093">  2  4  1 -1</clus>
<clus scale="   38.477">  2  3  1 -1</clus>
</clustering>
</event>
<event>
 6    0  0.1361744E+002  0.9602177E+02  0.7546771E-02  0.1288891E+00
         21   -1    0    0  503  502  0.00000000000E+00  0.00000000000E+00  0.49928804431E+03  0.49928804431E+03  0.00000000000E+00 0. -1.
          3   -1    0    0  504    0 -0.00000000000E+00 -0.00000000000E+00 -0.38975940694E+03  0.38975940694E+03  0.00000000000E+00 0.  1.
         21    1    1    2  503  501  0.83475718346E+02  0.59520484665E+02  0.38669057951E+03  0.40005060672E+03  0.00000000000E+00 0. -1.
         21    1    1    2  504  505 -0.25558483158E+02  0.17156953555E+02 -0.22898775560E+03  0.23104759105E+03  0.00000000000E+00 0.  1.
         21    1    1    2  505  502 -0.86599059814E+02 -0.56182480977E+01  0.73788686512E+02  0.11391107115E+03  0.00000000000E+00 0. -1.
          3    1    1    2  501    0  0.28681824627E+02 -0.71059190122E+02 -0.12196287306E+03  0.14403818234E+03  0.00000000000E+00 0.  1.
<scales pt_clust_3="96.02177" pt_clust_4="30.78307" pt_clust_5="14000.00000" pt_clust_6="57.25483"></scales>
<clustering>
<clus scale="   30.783">  2  4  1 -1</clus>
<clus scale="   57.255">  2  6  1 -1</clus>
<clus scale="   96.022">  1  3  2 -1</clus>
<clus scale="   96.022">  1  3  2 -1</clus>
</clustering>
</event>
<event>
 6    0  0.1361744E+002  0.1470940E+03  0.7546771E-02  0.1204090E+00
          2   -1    0    0  503    0 -0.00000000000E+00  0.00000000000E+00  0.14258598853E+04  0.14258598853E+04  0.00000000000E+00 0. -1.
         21   -1    0    0  504  502  0.00000000000E+00 -0.00000000000E+00 -0.41404026747E+03  0.41404026747E+03  0.00000000000E+00 0.  1.
         21    1    1    2  503  505  0.38726348159E+02 -0.16792954932E+03  0.66504586356E+03  0.68701241926E+03  0.00000000000E+00 0. -1.
         21    1    1    2  504  501  0.22078997580E+02  0.10603511222E+03 -0.29597188372E+03  0.31516707175E+03  0.00000000000E+00 0.  1.
         21    1    1    2  505  502 -0.26300446110E+02 -0.66665520644E+02 -0.77337683260E+02  0.10543776534E+03  0.00000000000E+00 0. -1.
          2    1    1    2  501    0 -0.34504899629E+02  0.12855995775E+03  0.72008332130E+03  0.73228289646E+03  0.00000000000E+00 0. -1.
<scales pt_clust_3="147.09397" pt_clust_4="42.99242" pt_clust_5="71.66593" pt_clust_6="14000.00000"></scales>
<clustering>
<clus scale="   71.666">  2  5  1 -1</clus>
<clus scale="   42.992">  2  4  1 -1</clus>
<clus scale="  147.094">  2  3  1 -1</clus>
<clus scale="   71.666">  2  3  1 -1</clus>
</clustering>
</event>
<event>
 6    0  0.1361744E+002  0.1409905E+03  0.7546771E-02  0.1212002E+00
         21   -1    0    0  501  502  0.00000000000E+00  0.00000000000E+00  0.74275650035E+03  0.74275650035E+03  0.00000000000E+00 0.  1.
          2   -1    0    0  504    0 -0.00000000000E+00 -0.00000000000E+00 -0.68239861069E+03  0.68239861069E+03  0.00000000000E+00 0.  1.
         21    1    1    2  503  505  0.45361419696E+02  0.94358992237E+02  0.46735502125E+03  0.47893840282E+03  0.00000000000E+00 0.  1.
         21    1    1    2  504  503 -0.39418983568E+02 -0.39170927206E+02 -0.43242874148E+03  0.43598490141E+03  0.00000000000E+00 0.  1.
         21    1    1    2  505  502 -0.97157289978E+01  0.32518992342E+02  0.25873857832E+03  0.26095503859E+03  0.00000000000E+00 0.  1.
          2    1    1    2  501    0  0.37732928696E+01 -0.87707057373E+02 -0.23330696843E+03  0.24927676821E+03  0.00000000000E+00 0.  1.
<scales pt_clust_3="30.45808" pt_clust_4="55.57174" pt_clust_5="30.45808" pt_clust_6="130.44755"></scales>
<clustering>
<clus scale="   30.458">  3  5 -1 -1</clus>
<clus scale="   55.572">  2  4  1 -1</clus>
<clus scale="  130.448">  2  6  1 -1</clus>
<clus scale="  140.990">  1  3  2 -1</clus>
</clustering>
</event>
<event>
 6    0  0.1361744E+002  0.1110103E+03  0.7546771E-02  0.1258710E+00
          1   -1    0    0  504    0 -0.00000000000E+00  0.00000000000E+00  0.97989008888E+03  0.97989008888E+03  0.00000000000E+00 0.  1.
         21   -1    0    0  505  502  0.00000000000E+00 -0.00000000000E+00 -0.19268385463E+02  0.19268385463E+02  0.00000000000E+00 0.  1.
         21    1    1    2  503  501 -0.46827299418E+02  0.91514815535E+01  0.33765457568E+03  0.34100902930E+03  0.00000000000E+00 0.  1.
         21    1    1    2  504  502  0.33575066883E+02 -0.27708117247E+02  0.90230594871E+02  0.10018275864E+03  0.00000000000E+00 0.  1.
         21    1    1    2  505  503  0.82827312774E+02  0.34354447319E+02  0.22822113982E+03  0.24520497641E+03  0.00000000000E+00 0.  1.
          1    1    1    2  501    0 -0.69575080239E+02 -0.15797811626E+02  0.30451539304E+03  0.31276171000E+03  0.00000000000E+00 0.  1.
<scales pt_clust_3="31.03480" pt_clust_4="43.53188" pt_clust_5="104.32193" pt_clust_6="31.03480"></scales>
<clustering>
<clus scale="   31.035">  3  6 -1 -1</clus>
<clus scale="   43.532">  2  4  1 -1</clus>
<clus scale="  104.322">  2  5  1 -1</clus>
<clus scale="   43.532">  2  3  1 -1</clus>
</clustering>
</event>
<event>
 6    0  0.1361744E+002  0.2526811E+03  0.7546771E-02  0.1111622E+00
          2   -1    0    0  504    0 -0.00000000000E+00  0.00000000000E+00  0.86251376586E+03  0.86251376586E+03  0.00000000000E+00 0. -1.
         21   -1    0    0  503  502  0.00000000000E+00 -0.00000000000E+00 -0.18786805118E+03  0.18786805118E+03  0.00000000000E+00 0.  1.
         21    1    1    2  503  501 -0.98505838446E+02  0.19617771500E+03  0.57044556567E+02  0.22681088489E+03  0.00000000000E+00 0.  1.
         21    1    1    2  504  505 -0.16955833266E+02 -0.54314433905E+02  0.60890670042E+02  0.83338056795E+02  0.00000000000E+00 0.  1.
         21    1    1    2  505  502  0.22883456219E+02  0.76434219789E+02 -0.46321197685E+02  0.92257768661E+02  0.00000000000E+00 0.  1.
          2    1    1    2  501    0  0.92578215493E+02 -0.21829750088E+03  0.60303168576E+03  0.64797510670E+03  0.00000000000E+00 0. -1.
<scales pt_clust_3="252.68112" pt_clust_4="56.89954" pt_clust_5="78.13290" pt_clust_6="14000.00000"></scales>
<clustering>
<clus scale="   56.900">  1  4  2 -1</clus>
<clus scale="   78.133">  2  5  1 -1</clus>
<clus scale="  252.681">  2  3  1 -1</clus>
<clus scale="   78.133">  2  3  1 -1</clus>
</clustering>
</event>
<event>
 6    0  0.1361744E+002  0.1085637E+03  0.7546771E-02  0.1263253E+00
         21   -1    0    0  504  502  0.00000000000E+00  0.00000000000E+00  0.14537484550E+03  0.14537484550E+03  0.00000000000E+00 0. -1.
          4   -1    0    0  503    0 -0.00000000000E+00 -0.00000000000E+00 -0.23222426468E+04  0.23222426468E+04  0.00000000000E+00 0.  1.
         21    1    1    2  503  505  0.28331411411E+02 -0.47754160675E+02 -0.67420724854E+03  0.67648986890E+03  0.00000000000E+00 0. -1.
         21    1    1    2  504  501 -0.17406548099E+02  0.13062114622E+03  0.95968171492E+02  0.16301767296E+03  0.00000000000E+00 0. -1.
         21    1    1    2  505  502  0.28218688376E+02 -0.21567237554E+02 -0.87634713660E+01  0.36581942810E+02  0.00000000000E+00 0. -1.
          4    1    1    2  501    0 -0.39143551688E+02 -0.61299747989E+02 -0.15898652529E+04  0.15915280076E+04  0.00000000000E+00 0.  1.
<scales pt_clust_3="55.81207" pt_clust_4="14000.00000" pt_clust_5="35.51676" pt_clust_6="108.56374"></scales>
<clustering>
<clus scale="   35.517">  1  5  2 -1</clus>
<clus scale="   55.812">  2  3  1 -1</clus>
<clus scale="  108.564">  2  6  1 -1</clus>
<clus scale="   35.517">  1  3  2 -1</clus>
</clustering>
</event>
<event>
 6    0  0.1361744E+002  0.7095257E+02  0.7546771E-02  0.1356883E+00
          2   -1    0    0  504    0 -0.00000000000E+00  0.00000000000E+00  0.52492237752E+03  0.52492237752E+03  0.00000000000E+00 0. -1.
         21   -1    0    0  505  502  0.00000000000E+00 -0.00000000000E+00 -0.15256920024E+03  0.15256920024E+03  0.00000000000E+00 0. -1.
         21    1    1    2  503  502  0.34598500992E+02  0.61888029053E+02 -0.92585452719E+02  0.11661582425E+03  0.00000000000E+00 0. -1.
         21    1    1    2  504  503  0.48314927305E+02  0.32698120750E+02  0.21290630795E+03  0.22075460418E+03  0.00000000000E+00 0. -1.
         21    1    1    2  505  501 -0.31996688750E+02  0.71132237433E+01 -0.24625592339E+02  0.40997632139E+02  0.00000000000E+00 0. -1.
          2    1    1    2  501    0 -0.50916739547E+02 -0.10169937355E+03  0.27665791438E+03  0.29912351719E+03  0.00000000000E+00 0. -1.
<scales pt_clust_3="14000.00000" pt_clust_4="57.60715" pt_clust_5="32.77783" pt_clust_6="70.95257"></scales>
<clustering>
<clus scale="   32.778">  2  5  1 -1</clus>
<clus scale="   57.607">  1  4  2 -1</clus>
<clus scale="   70.953">  1  6  2 -1</clus>
<clus scale="   32.778">  2  3  1 -1</clus>
</clustering>
</event>
<event>
 6    0  0.1361744E+002  0.5887254E+02  0.7546771E-02  0.1402625E+00
         21   -1    0    0  505  502  0.00000000000E+00  0.00000000000E+00  0.86839902923E+03  0.86839902923E+03  0.00000000000E+00 0.  1.
          2   -1    0    0  504    0 -0.00000000000E+00 -0.00000000000E+00 -0.82040326579E+03  0.82040326579E+03  0.00000000000E+00 0.  1.
         21    1    1    2  503  502  0.50293562247E+02 -0.48827235190E+02  0.74914389934E+03  0.75241619016E+03  0.00000000000E+00 0.  1.
         21    1    1    2  504  503 -0.35266915035E+02 -0.65329273699E+02 -0.53721897911E+02  0.91639028876E+02  0.00000000000E+00 0.  1.
         21    1    1    2  505  501 -0.42003680416E+01  0.56284052914E+02  0.89316806400E+02  0.10565523939E+03  0.00000000000E+00 0.  1.
          2    1    1    2  501    0 -0.10826279170E+02  0.57872455975E+02 -0.73674304438E+03  0.73909183660E+03  0.00000000000E+00 0.  1.
<scales pt_clust_3="46.58916" pt_clust_4="58.87254" pt_clust_5="56.44057" pt_clust_6="14000.00000"></scales>
<clustering>
<clus scale="   56.441">  1  5  2 -1</clus>
<clus scale="   46.589">  1  3  2 -1</clus>
<clus scale="   58.873">  1  4  2 -1</clus>
<clus scale="   56.441">  1  3  2 -1</clus>
</clustering>
</event>
<event>
 6    0  0.1361744E+002  0.2391219E+03  0.7546771E-02  0.1120379E+00
          1   -1    0    0  504    0 -0.00000000000E+00  0.00000000000E+00  0.27105293166E+03  0.27105293166E+03  0.00000000000E+00 0.  1.
         21   -1    0    0  503  502  0.00000000000E+00 -0.00000000000E+00 -0.35885784778E+03  0.35885784778E+03  0.00000000000E+00 0.  1.
         21    1    1    2  503  505  0.84565621321E+02  0.10413649643E+03 -0.15163851587E+03  0.20245985699E+03  0.00000000000E+00 0.  1.
         21    1    1    2  504  502  0.38283188212E+02 -0.26335724259E+02 -0.98644378670E+01  0.47502421058E+02  0.00000000000E+00 0. -1.
         21    1    1    2  505  501  0.46754920832E+02  0.84864778024E+02 -0.55614668526E+02  0.11171859526E+03  0.00000000000E+00 0. -1.
          1    1    1    2  501    0 -0.16960373036E+03 -0.16266555020E+03  0.12931270615E+03  0.26822990614E+03  0.00000000000E+00 0.  1.
<scales pt_clust_3="44.87150" pt_clust_4="46.46690" pt_clust_5="44.87150" pt_clust_6="233.22012"></scales>
<clustering>
<clus scale="   44.871">  3  5 -1 -1</clus>
<clus scale="   46.467">  2  4  1 -1</clus>
<clus scale="  233.220">  1  6  2 -1</clus>
<clus scale="   46.467">  2  3  1 -1</clus>
</clustering>
</event>
<event>
 6    0  0.1361744E+002  0.1771489E+03  0.7546771E-02  0.1170591E+00
          2   -1    0    0  505    0 -0.00000000000E+00  0.00000000000E+00  0.11837916221E+04  0.11837916221E+04  0.00000000000E+00 0.  1.
         21   -1    0    0  503  502  0.00000000000E+00 -0.00000000000E+00 -0.19506306337E+03  0.19506306337E+03  0.00000000000E+00 0.  1.
         21    1    1    2  503  501  0.92299919496E+02  0.16692256571E+02  0.78963988491E+03  0.79519120620E+03  0.00000000000E+00 0. -1.
         21    1    1    2  504  502 -0.72357544373E+02 -0.37076890616E+02 -0.71490376353E+02  0.10826441685E+03  0.00000000000E+00 0.  1.
         21    1    1    2  505  504 -0.91571304626E+02 -0.43255939686E+01 -0.76960693431E+02  0.11969529200E+03  0.00000000000E+00 0. -1.
          2    1    1    2  501    0  0.71628929504E+02  0.24710228014E+02  0.34753974356E+03  0.35570377038E+03  0.00000000000E+00 0.  1.
<scales pt_clust_3="47.51616" pt_clust_4="34.48739" pt_clust_5="172.99685" pt_clust_6="47.51616"></scales>
<clustering>
<clus scale="   34.487">  4  5 -1 -1</clus>
<clus scale="   47.516">  3  6 -1 -1</clus>
<clus scale="  172.997">  2  4  1 -1</clus>
<clus scale="  172.997">  2  3  1 -1</clus>
</clustering>
</event>
<event>
 6    0  0.1361744E+002  0.2004951E+03  0.7546771E-02  0.1149322E+00
          2   -1    0    0  504    0 -0.00000000000E+00  0.00000000000E+00  0.33980067540E+04  0.33980067540E+04  0.00000000000E+00 0. -1.
         21   -1    0    0  503  502  0.00000000000E+00 -0.00000000000E+00 -0.67456183561E+02  0.67456183561E+02  0.00000000000E+00 0. -1.
         21    1    1    2  503  501  0.13087997294E+03 -0.38893448838E+01  0.42656672885E+02  0.13771087852E+03  0.00000000000E+00 0. -1.
         21    1    1    2  504  505  0.64992126916E+02 -0.32197248650E+02  0.39269199398E+03  0.39933399745E+03  0.00000000000E+00 0. -1.
         21    1    1    2  505  502  0.70703958265E+02 -0.33246660247E+02  0.14723510136E+03  0.16668102833E+03  0.00000000000E+00 0. -1.
          2    1    1    2  501    0 -0.26657605812E+03  0.69333253781E+02  0.27479668022E+04  0.27617370333E+04  0.00000000000E+00 0. -1.
<scales pt_clust_3="200.49511" pt_clust_4="72.53027" pt_clust_5="81.92206" pt_clust_6="14000.00000"></scales>
<clustering>
<clus scale="   72.530">  1  4  2 -1</clus>
<clus scale="   81.922">  2  5  1 -1</clus>
<clus scale="  200.495">  2  3  1 -1</clus>
<clus scale="   81.922">  2  3  1 -1</clus>
</clustering>
</event>
<event>
 6    0  0.1361744E+002  0.2769556E+03  0.7546771E-02  0.1097363E+00
         21   -1    0    0  505  502  0.00000000000E+00  0.00000000000E+00  0.13056698519E+04  0.13056698519E+04  0.00000000000E+00 0.  1.
          4   -1    0    0  504    0 -0.00000000000E+00 -0.00000000000E+00 -0.24901520344E+03  0.24901520344E+03  0.00000000000E+00 0. -1.
         21    1    1    2  503  502 -0.11876966759E+03  0.22134641438E+03  0.76560507146E+03  0.80576149979E+03  0.00000000000E+00 0.  1.
         21    1    1    2  504  503  0.76153356201E+02  0.21055954368E+02  0.49443861618E+02  0.93206128161E+02  0.00000000000E+00 0.  1.
         21    1    1    2  505  501 -0.55091448777E+01  0.33998539505E+02  0.35239608691E+03  0.35407520873E+03  0.00000000000E+00 0. -1.
          4    1    1    2  501    0  0.48125456263E+02 -0.27640090826E+03 -0.11079037156E+03  0.30164221862E+03  0.00000000000E+00 0. -1.
<scales pt_clust_3="276.95565" pt_clust_4="79.33298" pt_clust_5="34.44200" pt_clust_6="14000.00000"></scales>
<clustering>
<clus scale="   34.442">  1  5  2 -1</clus>
<clus scale="   79.333">  2  4  1 -1</clus>
<clus scale="  276.956">  1  3  2 -1</clus>
<clus scale="   34.442">  1  3  2 -1</clus>
</clustering>
</event>
<event>
 6    0  0.1361744E+002  0.7073740E+02  0.7546771E-02  0.1357603E+00
         -1   -1    0    0    0  501 -0.00000000000E+00  0.00000000000E+00  0.16853785774E+04  0.16853785774E+04  0.00000000000E+00 0. -1.
         21   -1    0    0  503  502  0.00000000000E+00 -0.00000000000E+00 -0.11618220695E+02  0.11618220695E+02  0.00000000000E+00 0.  1.
         21    1    1    2  503  505 -0.33551108626E+01 -0.59729899934E+02  0.21779919790E+03  0.22586590784E+03  0.00000000000E+00 0.  1.
         21    1    1    2  504  502 -0.20308831409E+02  0.44432540372E+02  0.17515620331E+03  0.18184167519E+03  0.00000000000E+00 0.  1.
         21    1    1    2  505  501 -0.61338901831E+02  0.10477433500E+02  0.58178782719E+03  0.58510624108E+03  0.00000000000E+00 0.  1.
         -1    1    1    2    0  504  0.85002844103E+02  0.48199260616E+01  0.69901712827E+03  0.70418297396E+03  0.00000000000E+00 0. -1.
<scales pt_clust_3="40.31487" pt_clust_4="48.85386" pt_clust_5="14000.00000" pt_clust_6="70.73740"></scales>
<clustering>
<clus scale="   48.854">  2  4  1 -1</clus>
<clus scale="   40.315">  2  3  1 -1</clus>
<clus scale="   70.737">  2  6  1 -1</clus>
<clus scale="   48.854">  2  3  1 -1</clus>
</clustering>
</event>
<event>
 6    0  0.1361744E+002  0.1215282E+03  0.7546771E-02  0.1240597E+00
         21   -1    0    0  504  502  0.00000000000E+00  0.00000000000E+00  0.18585104104E+03  0.18585104104E+03  0.00000000000E+00 0. -1.
          1   -1    0    0  503    0 -0.00000000000E+00 -0.00000000000E+00 -0.20479704034E+04  0.20479704034E+04  0.00000000000E+00 0.  1.
         21    1    1    2  503  505 -0.78301014891E+02 -0.32121519978E+02 -0.56968448282E+03  0.57593684632E+03  0.00000000000E+00 0. -1.
         21    1    1    2  504  501  0.36763695776E+02  0.67902933492E+02  0.15536517090E+03  0.17349557353E+03  0.00000000000E+00 0. -1.
         21    1    1    2  505  502  0.16875758233E+01  0.51287441503E+02 -0.22761096303E+02  0.56136592994E+02  0.00000000000E+00 0.  1.
          1    1    1    2  501    0  0.39849743292E+02 -0.87068855017E+02 -0.14250389542E+04  0.14282524316E+04  0.00000000000E+00 0.  1.
<scales pt_clust_3="84.24943" pt_clust_4="121.52823" pt_clust_5="51.31520" pt_clust_6="14000.00000"></scales>
<clustering>
<clus scale="   51.315">  1  5  2 -1</clus>
<clus scale="   84.249">  2  3  1 -1</clus>
<clus scale="  121.528">  1  4  2 -1</clus>
<clus scale="   51.315">  1  3  2 -1</clus>
</clustering>
</event>
<event>
 6    0  0.1361744E+002  0.9063895E+02  0.7546771E-02  0.1301312E+00
          2   -1    0    0  504    0 -0.00000000000E+00  0.00000000000E+00  0.49677422680E+03  0.49677422680E+03  0.00000000000E+00 0.  1.
         21   -1    0    0  505  502  0.00000000000E+00 -0.00000000000E+00 -0.44841094183E+03  0.44841094183E+03  0.00000000000E+00 0.  1.
         21    1    1    2  503  502  0.33383101295E+02  0.96677145041E+01 -0.66929890062E+02  0.75415557675E+02  0.00000000000E+00 0.  1.
         21    1    1    2  504  503 -0.10784850834E+02 -0.32238189937E+02  0.23755144162E+02  0.41471927518E+02  0.00000000000E+00 0. -1.
         21    1    1    2  505  501 -0.88626755969E+02  0.62207571369E+02 -0.35707038218E+03  0.37312697790E+03  0.00000000000E+00 0.  1.
          2    1    1    2  501    0  0.66028505508E+02 -0.39637095937E+02  0.44860841305E+03  0.45517070553E+03  0.00000000000E+00 0.  1.
<scales pt_clust_3="34.57908" pt_clust_4="33.99432" pt_clust_5="90.63895" pt_clust_6="14000.00000"></scales>
<clustering>
<clus scale="   33.994">  1  4  2 -1</clus>
<clus scale="   34.579">  2  3  1 -1</clus>
<clus scale="   90.639">  2  5  1 -1</clus>
<clus scale="   34.579">  2  3  1 -1</clus>
</clustering>
</event>
<event>
 6    0  0.1361744E+002  0.1805807E+03  0.7546771E-02  0.1167242E+00
         21   -1    0    0  505  502  0.00000000000E+00  0.00000000000E+00  0.46218943745E+03  0.46218943745E+03  0.00000000000E+00 0.  1.
          1   -1    0    0  504    0 -0.00000000000E+00 -0.00000000000E+00 -0.21111303534E+03  0.21111303534E+03  0.00000000000E+00 0. -1.
         21    1    1    2  503  501  0.10360547122E+03 -0.66306283026E+02  0.25644269255E+03  0.28441777616E+03  0.00000000000E+00 0.  1.
         21    1    1    2  504  502 -0.38902300845E+02 -0.16402803484E+02  0.23014884310E+01  0.42281648764E+02  0.00000000000E+00 0.  1.
         21    1    1    2  505  503  0.60659524686E+02  0.13080626956E+01  0.12995651113E+03  0.14342239625E+03  0.00000000000E+00 0.  1.
          1    1    1    2  501    0 -0.12536269506E+03  0.81401023814E+02 -0.13762428999E+03  0.20318065161E+03  0.00000000000E+00 0. -1.
<scales pt_clust_3="35.36180" pt_clust_4="42.21896" pt_clust_5="35.36180" pt_clust_6="173.41938"></scales>
<clustering>
<clus scale="   35.362">  3  5 -1 -1</clus>
<clus scale="   42.219">  2  4  1 -1</clus>
<clus scale="  173.419">  2  6  1 -1</clus>
<clus scale="  180.581">  1  3  2 -1</clus>
</clustering>
</event>
<event>
 6    0  0.1361744E+002  0.1371761E+03  0.7546771E-02  0.1217180E+00
         21   -1    0    0  505  502  0.00000000000E+00  0.00000000000E+00  0.13460565347E+03  0.13460565347E+03  0.00000000000E+00 0.  1.
          2   -1    0    0  503    0 -0.00000000000E+00 -0.00000000000E+00 -0.11674262041E+04  0.11674262041E+04  0.00000000000E+00 0. -1.
         21    1    1    2  503  504  0.32954567100E+02  0.48756313895E+01 -0.10141289386E+03  0.10674432217E+03  0.00000000000E+00 0.  1.
         21    1    1    2  504  502 -0.88611431816E+02  0.32150728445E+02  0.59404844040E+02  0.11142078210E+03  0.00000000000E+00 0.  1.
         21    1    1    2  505  501 -0.54449874512E+02 -0.44502371306E+02  0.15094256258E+02  0.71924171585E+02  0.00000000000E+00 0.  1.
          2    1    1    2  501    0  0.11010673923E+03  0.74760114713E+01 -0.10059067571E+04  0.10119425817E+04  0.00000000000E+00 0. -1.
<scales pt_clust_3="33.31329" pt_clust_4="137.17613" pt_clust_5="69.55967" pt_clust_6="14000.00000"></scales>
<clustering>
<clus scale="   33.313">  2  3  1 -1</clus>
<clus scale="   69.560">  1  5  2 -1</clus>
<clus scale="  137.176">  1  4  2 -1</clus>
<clus scale="   69.560">  1  3  2 -1</clus>
</clustering>
</event>
<event>
 6    0  0.1361744E+002  0.1348736E+03  0.7546771E-02  0.1220398E+00
         21   -1    0    0  503  502  0.00000000000E+00  0.00000000000E+00  0.45861639480E+03  0.45861639480E+03  0.00000000000E+00 0.  1.
          2   -1    0    0  505    0 -0.00000000000E+00 -0.00000000000E+00 -0.11997580289E+04  0.11997580289E+04  0.00000000000E+00 0.  1.
         21    1    1    2  503  501  0.43431060197E+02  0.43139357801E+01  0.11286076847E+02  0.45080401090E+02  0.00000000000E+00 0.  1.
         21    1    1    2  504  502  0.73734881229E+02 -0.75733971703E+02  0.41624045698E+03  0.42945149343E+03  0.00000000000E+00 0.  1.
         21    1    1    2  505  504 -0.62778071069E+02  0.17975681666E+02 -0.16756332894E+03  0.17983792855E+03  0.00000000000E+00 0. -1.
          2    1    1    2  501    0 -0.54387870357E+02  0.53444354257E+02 -0.10011048390E+04  0.10040046006E+04  0.00000000000E+00 0.  1.
<scales pt_clust_3="43.64478" pt_clust_4="14000.00000" pt_clust_5="64.72293" pt_clust_6="134.87357"></scales>
<clustering>
<clus scale="   43.645">  1  3  2 -1</clus>
<clus scale="   64.723">  2  5  1 -1</clus>
<clus scale="  134.874">  2  6  1 -1</clus>
<clus scale="   43.645">  1  3  2 -1</clus>
</clustering>
</event>
<event>
 6    0  0.1361744E+002  0.1141692E+03  0.7546771E-02  0.1253038E+00
          2   -1    0    0  503    0 -0.00000000000E+00  0.00000000000E+00  0.27138373321E+04  0.27138373321E+04  0.00000000000E+00 0. -1.
         21   -1    0    0  504  502  0.00000000000E+00 -0.00000000000E+00 -0.30662700289E+03  0.30662700289E+03  0.00000000000E+00 0. -1.
         21    1    1    2  503  505 -0.22522001982E+02  0.85710008393E+02  0.13505348490E+03  0.16153293749E+03  0.00000000000E+00 0. -1.
         21    1    1    2  504  501  0.83033458843E+02 -0.25815591059E+02  0.13607781192E+04  0.13635534789E+04  0.00000000000E+00 0. -1.
         21    1    1    2  505  502 -0.10428137760E+03 -0.54285928919E+01 -0.28160884957E+03  0.30034583315E+03  0.00000000000E+00 0. -1.
          2    1    1    2  501    0  0.43769920736E+02 -0.54465824442E+02  0.11929875747E+04  0.11950320855E+04  0.00000000000E+00 0. -1.
<scales pt_clust_3="88.61967" pt_clust_4="41.24187" pt_clust_5="104.48892" pt_clust_6="41.24187"></scales>
<clustering>
<clus scale="   41.242">  4  6 -1 -1</clus>
<clus scale="   88.620">  1  3  2 -1</clus>
<clus scale="  104.489">  2  5  1 -1</clus>
<clus scale="  104.489">  2  3  1 -1</clus>
</clustering>
</event>
<event>
 6    0  0.1361744E+002  0.2755069E+03  0.7546771E-02  0.1098169E+00
          2   -1    0    0  503    0 -0.00000000000E+00  0.00000000000E+00  0.34226435325E+04  0.34226435325E+04  0.00000000000E+00 0. -1.
         21   -1    0    0  504  502  0.00000000000E+00 -0.00000000000E+00 -0.68653746390E+03  0.68653746390E+03  0.00000000000E+00 0.  1.
         21    1    1    2  503  505  0.19734409713E+03  0.28191690842E+03  0.39209888896E+03  0.52169279720E+03  0.00000000000E+00 0.  1.
         21    1    1    2  504  501 -0.41723899185E+02 -0.31264412589E+02  0.11124445547E+02  0.53311354761E+02  0.00000000000E+00 0.  1.
         21    1    1    2  505  502 -0.52580605659E+02 -0.14746327526E+01 -0.59328477254E+03  0.59561205156E+03  0.00000000000E+00 0.  1.
          2    1    1    2  501    0 -0.10303959229E+03 -0.24917786308E+03  0.29261675066E+04  0.29385647928E+04  0.00000000000E+00 0. -1.
<scales pt_clust_3="14000.00000" pt_clust_4="52.13777" pt_clust_5="94.54168" pt_clust_6="275.50692"></scales>
<clustering>
<clus scale="   52.138">  2  4  1 -1</clus>
<clus scale="   94.542">  2  5  1 -1</clus>
<clus scale="  275.507">  1  6  2 -1</clus>
<clus scale="   52.138">  2  3  1 -1</clus>
</clustering>
</event>
<event>
 6    0  0.1361744E+002  0.1566995E+03  0.7546771E-02  0.1192474E+00
         -1   -1    0    0    0  501 -0.00000000000E+00  0.00000000000E+00  0.19709823673E+04  0.19709823673E+04  0.00000000000E+00 0.  1.
         21   -1    0    0  503  502  0.00000000000E+00 -0.00000000000E+00 -0.31640219451E+03  0.31640219451E+03  0.00000000000E+00 0. -1.
         21    1    1    2  503  504 -0.24092996583E+02  0.90339890080E+02 -0.19614656186E+03  0.21729068538E+03  0.00000000000E+00 0. -1.
         21    1    1    2  504  505  0.28605678985E+02  0.54146186781E+02 -0.85693722815E+02  0.10532572593E+03  0.00000000000E+00 0. -1.
         21    1    1    2  505  501 -0.11315848817E+03 -0.22831762669E+02  0.32085154972E+03  0.34098658301E+03  0.00000000000E+00 0.  1.
         -1    1    1    2    0  502  0.10864580577E+03 -0.12165431419E+03  0.16155689077E+04  0.16237815675E+04  0.00000000000E+00 0.  1.
<scales pt_clust_3="49.56480" pt_clust_4="49.56480" pt_clust_5="115.43887" pt_clust_6="144.23570"></scales>
<clustering>
<clus scale="   49.565">  3  4 -1 -1</clus>
<clus scale="  115.439">  1  5  2 -1</clus>
<clus scale="  144.236">  1  6  2 -1</clus>
<clus scale="  156.700">  2  3  1 -1</clus>
</clustering>
</event>
<event>
 6    0  0.1361744E+002  0.6686366E+02  0.7546771E-02  0.1371095E+00
         21   -1    0    0  503  502  0.00000000000E+00  0.00000000000E+00  0.45935902766E+03  0.45935902766E+03  0.00000000000E+00 0. -1.
         -2   -1    0    0    0  501 -0.00000000000E+00 -0.00000000000E+00 -0.13499684460E+03  0.13499684460E+03  0.00000000000E+00 0.  1.
         21    1    1    2  503  501  0.65883832176E+02 -0.32189130078E+02  0.31469649116E+03  0.32312644736E+03  0.00000000000E+00 0. -1.
         21    1    1    2  504  505 -0.15700674926E+01  0.89158042955E+02 -0.60507888835E+01  0.89376919737E+02  0.00000000000E+00 0. -1.
         21    1    1    2  505  502 -0.60594672261E+02 -0.17815376180E+02  0.82770322530E+02  0.10411545623E+03  0.00000000000E+00 0. -1.
         -2    1    1    2    0  504 -0.37190924226E+01 -0.39153536698E+02 -0.67053841739E+02  0.77737048930E+02  0.00000000000E+00 0.  1.
<scales pt_clust_3="66.86366" pt_clust_4="59.47912" pt_clust_5="14000.00000" pt_clust_6="39.32977"></scales>
<clustering>
<clus scale="   39.330">  2  6  1 -1</clus>
<clus scale="   59.479">  2  4  1 -1</clus>
<clus scale="   66.864">  1  3  2 -1</clus>
<clus scale="   66.864">  1  3  2 -1</clus>
</clustering>
</event>
<event>
 6    0  0.1361744E+002  0.7092131E+02  0.7546771E-02  0.1356988E+00
         21   -1    0    0  505  502  0.00000000000E+00  0.00000000000E+00  0.25702876505E+03  0.25702876505E+03  0.00000000000E+00 0. -1.
          2   -1    0    0  503    0 -0.00000000000E+00 -0.00000000000E+00 -0.15437043491E+04  0.15437043491E+04  0.00000000000E+00 0. -1.
         21    1    1    2  503  504 -0.22044924078E+02 -0.44449660745E+02 -0.68630984599E+02  0.84687443372E+02  0.00000000000E+00 0. -1.
         21    1    1    2  504  502 -0.94302013846E+02 -0.17830076923E+02  0.19664705648E+03  0.21881692412E+03  0.00000000000E+00 0. -1.
         21    1    1    2  505  501  0.36350009572E+02 -0.20483703347E+02  0.27809417586E+02  0.50142487026E+02  0.00000000000E+00 0.  1.
          2    1    1    2  501    0  0.79996928352E+02  0.82763441014E+02 -0.14425010735E+04  0.14470862597E+04  0.00000000000E+00 0. -1.
<scales pt_clust_3="49.72071" pt_clust_4="70.92131" pt_clust_5="41.72416" pt_clust_6="14000.00000"></scales>
<clustering>
<clus scale="   41.724">  1  5  2 -1</clus>
<clus scale="   49.721">  2  3  1 -1</clus>
<clus scale="   70.921">  1  4  2 -1</clus>
<clus scale="   41.724">  1  3  2 -1</clus>
</clustering>
</event>
<event>
 6    0  0.1361744E+002  0.7440605E+02  0.7546771E-02  0.1345720E+00
          1   -1    0    0  505    0 -0.00000000000E+00  0.00000000000E+00  0.43953344936E+03  0.43953344936E+03  0.00000000000E+00 0. -1.
         21   -1    0    0  503  502  0.00000000000E+00 -0.00000000000E+00 -0.11222150865E+03  0.11222150865E+03  0.00000000000E+00 0. -1.
         21    1    1    2  503  504  0.11637772103E+02  0.39099194576E+02  0.31689817192E+01  0.40917321530E+02  0.00000000000E+00 0. -1.
         21    1    1    2  504  501 -0.95925812585E+02 -0.10941565239E+02  0.11372065763E+03  0.14917730170E+03  0.00000000000E+00 0. -1.
         21    1    1    2  505  502  0.54388297444E+02 -0.62478087343E+02 -0.50355686204E+02  0.96939638074E+02  0.00000000000E+00 0. -1.
          1    1    1    2  501    0  0.29899743038E+02  0.34320458006E+02  0.26077798756E+03  0.26472069671E+03  0.00000000000E+00 0. -1.
<scales pt_clust_3="40.79442" pt_clust_4="74.40605" pt_clust_5="14000.00000" pt_clust_6="46.30341"></scales>
<clustering>
<clus scale="   40.794">  2  3  1 -1</clus>
<clus scale="   46.303">  1  6  2 -1</clus>
<clus scale="   74.406">  1  4  2 -1</clus>
<clus scale="   40.794">  2  3  1 -1</clus>
</clustering>
</event>
<event>
 6    0  0.1361744E+002  0.7449698E+02  0.7546771E-02  0.1345436E+00
         21   -1    0    0  505  502  0.00000000000E+00  0.00000000000E+00  0.64749613858E+03  0.64749613858E+03  0.00000000000E+00 0.  1.
         -3   -1    0    0    0  501 -0.00000000000E+00 -0.00000000000E+00 -0.34765802098E+02  0.34765802098E+02  0.00000000000E+00 0. -1.
         21    1    1    2  503  504 -0.63409470501E+02 -0.34776963042E+01  0.12766514040E+03  0.14258766915E+03  0.00000000000E+00 0. -1.
         21    1    1    2  504  501  0.42457012984E+02 -0.28897229015E+02  0.33396074819E+02  0.61261289650E+02  0.00000000000E+00 0. -1.
         21    1    1    2  505  503 -0.59504121668E+02  0.43802994665E+02  0.25834382409E+03  0.26870238980E+03  0.00000000000E+00 0.  1.
         -3    1    1    2    0  502  0.80456579185E+02 -0.11428069346E+02  0.19332529717E+03  0.20971059208E+03  0.00000000000E+00 0. -1.
<scales pt_clust_3="50.14770" pt_clust_4="51.35804" pt_clust_5="14000.00000" pt_clust_6="74.49698"></scales>
<clustering>
<clus scale="   51.358">  2  4  1 -1</clus>
<clus scale="   50.148">  2  3  1 -1</clus>
<clus scale="   74.497">  2  6  1 -1</clus>
<clus scale="   74.497">  1  3  2 -1</clus>
</clustering>
</event>
<event>
 6    0  0.1361744E+002  0.1143060E+03  0.7546771E-02  0.1252797E+00
          3   -1    0    0  503    0 -0.00000000000E+00  0.00000000000E+00  0.33157650990E+04  0.33157650990E+04  0.00000000000E+00 0.  1.
         21   -1    0    0  505  502  0.00000000000E+00 -0.00000000000E+00 -0.16530218723E+02  0.16530218723E+02  0.00000000000E+00 0. -1.
         21    1    1    2  503  504  0.33035943470E+02 -0.30224887782E+02  0.66273379049E+03  0.66424467966E+03  0.00000000000E+00 0. -1.
         21    1    1    2  504  502 -0.70789439009E+01  0.44544540967E+02  0.20501909330E+03  0.20992178590E+03  0.00000000000E+00 0. -1.
         21    1    1    2  505  501 -0.11393750548E+03 -0.28521391964E+02  0.26556363940E+03  0.29037780825E+03  0.00000000000E+00 0. -1.
          3    1    1    2  501    0  0.87980505913E+02  0.14201738778E+02  0.21659183571E+04  0.21677510439E+04  0.00000000000E+00 0.  1.
<scales pt_clust_3="44.77630" pt_clust_4="42.41905" pt_clust_5="114.30595" pt_clust_6="14000.00000"></scales>
<clustering>
<clus scale="   44.776">  1  3  2 -1</clus>
<clus scale="   42.419">  2  4  1 -1</clus>
<clus scale="  114.306">  2  5  1 -1</clus>
<clus scale="   42.419">  2  3  1 -1</clus>
</clustering>
</event>
<event>
 6    0  0.1361744E+002  0.8500748E+02  0.7546771E-02  0.1315413E+00
          1   -1    0    0  503    0 -0.00000000000E+00  0.00000000000E+00  0.19392583369E+04  0.19392583369E+04  0.00000000000E+00 0. -1.
         21   -1    0    0  501  502  0.00000000000E+00 -0.00000000000E+00 -0.38248163822E+03  0.38248163822E+03  0.00000000000E+00 0. -1.
         21    1    1    2  503  505 -0.22572307049E+02  0.42180696470E+02  0.74376702119E+03  0.74530403327E+03  0.00000000000E+00 0. -1.
         21    1    1    2  504  502 -0.65056377221E+02  0.77727936751E+01 -0.13032664566E+03  0.14586906151E+03  0.00000000000E+00 0. -1.
         21    1    1    2  505  504  0.46770648764E+02 -0.91441197741E+02 -0.23203696506E+03  0.25375212193E+03  0.00000000000E+00 0. -1.
          1    1    1    2  501    0  0.40858035506E+02  0.41487707596E+02  0.11753732882E+04  0.11768147584E+04  0.00000000000E+00 0. -1.
<scales pt_clust_3="47.84057" pt_clust_4="65.69790" pt_clust_5="14000.00000" pt_clust_6="85.00748"></scales>
<clustering>
<clus scale="   47.841">  1  3  2 -1</clus>
<clus scale="   65.698">  2  4  1 -1</clus>
<clus scale="   85.007">  1  6  2 -1</clus>
<clus scale="   65.698">  2  3  1 -1</clus>
</clustering>
</event>
<event>
 6    0  0.1361744E+002  0.9658391E+02  0.7546771E-02  0.1287648E+00
          3   -1    0    0  504    0 -0.00000000000E+00  0.00000000000E+00  0.38541583863E+04  0.38541583863E+04  0.00000000000E+00 0.  1.
         21   -1    0    0  503  502  0.00000000000E+00 -0.00000000000E+00 -0.11980631995E+03  0.11980631995E+03  0.00000000000E+00 0. -1.
         21    1    1    2  503  501 -0.86059938705E+02 -0.31518732022E+01 -0.78843456169E+02  0.11675845980E+03  0.00000000000E+00 0. -1.
         21    1    1    2  504  505  0.57881379773E+01 -0.41510540541E+02  0.61334417786E+03  0.61477451805E+03  0.00000000000E+00 0. -1.
         21    1    1    2  505  502 -0.37455864771E+01 -0.32792685274E+02 -0.68381226869E+01  0.33706817522E+02  0.00000000000E+00 0.  1.
          3    1    1    2  501    0  0.84017387205E+02  0.77455099018E+02  0.32066894674E+04  0.32087249109E+04  0.00000000000E+00 0.  1.
<scales pt_clust_3="96.58391" pt_clust_4="42.14183" pt_clust_5="33.00590" pt_clust_6="14000.00000"></scales>
<clustering>
<clus scale="   33.006">  2  5  1 -1</clus>
<clus scale="   42.142">  1  4  2 -1</clus>
<clus scale="   96.584">  2  3  1 -1</clus>
<clus scale="   33.006">  2  3  1 -1</clus>
</clustering>
</event>
<event>
 6    0  0.1361744E+002  0.2160461E+03  0.7546771E-02  0.1136866E+00
          1   -1    0    0  505    0 -0.00000000000E+00  0.00000000000E+00  0.16040821936E+04  0.16040821936E+04  0.00000000000E+00 0. -1.
         21   -1    0    0  503  502  0.00000000000E+00 -0.00000000000E+00 -0.75470419923E+02  0.75470419923E+02  0.00000000000E+00 0. -1.
         21    1    1    2  503  504  0.84906363493E+02  0.18197592365E+02  0.65201486140E+02  0.10858856627E+03  0.00000000000E+00 0.  1.
         21    1    1    2  504  501  0.10401387244E+03 -0.13508595825E+03  0.20485303768E+03  0.26651804596E+03  0.00000000000E+00 0. -1.
         21    1    1    2  505  502 -0.24403447848E+03  0.14012755882E+03  0.98389799620E+03  0.10233493179E+04  0.00000000000E+00 0. -1.
          1    1    1    2  501    0  0.55114242546E+02 -0.23239192941E+02  0.27465925361E+03  0.28109668339E+03  0.00000000000E+00 0. -1.
<scales pt_clust_3="90.07445" pt_clust_4="216.04607" pt_clust_5="14000.00000" pt_clust_6="59.81337"></scales>
<clustering>
<clus scale="   59.813">  1  6  2 -1</clus>
<clus scale="   90.074">  2  3  1 -1</clus>
<clus scale="  216.046">  2  4  1 -1</clus>
<clus scale="   90.074">  2  3  1 -1</clus>
</clustering>
</event>
<event>
 6    0  0.1361744E+002  0.1129159E+03  0.7546771E-02  0.1255263E+00
         -2   -1    0    0    0  501 -0.00000000000E+00  0.00000000000E+00  0.19753832570E+04  0.19753832570E+04  0.00000000000E+00 0.  1.
         21   -1    0    0  503  502  0.00000000000E+00 -0.00000000000E+00 -0.44813893271E+03  0.44813893271E+03  0.00000000000E+00 0.  1.
         21    1    1    2  503  505 -0.34506906301E+02 -0.13522269836E+02 -0.16886035044E+03  0.17287971632E+03  0.00000000000E+00 0.  1.
         21    1    1    2  504  501 -0.48774520400E+02  0.70473380406E+01  0.86698798921E+02  0.99726127710E+02  0.00000000000E+00 0. -1.
         21    1    1    2  505  504 -0.67248405539E+02  0.63650510974E+02 -0.25927380706E+03  0.27531190061E+03  0.00000000000E+00 0.  1.
         -2    1    1    2    0  502  0.15052983224E+03 -0.57175579179E+02  0.18686796828E+04  0.18756044450E+04  0.00000000000E+00 0.  1.
<scales pt_clust_3="37.06182" pt_clust_4="50.03975" pt_clust_5="112.91589" pt_clust_6="14000.00000"></scales>
<clustering>
<clus scale="   37.062">  2  3  1 -1</clus>
<clus scale="   50.040">  1  4  2 -1</clus>
<clus scale="  112.916">  2  5  1 -1</clus>
<clus scale="   37.062">  2  3  1 -1</clus>
</clustering>
</event>
<event>
 6    0  0.1361744E+002  0.7149305E+02  0.7546771E-02  0.1355088E+00
         21   -1    0    0  504  502  0.00000000000E+00  0.00000000000E+00  0.53653223796E+03  0.53653223796E+03  0.00000000000E+00 0. -1.
         -1   -1    0    0    0  501 -0.00000000000E+00 -0.00000000000E+00 -0.14604778599E+04  0.14604778599E+04  0.00000000000E+00 0. -1.
         21    1    1    2  503  501 -0.64585312975E+02 -0.12965371766E+02 -0.15525848666E+03  0.16865515467E+03  0.00000000000E+00 0.  1.
         21    1    1    2  504  503 -0.26048102233E+02 -0.31477395785E+02  0.38553089326E+03  0.38768982413E+03  0.00000000000E+00 0. -1.
         21    1    1    2  505  502 -0.46389151538E+02  0.23809090718E+02  0.13463772645E+03  0.14438193643E+03  0.00000000000E+00 0. -1.
         -1    1    1    2    0  505  0.13702256675E+03  0.20633676833E+02 -0.12888557550E+04  0.12962831826E+04  0.00000000000E+00 0. -1.
<scales pt_clust_3="67.30151" pt_clust_4="40.85744" pt_clust_5="71.49305" pt_clust_6="14000.00000"></scales>
<clustering>
<clus scale="   40.857">  1  4  2 -1</clus>
<clus scale="   67.302">  2  3  1 -1</clus>
<clus scale="   71.493">  1  5  2 -1</clus>
<clus scale="   40.857">  1  3  2 -1</clus>
</clustering>
</event>
<event>
 6    0  0.1361744E+002  0.8820833E+02  0.7546771E-02  0.1307249E+00
         21   -1    0    0  503  502  0.00000000000E+00  0.00000000000E+00  0.11552625724E+04  0.11552625724E+04  0.00000000000E+00 0.  1.
          2   -1    0    0  504    0 -0.00000000000E+00 -0.00000000000E+00 -0.52034755466E+03  0.52034755466E+03  0.00000000000E+00 0.  1.
         21    1    1    2  503  501 -0.84088186420E+02  0.39815249141E+02  0.10599725111E+04  0.10640478379E+04  0.00000000000E+00 0.  1.
         21    1    1    2  504  505 -0.41684702041E+02  0.78946175700E+01 -0.36424262359E+02  0.55916600927E+02  0.00000000000E+00 0. -1.
         21    1    1    2  505  502  0.44479296537E+02 -0.43820932567E+02  0.67708167331E+02  0.92103625742E+02  0.00000000000E+00 0.  1.
          2    1    1    2  501    0  0.81293591924E+02 -0.38889341444E+01 -0.45634139829E+03  0.46354206248E+03  0.00000000000E+00 0.  1.
<scales pt_clust_3="14000.00000" pt_clust_4="42.42569" pt_clust_5="88.20833" pt_clust_6="41.03375"></scales>
<clustering>
<clus scale="   42.426">  2  4  1 -1</clus>
<clus scale="   41.034">  2  6  1 -1</clus>
<clus scale="   88.208">  2  5  1 -1</clus>
<clus scale="   88.208">  1  3  2 -1</clus>
</clustering>
</event>
<event>
 6    0  0.1361744E+002  0.1883826E+03  0.7546771E-02  0.1159928E+00
          2   -1    0    0  505    0 -0.00000000000E+00  0.00000000000E+00  0.55910751546E+03  0.55910751546E+03  0.00000000000E+00 0.  1.
         21   -1    0    0  503  502  0.00000000000E+00 -0.00000000000E+00 -0.41323540070E+03  0.41323540070E+03  0.00000000000E+00 0.  1.
         21    1    1    2  503  501  0.76420618483E+02 -0.19032032163E+03 -0.28612772424E+03  0.35203836486E+03  0.00000000000E+00 0.  1.
         21    1    1    2  504  502 -0.16148749248E+02  0.33002916665E+02 -0.47992391995E+02  0.60442073923E+02  0.00000000000E+00 0.  1.
         21    1    1    2  505  504 -0.39975957607E+02 -0.29430821618E+02  0.59979012583E+01  0.50002252621E+02  0.00000000000E+00 0. -1.
          2    1    1    2  501    0 -0.20295911627E+02  0.18674822658E+03  0.47399432974E+03  0.50986022475E+03  0.00000000000E+00 0.  1.
<scales pt_clust_3="14000.00000" pt_clust_4="36.74200" pt_clust_5="49.28889" pt_clust_6="188.38258"></scales>
<clustering>
<clus scale="   36.742">  2  4  1 -1</clus>
<clus scale="   49.289">  2  5  1 -1</clus>
<clus scale="  188.383">  1  6  2 -1</clus>
<clus scale="   36.742">  2  3  1 -1</clus>
</clustering>
</event>
<event>
 6    0  0.1361744E+002  0.1301891E+03  0.7546771E-02  0.1227175E+00
         21   -1    0    0  501  502  0.00000000000E+00  0.00000000000E+00  0.57799274546E+03  0.57799274546E+03  0.00000000000E+00 0. -1.
          2   -1    0    0  504    0 -0.00000000000E+00 -0.00000000000E+00 -0.40575288854E+03  0.40575288854E+03  0.00000000000E+00 0.  1.
         21    1    1    2  503  505  0.10958433268E+03 -0.92456318215E+02  0.47452568229E+03  0.49571314276E+03  0.00000000000E+00 0. -1.
         21    1    1    2  504  503  0.30057912815E+02  0.33670405289E+01 -0.19064683686E+02  0.35753003353E+02  0.00000000000E+00 0.  1.
         21    1    1    2  505  502 -0.32717618516E+02 -0.11349233336E+02  0.65426222116E+02  0.74025929235E+02  0.00000000000E+00 0.  1.
          2    1    1    2  501    0 -0.10692462698E+03  0.10043851102E+03 -0.34864736380E+03  0.37825355865E+03  0.00000000000E+00 0.  1.
<scales pt_clust_3="14000.00000" pt_clust_4="30.24591" pt_clust_5="34.29496" pt_clust_6="130.18905"></scales>
<clustering>
<clus scale="   30.246">  2  4  1 -1</clus>
<clus scale="   34.295">  1  5  2 -1</clus>
<clus scale="  130.189">  2  6  1 -1</clus>
<clus scale="   34.295">  1  3  2 -1</clus>
</clustering>
</event>
<event>
 6    0  0.1361744E+002  0.1627507E+03  0.7546771E-02  0.1185626E+00
         21   -1    0    0  505  502  0.00000000000E+00  0.00000000000E+00  0.39015604060E+03  0.39015604060E+03  0.00000000000E+00 0.  1.
          1   -1    0    0  503    0 -0.00000000000E+00 -0.00000000000E+00 -0.10445582124E+03  0.10445582124E+03  0.00000000000E+00 0.  1.
         21    1    1    2  503  504 -0.25059646876E+02 -0.85072938008E+02  0.13962434866E+03  0.16540964126E+03  0.00000000000E+00 0. -1.
         21    1    1    2  504  502 -0.30184959605E+02 -0.49900746266E+02  0.15560281351E+03  0.16617295760E+03  0.00000000000E+00 0.  1.
         21    1    1    2  505  501  0.60178799632E+02  0.82568496481E+02  0.17817247675E+02  0.10371354227E+03  0.00000000000E+00 0.  1.
          1    1    1    2  501    0 -0.49341931503E+01  0.52405187794E+02 -0.27344190492E+02  0.59315720710E+02  0.00000000000E+00 0.  1.
<scales pt_clust_3="150.95676" pt_clust_4="31.59555" pt_clust_5="51.84761" pt_clust_6="51.84761"></scales>
<clustering>
<clus scale="   31.596">  3  4 -1 -1</clus>
<clus scale="   51.848">  5  6 -1 -1</clus>
<clus scale="  150.957">  1  3  2 -1</clus>
<clus scale="  150.957">  1  3  2 -1</clus>
</clustering>
</event>
<event>
 6    0  0.1361744E+002  0.1091528E+03  0.7546771E-02  0.1262147E+00
          3   -1    0    0  505    0 -0.00000000000E+00  0.00000000000E+00  0.20417111126E+03  0.20417111126E+03  0.00000000000E+00 0.  1.
         21   -1    0    0  503  502  0.00000000000E+00 -0.00000000000E+00 -0.15775120075E+03  0.15775120075E+03  0.00000000000E+00 0.  1.
         21    1    1    2  503  504  0.21507618704E+02  0.71548510053E+02 -0.64116068369E+02  0.98451191847E+02  0.00000000000E+00 0.  1.
         21    1    1    2  504  501 -0.44983770750E+02 -0.94644360574E+01  0.40200118844E+02  0.61066887393E+02  0.00000000000E+00 0.  1.
         21    1    1    2  505  502  0.65564588058E+02 -0.70701025765E+01 -0.36277817565E+02  0.75264743439E+02  0.00000000000E+00 0.  1.
          3    1    1    2  501    0 -0.42088436011E+02 -0.55013971419E+02  0.10661367759E+03  0.12713948933E+03  0.00000000000E+00 0.  1.
<scales pt_clust_3="98.92427" pt_clust_4="37.58238" pt_clust_5="65.94469" pt_clust_6="37.58238"></scales>
<clustering>
<clus scale="   37.582">  4  6 -1 -1</clus>
<clus scale="   65.945">  2  5  1 -1</clus>
<clus scale="   98.924">  2  3  1 -1</clus>
<clus scale="   65.945">  2  3  1 -1</clus>
</clustering>
</event>
<event>
 6    0  0.1361744E+002  0.2076042E+03  0.7546771E-02  0.1143477E+00
         21   -1    0    0  503  502  0.00000000000E+00  0.00000000000E+00  0.22392555937E+03  0.22392555937E+03  0.00000000000E+00 0.  1.
          2   -1    0    0  505    0 -0.00000000000E+00 -0.00000000000E+00 -0.19189383942E+04  0.19189383942E+04  0.00000000000E+00 0. -1.
         21    1    1    2  503  504  0.15154032835E+02  0.30214017790E+02 -0.31163410391E+02  0.45974881505E+02  0.00000000000E+00 0.  1.
         21    1    1    2  504  501 -0.18423624676E+02 -0.97100378325E+02 -0.83534331287E+03  0.84116964031E+03  0.00000000000E+00 0. -1.
         21    1    1    2  505  502  0.65197434223E+02  0.15718662028E+03  0.17626167837E+03  0.24500309853E+03  0.00000000000E+00 0.  1.
          2    1    1    2  501    0 -0.61927842383E+02 -0.90300259747E+02 -0.10047677899E+04  0.10107163332E+04  0.00000000000E+00 0. -1.
<scales pt_clust_3="33.80135" pt_clust_4="41.37968" pt_clust_5="202.98291" pt_clust_6="41.37968"></scales>
<clustering>
<clus scale="   33.801">  1  3  2 -1</clus>
<clus scale="   41.380">  4  6 -1 -1</clus>
<clus scale="  202.983">  1  5  2 -1</clus>
<clus scale="   33.801">  1  3  2 -1</clus>
</clustering>
</event>
<event>
 6    0  0.1361744E+002  0.1615110E+03  0.7546771E-02  0.1187001E+00
         21   -1    0    0  504  502  0.00000000000E+00  0.00000000000E+00  0.13714104109E+03  0.13714104109E+03  0.00000000000E+00 0.  1.
          2   -1    0    0  505    0 -0.00000000000E+00 -0.00000000000E+00 -0.18578398401E+04  0.18578398401E+04  0.00000000000E+00 0.  1.
         21    1    1    2  503  502 -0.22815066209E+02  0.21142368336E+02  0.86710749003E+01  0.32291090487E+02  0.00000000000E+00 0.  1.
         21    1    1    2  504  501  0.39002627857E+02  0.14086055466E+03  0.63622684904E+02  0.15940748688E+03  0.00000000000E+00 0.  1.
         21    1    1    2  505  503 -0.31951206301E+02 -0.61336802446E+01 -0.45200952076E+03  0.45317889236E+03  0.00000000000E+00 0.  1.
          2    1    1    2  501    0  0.15763644652E+02 -0.15586924275E+03 -0.13409830380E+04  0.13501034114E+04  0.00000000000E+00 0.  1.
<scales pt_clust_3="31.10510" pt_clust_4="14000.00000" pt_clust_5="32.62718" pt_clust_6="161.51096"></scales>
<clustering>
<clus scale="   31.105">  1  3  2 -1</clus>
<clus scale="   32.627">  2  5  1 -1</clus>
<clus scale="  161.511">  2  6  1 -1</clus>
<clus scale="   31.105">  1  3  2 -1</clus>
</clustering>
</event>
<event>
 6    0  0.1361744E+002  0.1621504E+03  0.7546771E-02  0.1186290E+00
         21   -1    0    0  503  502  0.00000000000E+00  0.00000000000E+00  0.73432267353E+03  0.73432267353E+03  0.00000000000E+00 0.  1.
          2   -1    0    0  502    0 -0.00000000000E+00 -0.00000000000E+00 -0.76198010885E+03  0.76198010885E+03  0.00000000000E+00 0.  1.
         21    1    1    2  503  504 -0.53560759236E+02  0.47943046518E+02  0.57426433784E+03  0.57874590310E+03  0.00000000000E+00 0.  1.
         21    1    1    2  504  505 -0.30092449109E+02  0.90229321073E+02  0.13333250258E+03  0.16378169043E+03  0.00000000000E+00 0.  1.
         21    1    1    2  505  501  0.29093244055E+02 -0.55599852143E+02 -0.20595628626E+03  0.21530386029E+03  0.00000000000E+00 0.  1.
          2    1    1    2  501    0  0.54559964290E+02 -0.82572515448E+02 -0.52929798948E+03  0.53847132856E+03  0.00000000000E+00 0.  1.
<scales pt_clust_3="71.88387" pt_clust_4="157.49291" pt_clust_5="30.72331" pt_clust_6="30.72331"></scales>
<clustering>
<clus scale="   30.723">  5  6 -1 -1</clus>
<clus scale="   71.884">  1  3  2 -1</clus>
<clus scale="  157.493">  1  4  2 -1</clus>
<clus scale="   71.884">  1  3  2 -1</clus>
</clustering>
</event>
<event>
 6    0  0.1361744E+002  0.6041167E+02  0.7546771E-02  0.1396112E+00
         -1   -1    0    0    0  501 -0.00000000000E+00  0.00000000000E+00  0.97434936332E+03  0.97434936332E+03  0.00000000000E+00 0.  1.
         21   -1    0    0  503  502  0.00000000000E+00 -0.00000000000E+00 -0.10057560595E+03  0.10057560595E+03  0.00000000000E+00 0.  1.
         21    1    1    2  503  504 -0.50581437358E+02  0.31743758411E+02 -0.79362267244E+02  0.99320277212E+02  0.00000000000E+00 0.  1.
         21    1    1    2  504  505 -0.42314847608E+02  0.39217137338E+02  0.26161091097E+03  0.26789699313E+03  0.00000000000E+00 0.  1.
         21    1    1    2  505  501 -0.50729237420E+01 -0.30382260821E+02  0.61087190322E+02  0.68413895879E+02  0.00000000000E+00 0. -1.
         -1    1    1    2    0  502  0.97969208708E+02 -0.40578634927E+02  0.63043792333E+03  0.63929380306E+03  0.00000000000E+00 0.  1.
<scales pt_clust_3="60.41167" pt_clust_4="53.29408" pt_clust_5="30.80286" pt_clust_6="14000.00000"></scales>
<clustering>
<clus scale="   30.803">  1  5  2 -1</clus>
<clus scale="   53.294">  1  4  2 -1</clus>
<clus scale="   60.412">  2  3  1 -1</clus>
<clus scale="   60.412">  2  3  1 -1</clus>
</clustering>
</event>
<event>
 6    0  0.1361744E+002  0.1328160E+03  0.7546771E-02  0.1223336E+00
         21   -1    0    0  504  502  0.00000000000E+00  0.00000000000E+00  0.19014590229E+03  0.19014590229E+03  0.00000000000E+00 0. -1.
         -2   -1    0    0    0  501 -0.00000000000E+00 -0.00000000000E+00 -0.20431559485E+04  0.20431559485E+04  0.00000000000E+00 0. -1.
         21    1    1    2  503  502 -0.46343300884E+02  0.72290452423E+02  0.13823550881E+03  0.16273495920E+03  0.00000000000E+00 0. -1.
         21    1    1    2  504  501  0.71420467448E+02  0.55236574413E+01 -0.60733520483E+03  0.61154512915E+03  0.00000000000E+00 0. -1.
         21    1    1    2  505  503 -0.28302345077E+02  0.29278918770E+02  0.23848654942E+02  0.47191484017E+02  0.00000000000E+00 0. -1.
         -2    1    1    2    0  505  0.32251785129E+01 -0.10709302863E+03 -0.14077590051E+04  0.14118302784E+04  0.00000000000E+00 0. -1.
<scales pt_clust_3="30.09241" pt_clust_4="71.63375" pt_clust_5="30.09241" pt_clust_6="125.42153"></scales>
<clustering>
<clus scale="   30.092">  3  5 -1 -1</clus>
<clus scale="   71.634">  2  4  1 -1</clus>
<clus scale="  125.422">  2  6  1 -1</clus>
<clus scale="  132.816">  1  3  2 -1</clus>
</clustering>
</event>
<event>
 6    0  0.1361744E+002  0.1096561E+03  0.7546771E-02  0.1261208E+00
          2   -1    0    0  503    0 -0.00000000000E+00  0.00000000000E+00  0.22529177058E+03  0.22529177058E+03  0.00000000000E+00 0. -1.
         21   -1    0    0  501  502  0.00000000000E+00 -0.00000000000E+00 -0.28201654884E+03  0.28201654884E+03  0.00000000000E+00 0.  1.
         21    1    1    2  503  504 -0.22023999499E+02  0.30070160107E+02  0.12121728629E+02  0.39194481598E+02  0.00000000000E+00 0. -1.
         21    1    1    2  504  505 -0.37959434975E+01  0.35806651196E+02 -0.41722476742E+02  0.55111618760E+02  0.00000000000E+00 0. -1.
         21    1    1    2  505  502 -0.37369257287E+02  0.51481721211E+02 -0.19126064948E+03  0.20156255865E+03  0.00000000000E+00 0.  1.
          2    1    1    2  501    0  0.63189200283E+02 -0.11735853251E+03  0.16413661934E+03  0.21143966041E+03  0.00000000000E+00 0. -1.
<scales pt_clust_3="37.27293" pt_clust_4="35.97639" pt_clust_5="35.97639" pt_clust_6="98.68032"></scales>
<clustering>
<clus scale="   35.976">  4  5 -1 -1</clus>
<clus scale="   37.273">  1  3  2 -1</clus>
<clus scale="   98.680">  1  6  2 -1</clus>
<clus scale="  109.656">  2  3  1 -1</clus>
</clustering>
</event>
<event>
 6    0  0.1361744E+002  0.8780405E+02  0.7546771E-02  0.1308258E+00
          1   -1    0    0  503    0 -0.00000000000E+00  0.00000000000E+00  0.26145970900E+03  0.26145970900E+03  0.00000000000E+00 0. -1.
         21   -1    0    0  504  502  0.00000000000E+00 -0.00000000000E+00 -0.16979522301E+04  0.16979522301E+04  0.00000000000E+00 0. -1.
         21    1    1    2  503  505 -0.96853282075E+02 -0.78484976087E+02 -0.86732451778E+02  0.15186496604E+03  0.00000000000E+00 0. -1.
         21    1    1    2  504  501  0.33741089596E+02  0.36781796037E+02 -0.11112290160E+04  0.11123494449E+04  0.00000000000E+00 0. -1.
         21    1    1    2  505  502 -0.21022025877E+02  0.23324216213E+02 -0.45818771019E+03  0.45926236772E+03  0.00000000000E+00 0. -1.
          1    1    1    2  501    0  0.84134218356E+02  0.18378963837E+02  0.21965665687E+03  0.23593516041E+03  0.00000000000E+00 0. -1.
<scales pt_clust_3="14000.00000" pt_clust_4="59.59520" pt_clust_5="31.39976" pt_clust_6="87.80405"></scales>
<clustering>
<clus scale="   31.400">  2  5  1 -1</clus>
<clus scale="   59.595">  2  4  1 -1</clus>
<clus scale="   87.804">  1  6  2 -1</clus>
<clus scale="   31.400">  2  3  1 -1</clus>
</clustering>
</event>
<event>
 6    0  0.1361744E+002  0.3036525E+03  0.7546771E-02  0.1083429E+00
         21   -1    0    0  503  502  0.00000000000E+00  0.00000000000E+00  0.17648722431E+03  0.17648722431E+03  0.00000000000E+00 0.  1.
          2   -1    0    0  504    0 -0.00000000000E+00 -0.00000000000E+00 -0.10055597850E+04  0.10055597850E+04  0.00000000000E+00 0.  1.
         21    1    1    2  503  505  0.11139845322E+03  0.18061883172E+03 -0.18544065001E+01  0.21221738047E+03  0.00000000000E+00 0.  1.
         21    1    1    2  504  502 -0.33767709415E+02  0.13249714188E+01 -0.44320166492E+02  0.55734109002E+02  0.00000000000E+00 0.  1.
         21    1    1    2  505  501  0.80765515681E+02  0.48574937119E+02 -0.13215230019E+02  0.95169508477E+02  0.00000000000E+00 0.  1.
          2    1    1    2  501    0 -0.15839625948E+03 -0.23051874025E+03 -0.76968275771E+03  0.81892601139E+03  0.00000000000E+00 0.  1.
<scales pt_clust_3="45.99132" pt_clust_4="33.79369" pt_clust_5="45.99132" pt_clust_6="295.63828"></scales>
<clustering>
<clus scale="   33.794">  2  4  1 -1</clus>
<clus scale="   45.991">  3  5 -1 -1</clus>
<clus scale="  295.638">  2  6  1 -1</clus>
<clus scale="  303.652">  1  3  2 -1</clus>
</clustering>
</event>
<event>
 6    0  0.1361744E+002  0.8505321E+02  0.7546771E-02  0.1315293E+00
          1   -1    0    0  503    0 -0.00000000000E+00  0.00000000000E+00  0.11398973478E+04  0.11398973478E+04  0.00000000000E+00 0. -1.
         21   -1    0    0  505  502  0.00000000000E+00 -0.00000000000E+00 -0.48955977295E+02  0.48955977295E+02  0.00000000000E+00 0. -1.
         21    1    1    2  503  502  0.27699520662E+02  0.57757530497E+02  0.36280261301E+03  0.36841407652E+03  0.00000000000E+00 0. -1.
         21    1    1    2  504  501  0.49735411011E+02  0.42981768492E+02  0.31494125121E+02  0.72889803459E+02  0.00000000000E+00 0. -1.
         21    1    1    2  505  504 -0.74657700437E+01  0.30263843321E+02 -0.39186737889E+01  0.31416459685E+02  0.00000000000E+00 0. -1.
          1    1    1    2  501    0 -0.69969161630E+02 -0.13100314231E+03  0.70056330614E+03  0.71613298540E+03  0.00000000000E+00 0. -1.
<scales pt_clust_3="66.23754" pt_clust_4="85.05321" pt_clust_5="31.17111" pt_clust_6="14000.00000"></scales>
<clustering>
<clus scale="   31.171">  2  5  1 -1</clus>
<clus scale="   66.238">  1  3  2 -1</clus>
<clus scale="   85.053">  2  4  1 -1</clus>
<clus scale="   31.171">  2  3  1 -1</clus>
</clustering>
</event>
<event>
 6    0  0.1510159E+002  0.1075895E+03  0.7546771E-02  0.1265100E+00
         21   -1    0    0  504  502  0.00000000000E+00  0.00000000000E+00  0.67578295977E+03  0.67578295977E+03  0.00000000000E+00 0.  1.
          2   -1    0    0  503    0 -0.00000000000E+00 -0.00000000000E+00 -0.24588996626E+03  0.24588996626E+03  0.00000000000E+00 0. -1.
         21    1    1    2  503  505 -0.46055713769E+02 -0.50948624361E+02  0.41356701739E+02  0.80170243069E+02  0.00000000000E+00 0.  1.
         21    1    1    2  504  501 -0.36902034239E+02  0.15535570799E+02 -0.23937850196E+02  0.46649059616E+02  0.00000000000E+00 0. -1.
         21    1    1    2  505  502  0.11643364254E+03  0.38299560888E+02  0.59590022726E+03  0.60837548466E+03  0.00000000000E+00 0.  1.
          2    1    1    2  501    0 -0.33475894530E+02 -0.28865073265E+01 -0.18342608530E+03  0.18647813868E+03  0.00000000000E+00 0. -1.
<scales pt_clust_3="14000.00000" pt_clust_4="57.97244" pt_clust_5="107.58954" pt_clust_6="33.60011"></scales>
<clustering>
<clus scale="   33.600">  2  6  1 -1</clus>
<clus scale="   57.972">  2  4  1 -1</clus>
<clus scale="  107.590">  1  5  2 -1</clus>
<clus scale="  107.590">  1  3  2 -1</clus>
</clustering>
</event>
<event>
 6    0  0.1361744E+002  0.1530296E+03  0.7546771E-02  0.1196799E+00
         21   -1    0    0  504  502  0.00000000000E+00  0.00000000000E+00  0.17232165973E+04  0.17232165973E+04  0.00000000000E+00 0.  1.
          1   -1    0    0  502    0 -0.00000000000E+00 -0.00000000000E+00 -0.14557236978E+04  0.14557236978E+04  0.00000000000E+00 0.  1.
         21    1    1    2  503  501  0.67606985283E+02 -0.31547182581E+02 -0.49143410035E+03  0.49706478871E+03  0.00000000000E+00 0.  1.
         21    1    1    2  504  505 -0.31286010909E+02  0.31460785757E+02  0.15908284523E+03  0.16515431319E+03  0.00000000000E+00 0.  1.
         21    1    1    2  505  503 -0.82495819672E+02  0.50630259090E+02  0.15555539670E+04  0.15585625196E+04  0.00000000000E+00 0.  1.
          1    1    1    2  501    0  0.46174845298E+02 -0.50543862266E+02 -0.95570981233E+03  0.95815867357E+03  0.00000000000E+00 0.  1.
<scales pt_clust_3="58.78969" pt_clust_4="44.36886" pt_clust_5="140.19082" pt_clust_6="58.78969"></scales>
<clustering>
<clus scale="   44.369">  1  4  2 -1</clus>
<clus scale="   58.790">  3  6 -1 -1</clus>
<clus scale="  140.191">  1  5  2 -1</clus>
<clus scale="   44.369">  1  3  2 -1</clus>
</clustering>
</event>
<event>
 6    0  0.1361744E+002  0.1366791E+03  0.7546771E-02  0.1217869E+00
          2   -1    0    0  503    0 -0.00000000000E+00  0.00000000000E+00  0.89165633784E+03  0.89165633784E+03  0.00000000000E+00 0.  1.
         21   -1    0    0  504  502  0.00000000000E+00 -0.00000000000E+00 -0.16204921713E+03  0.16204921713E+03  0.00000000000E+00 0. -1.
         21    1    1    2  503  502  0.96248829348E+02 -0.12373781516E+03 -0.84444701836E+02  0.17806120217E+03  0.00000000000E+00 0. -1.
         21    1    1    2  504  505  0.31954590995E+02  0.60462112417E+02  0.29935347567E+02  0.74651777993E+02  0.00000000000E+00 0. -1.
         21    1    1    2  505  501 -0.71366607114E+02  0.76002658146E+02  0.54520609107E+03  0.55508492900E+03  0.00000000000E+00 0.  1.
          2    1    1    2  501    0 -0.56836813229E+02 -0.12726955406E+02  0.23891038390E+03  0.24590764581E+03  0.00000000000E+00 0.  1.
<scales pt_clust_3="136.67908" pt_clust_4="65.43884" pt_clust_5="14000.00000" pt_clust_6="58.24430"></scales>
<clustering>
<clus scale="   58.244">  1  6  2 -1</clus>
<clus scale="   65.439">  2  4  1 -1</clus>
<clus scale="  136.679">  2  3  1 -1</clus>
<clus scale="   65.439">  2  3  1 -1</clus>
</clustering>
</event>
<event>
 6    0  0.1361744E+002  0.7662094E+02  0.7546771E-02  0.1338924E+00
         21   -1    0    0  503  502  0.00000000000E+00  0.00000000000E+00  0.19293750946E+03  0.19293750946E+03  0.00000000000E+00 0.  1.
          2   -1    0    0  502    0 -0.00000000000E+00 -0.00000000000E+00 -0.13144543069E+04  0.13144543069E+04  0.00000000000E+00 0.  1.
         21    1    1    2  503  505  0.11770026517E+02  0.33011720312E+02  0.12274396190E+03  0.12764947076E+03  0.00000000000E+00 0.  1.
         21    1    1    2  504  501  0.62524090469E+02 -0.69220334360E+02 -0.51159152743E+03  0.52002558352E+03  0.00000000000E+00 0. -1.
         21    1    1    2  505  504  0.74010512076E+01  0.49422245878E+02  0.51168131956E+02  0.71522805275E+02  0.00000000000E+00 0.  1.
          2    1    1    2  501    0 -0.81695168193E+02 -0.13213631830E+02 -0.78383736387E+03  0.78819395682E+03  0.00000000000E+00 0.  1.
<scales pt_clust_3="35.04721" pt_clust_4="76.62094" pt_clust_5="81.34743" pt_clust_6="14000.00000"></scales>
<clustering>
<clus scale="   35.047">  1  3  2 -1</clus>
<clus scale="   81.347">  1  5  2 -1</clus>
<clus scale="   76.621">  1  4  2 -1</clus>
<clus scale="   35.047">  1  3  2 -1</clus>
</clustering>
</event>
<event>
 6    0  0.1361744E+002  0.1685623E+03  0.7546771E-02  0.1179355E+00
         21   -1    0    0  504  502  0.00000000000E+00  0.00000000000E+00  0.22257768919E+03  0.22257768919E+03  0.00000000000E+00 0. -1.
          2   -1    0    0  505    0 -0.00000000000E+00 -0.00000000000E+00 -0.13407802703E+04  0.13407802703E+04  0.00000000000E+00 0. -1.
         21    1    1    2  503  502 -0.52571949364E+02  0.23915246643E+01  0.14450086281E+03  0.15378565799E+03  0.00000000000E+00 0. -1.
         21    1    1    2  504  501  0.35043140930E+02 -0.25337896791E+02  0.94261992241E+01  0.44259281194E+02  0.00000000000E+00 0. -1.
         21    1    1    2  505  503 -0.13010058850E+03 -0.10118881624E+03 -0.10819777734E+04  0.10944593377E+04  0.00000000000E+00 0. -1.
          2    1    1    2  501    0  0.14762939693E+03  0.12413518837E+03 -0.19015186969E+03  0.27085368260E+03  0.00000000000E+00 0. -1.
<scales pt_clust_3="30.90941" pt_clust_4="43.24385" pt_clust_5="14000.00000" pt_clust_6="168.56232"></scales>
<clustering>
<clus scale="   43.244">  1  4  2 -1</clus>
<clus scale="   30.909">  1  3  2 -1</clus>
<clus scale="  168.562">  1  6  2 -1</clus>
<clus scale="   43.244">  1  3  2 -1</clus>
</clustering>
</event>
<event>
 6    0  0.1361744E+002  0.8789579E+02  0.7546771E-02  0.1308029E+00
         21   -1    0    0  503  502  0.00000000000E+00  0.00000000000E+00  0.92872760336E+03  0.92872760336E+03  0.00000000000E+00 0.  1.
          1   -1    0    0  504    0 -0.00000000000E+00 -0.00000000000E+00 -0.84617339486E+02  0.84617339486E+02  0.00000000000E+00 0.  1.
         21    1    1    2  503  501 -0.51786804590E+02  0.22542579864E+02  0.17240018247E+03  0.18141627256E+03  0.00000000000E+00 0.  1.
         21    1    1    2  504  505  0.71479865046E+02 -0.11043216752E+03  0.47089513108E+02  0.13972135475E+03  0.00000000000E+00 0.  1.
         21    1    1    2  505  502 -0.38741543524E+02  0.24301854056E+02  0.62415290083E+03  0.62582611876E+03  0.00000000000E+00 0.  1.
          1    1    1    2  501    0  0.19048483068E+02  0.63587733598E+02  0.46766746697E+00  0.66381196766E+02  0.00000000000E+00 0.  1.
<scales pt_clust_3="87.89579" pt_clust_4="14000.00000" pt_clust_5="45.73278" pt_clust_6="67.89150"></scales>
<clustering>
<clus scale="   45.733">  1  5  2 -1</clus>
<clus scale="   67.891">  2  6  1 -1</clus>
<clus scale="   87.896">  1  3  2 -1</clus>
<clus scale="   45.733">  1  3  2 -1</clus>
</clustering>
</event>
<event>
 6    0  0.1361744E+002  0.1521805E+03  0.7546771E-02  0.1197819E+00
         21   -1    0    0  501  502  0.00000000000E+00  0.00000000000E+00  0.20993177641E+04  0.20993177641E+04  0.00000000000E+00 0. -1.
          2   -1    0    0  505    0 -0.00000000000E+00 -0.00000000000E+00 -0.35434752779E+04  0.35434752779E+04  0.00000000000E+00 0.  1.
         21    1    1    2  503  502 -0.24807444430E+02 -0.15042576428E+03  0.20254915737E+04  0.20312211685E+04  0.00000000000E+00 0. -1.
         21    1    1    2  504  503 -0.38308263862E+02  0.15105606484E+03 -0.27620805637E+02  0.15826675806E+03  0.00000000000E+00 0. -1.
         21    1    1    2  505  504 -0.10673669100E+03 -0.17338365184E+02 -0.13644607319E+04  0.13687389923E+04  0.00000000000E+00 0. -1.
          2    1    1    2  501    0  0.16985239929E+03  0.16708064626E+02 -0.20775675501E+04  0.20845661232E+04  0.00000000000E+00 0.  1.
<scales pt_clust_3="14000.00000" pt_clust_4="152.18054" pt_clust_5="108.13575" pt_clust_6="67.81353"></scales>
<clustering>
<clus scale="  108.136">  2  5  1 -1</clus>
<clus scale="   67.814">  2  6  1 -1</clus>
<clus scale="  152.181">  2  4  1 -1</clus>
<clus scale="  152.181">  1  3  2 -1</clus>
</clustering>
</event>
<event>
 6    0  0.1361744E+002  0.1158702E+03  0.7546771E-02  0.1250070E+00
         -1   -1    0    0    0  501 -0.00000000000E+00  0.00000000000E+00  0.18883660952E+04  0.18883660952E+04  0.00000000000E+00 0. -1.
         21   -1    0    0  504  502  0.00000000000E+00 -0.00000000000E+00 -0.22344887471E+04  0.22344887471E+04  0.00000000000E+00 0. -1.
         21    1    1    2  503  502 -0.42520977313E+02  0.55850013598E+02 -0.20991413040E+04  0.21003146125E+04  0.00000000000E+00 0. -1.
         21    1    1    2  504  505  0.75279848330E+02  0.56574864373E+02 -0.11508804491E+03  0.14870450203E+03  0.00000000000E+00 0. -1.
         21    1    1    2  505  501  0.29667191390E+02 -0.24271890633E+02  0.46479545252E+03  0.46637332643E+03  0.00000000000E+00 0. -1.
         -1    1    1    2    0  503 -0.62426062407E+02 -0.88152987338E+02  0.14033112445E+04  0.14074624014E+04  0.00000000000E+00 0. -1.
<scales pt_clust_3="70.17905" pt_clust_4="14000.00000" pt_clust_5="38.33102" pt_clust_6="115.87022"></scales>
<clustering>
<clus scale="   38.331">  1  5  2 -1</clus>
<clus scale="   70.179">  2  3  1 -1</clus>
<clus scale="  115.870">  1  6  2 -1</clus>
<clus scale="   70.179">  2  3  1 -1</clus>
</clustering>
</event>
<event>
 6    0  0.1361744E+002  0.7618977E+02  0.7546771E-02  0.1340226E+00
          2   -1    0    0  505    0 -0.00000000000E+00  0.00000000000E+00  0.21009784713E+04  0.21009784713E+04  0.00000000000E+00 0. -1.
         21   -1    0    0  504  502  0.00000000000E+00 -0.00000000000E+00 -0.50810336579E+03  0.50810336579E+03  0.00000000000E+00 0.  1.
         21    1    1    2  503  502 -0.50065408807E+02 -0.10394397722E+01 -0.37328719079E+03  0.37663105608E+03  0.00000000000E+00 0.  1.
         21    1    1    2  504  501 -0.21262946178E+02  0.28138360632E+02 -0.12570926900E+03  0.13056301364E+03  0.00000000000E+00 0. -1.
         21    1    1    2  505  503  0.12452089534E+03  0.80013469243E+01  0.93873460194E+03  0.94699109172E+03  0.00000000000E+00 0. -1.
          2    1    1    2  501    0 -0.53192540356E+02 -0.35100267784E+02  0.11531369634E+04  0.11548966757E+04  0.00000000000E+00 0. -1.
<scales pt_clust_3="76.18977" pt_clust_4="35.26869" pt_clust_5="14000.00000" pt_clust_6="63.73497"></scales>
<clustering>
<clus scale="   35.269">  2  4  1 -1</clus>
<clus scale="   63.735">  1  6  2 -1</clus>
<clus scale="   76.190">  2  3  1 -1</clus>
<clus scale="   35.269">  2  3  1 -1</clus>
</clustering>
</event>
<event>
 6    0  0.1361744E+002  0.1445481E+03  0.7546771E-02  0.1207337E+00
         21   -1    0    0  505  502  0.00000000000E+00  0.00000000000E+00  0.80472555757E+03  0.80472555757E+03  0.00000000000E+00 0. -1.
          2   -1    0    0  503    0 -0.00000000000E+00 -0.00000000000E+00 -0.78577537374E+03  0.78577537374E+03  0.00000000000E+00 0. -1.
         21    1    1    2  503  504  0.12751022425E+02 -0.38276044679E+02 -0.46574630801E+02  0.61618506988E+02  0.00000000000E+00 0. -1.
         21    1    1    2  504  502 -0.45182148510E+02  0.54533219280E+02  0.14101590181E+03  0.15779981975E+03  0.00000000000E+00 0.  1.
         21    1    1    2  505  501 -0.18631664263E+01  0.84407705912E+02  0.64110398911E+03  0.64663935625E+03  0.00000000000E+00 0. -1.
          2    1    1    2  501    0  0.34294292511E+02 -0.10066488051E+03 -0.71659507629E+03  0.72444324831E+03  0.00000000000E+00 0. -1.
<scales pt_clust_3="40.34407" pt_clust_4="70.38762" pt_clust_5="14000.00000" pt_clust_6="144.54814"></scales>
<clustering>
<clus scale="   40.344">  2  3  1 -1</clus>
<clus scale="   70.388">  1  4  2 -1</clus>
<clus scale="  144.548">  2  6  1 -1</clus>
<clus scale="   70.388">  1  3  2 -1</clus>
</clustering>
</event>
<event>
 6    0  0.1361744E+002  0.1176404E+03  0.7546771E-02  0.1247041E+00
         21   -1    0    0  505  502  0.00000000000E+00  0.00000000000E+00  0.31833982034E+03  0.31833982034E+03  0.00000000000E+00 0.  1.
          2   -1    0    0  503    0 -0.00000000000E+00 -0.00000000000E+00 -0.20627890247E+04  0.20627890247E+04  0.00000000000E+00 0. -1.
         21    1    1    2  503  502  0.32345647602E+02 -0.50416464768E+01 -0.19499514512E+03  0.19772396349E+03  0.00000000000E+00 0. -1.
         21    1    1    2  504  501 -0.13947835157E+03  0.12607129930E+03 -0.87114045150E+02  0.20721254771E+03  0.00000000000E+00 0.  1.
         21    1    1    2  505  504  0.35744535932E+02 -0.72724890632E+02  0.24942512159E+03  0.26225840854E+03  0.00000000000E+00 0.  1.
          2    1    1    2  501    0  0.71388168039E+02 -0.48304762189E+02 -0.17117651357E+04  0.17139339253E+04  0.00000000000E+00 0. -1.
<scales pt_clust_3="32.73621" pt_clust_4="117.64044" pt_clust_5="81.09911" pt_clust_6="14000.00000"></scales>
<clustering>
<clus scale="   32.736">  2  3  1 -1</clus>
<clus scale="   81.099">  1  5  2 -1</clus>
<clus scale="  117.640">  1  4  2 -1</clus>
<clus scale="   81.099">  1  3  2 -1</clus>
</clustering>
</event>
<event>
 6    0  0.1361744E+002  0.6981700E+02  0.7546771E-02  0.1360716E+00
          1   -1    0    0  504    0 -0.00000000000E+00  0.00000000000E+00  0.15313232502E+04  0.15313232502E+04  0.00000000000E+00 0.  1.
         21   -1    0    0  503  502  0.00000000000E+00 -0.00000000000E+00 -0.31291828435E+02  0.31291828435E+02  0.00000000000E+00 0. -1.
         21    1    1    2  503  501  0.15881655531E+02  0.61766878266E+02  0.40516025128E+02  0.75557412114E+02  0.00000000000E+00 0. -1.
         21    1    1    2  504  505 -0.24747652862E+02  0.62978228154E+02  0.97771190562E+03  0.98005064866E+03  0.00000000000E+00 0. -1.
         21    1    1    2  505  502  0.27918479258E+02 -0.36643982517E+02  0.59813022104E+02  0.75497155920E+02  0.00000000000E+00 0.  1.
          1    1    1    2  501    0 -0.19052481927E+02 -0.88101123903E+02  0.42199046888E+03  0.43150986191E+03  0.00000000000E+00 0.  1.
<scales pt_clust_3="50.32346" pt_clust_4="69.81700" pt_clust_5="46.06759" pt_clust_6="14000.00000"></scales>
<clustering>
<clus scale="   46.068">  2  5  1 -1</clus>
<clus scale="   50.323">  2  3  1 -1</clus>
<clus scale="   69.817">  1  4  2 -1</clus>
<clus scale="   46.068">  2  3  1 -1</clus>
</clustering>
</event>
<event>
 6    0  0.1361744E+002  0.1362921E+03  0.7546771E-02  0.1218407E+00
         21   -1    0    0  505  502  0.00000000000E+00  0.00000000000E+00  0.28263488993E+03  0.28263488993E+03  0.00000000000E+00 0.  1.
          2   -1    0    0  504    0 -0.00000000000E+00 -0.00000000000E+00 -0.21326453308E+04  0.21326453308E+04  0.00000000000E+00 0. -1.
         21    1    1    2  503  502  0.85501859664E+02 -0.10980257955E+03  0.24998306330E+03  0.28610960560E+03  0.00000000000E+00 0.  1.
         21    1    1    2  504  503 -0.14161898376E+02  0.62004865996E+02 -0.49182096394E+03  0.49591634712E+03  0.00000000000E+00 0. -1.
         21    1    1    2  505  501 -0.88043287462E+02 -0.70376351431E+01 -0.15085334628E+03  0.17480812584E+03  0.00000000000E+00 0. -1.
          2    1    1    2  501    0  0.16703326173E+02  0.54835348698E+02 -0.14573191940E+04  0.14584461422E+04  0.00000000000E+00 0. -1.
<scales pt_clust_3="14000.00000" pt_clust_4="136.29210" pt_clust_5="84.24061" pt_clust_6="57.32291"></scales>
<clustering>
<clus scale="   57.323">  2  6  1 -1</clus>
<clus scale="   84.241">  2  5  1 -1</clus>
<clus scale="  136.292">  2  4  1 -1</clus>
<clus scale="  136.292">  1  3  2 -1</clus>
</clustering>
</event>
<event>
 6    0  0.1361744E+002  0.8084365E+02  0.7546771E-02  0.1326674E+00
          1   -1    0    0  503    0 -0.00000000000E+00  0.00000000000E+00  0.11943519724E+04  0.11943519724E+04  0.00000000000E+00 0. -1.
         21   -1    0    0  505  502  0.00000000000E+00 -0.00000000000E+00 -0.18008669452E+03  0.18008669452E+03  0.00000000000E+00 0.  1.
         21    1    1    2  503  504 -0.24976048572E+02  0.55116187189E+02  0.23367022160E+03  0.24137806354E+03  0.00000000000E+00 0.  1.
         21    1    1    2  504  502  0.23659682641E+02 -0.44282810478E+02  0.28487159804E+02  0.57725784189E+02  0.00000000000E+00 0. -1.
         21    1    1    2  505  501 -0.82385988793E+02 -0.13480948606E+02 -0.14875968026E+03  0.17058320432E+03  0.00000000000E+00 0.  1.
          1    1    1    2  501    0  0.83702354724E+02  0.26475718954E+01  0.90086757671E+03  0.90475161486E+03  0.00000000000E+00 0. -1.
<scales pt_clust_3="59.34429" pt_clust_4="50.20705" pt_clust_5="80.84365" pt_clust_6="14000.00000"></scales>
<clustering>
<clus scale="   50.207">  2  4  1 -1</clus>
<clus scale="   59.344">  1  3  2 -1</clus>
<clus scale="   80.844">  2  5  1 -1</clus>
<clus scale="   50.207">  2  3  1 -1</clus>
</clustering>
</event>
<event>
 6    0  0.1361744E+002  0.2320665E+03  0.7546771E-02  0.1125194E+00
          1   -1    0    0  504    0 -0.00000000000E+00  0.00000000000E+00  0.17357206568E+03  0.17357206568E+03  0.00000000000E+00 0. -1.
         21   -1    0    0  505  502  0.00000000000E+00 -0.00000000000E+00 -0.37975556470E+03  0.37975556470E+03  0.00000000000E+00 0. -1.
         21    1    1    2  503  502  0.26353455567E+01 -0.10370345519E+03 -0.54230261924E+02  0.11705670836E+03  0.00000000000E+00 0. -1.
         21    1    1    2  504  503  0.49949109752E+02 -0.10196675886E+03 -0.17888504483E+03  0.21187730586E+03  0.00000000000E+00 0. -1.
         21    1    1    2  505  501  0.11924760613E+02  0.37389095070E+02 -0.98376977132E+01  0.40458925370E+02  0.00000000000E+00 0. -1.
          1    1    1    2  501    0 -0.64509215922E+02  0.16828111898E+03  0.36769505449E+02  0.18393469078E+03  0.00000000000E+00 0. -1.
<scales pt_clust_3="89.61218" pt_clust_4="89.61218" pt_clust_5="31.51774" pt_clust_6="222.77157"></scales>
<clustering>
<clus scale="   31.518">  5  6 -1 -1</clus>
<clus scale="   89.612">  3  4 -1 -1</clus>
<clus scale="  222.772">  1  5  2 -1</clus>
<clus scale="  232.066">  2  3  1 -1</clus>
</clustering>
</event>
<event>
 6    0  0.1361744E+002  0.6909278E+02  0.7546771E-02  0.1363206E+00
         21   -1    0    0  504  502  0.00000000000E+00  0.00000000000E+00  0.91053406977E+02  0.91053406977E+02  0.00000000000E+00 0.  1.
          2   -1    0    0  503    0 -0.00000000000E+00 -0.00000000000E+00 -0.11572897607E+04  0.11572897607E+04  0.00000000000E+00 0.  1.
         21    1    1    2  503  505  0.40852760333E+02 -0.82967122161E+01 -0.92624310116E+02  0.10157286195E+03  0.00000000000E+00 0.  1.
         21    1    1    2  504  501  0.34752606832E+02 -0.60985531621E+02  0.65346373796E+02  0.95901654402E+02  0.00000000000E+00 0.  1.
         21    1    1    2  505  502  0.36629398038E+01  0.61406601808E+02 -0.23302128636E+03  0.24100437292E+03  0.00000000000E+00 0. -1.
          2    1    1    2  501    0 -0.79268306969E+02  0.78756420299E+01 -0.80593713106E+03  0.80986427841E+03  0.00000000000E+00 0.  1.
<scales pt_clust_3="41.68673" pt_clust_4="14000.00000" pt_clust_5="69.09278" pt_clust_6="48.16221"></scales>
<clustering>
<clus scale="   41.687">  2  3  1 -1</clus>
<clus scale="   48.162">  2  6  1 -1</clus>
<clus scale="   69.093">  2  5  1 -1</clus>
<clus scale="   69.093">  1  3  2 -1</clus>
</clustering>
</event>
<event>
 6    0  0.1361744E+002  0.1316672E+03  0.7546771E-02  0.1225003E+00
         21   -1    0    0  504  502  0.00000000000E+00  0.00000000000E+00  0.12897143774E+04  0.12897143774E+04  0.00000000000E+00 0.  1.
         -3   -1    0    0    0  501 -0.00000000000E+00 -0.00000000000E+00 -0.15264691290E+03  0.15264691290E+03  0.00000000000E+00 0.  1.
         21    1    1    2  503  502  0.42835445532E+02 -0.69455269678E+02  0.86795279294E+03  0.87178033968E+03  0.00000000000E+00 0.  1.
         21    1    1    2  504  501 -0.14414111879E+03  0.58180374188E+02  0.15936466147E+02  0.15625488478E+03  0.00000000000E+00 0. -1.
         21    1    1    2  505  503  0.58726397908E+01 -0.46247030922E+02  0.29247848466E+03  0.29617045726E+03  0.00000000000E+00 0.  1.
         -3    1    1    2    0  505  0.95433033462E+02  0.57521926412E+02 -0.39300279225E+02  0.11815560859E+03  0.00000000000E+00 0.  1.
<scales pt_clust_3="31.60820" pt_clust_4="124.84971" pt_clust_5="31.60820" pt_clust_6="111.42816"></scales>
<clustering>
<clus scale="   31.608">  3  5 -1 -1</clus>
<clus scale="  111.428">  2  6  1 -1</clus>
<clus scale="  124.850">  2  4  1 -1</clus>
<clus scale="  131.667">  1  3  2 -1</clus>
</clustering>
</event>
<event>
 6    0  0.1361744E+002  0.1424173E+03  0.7546771E-02  0.1210113E+00
         21   -1    0    0  504  502  0.00000000000E+00  0.00000000000E+00  0.29029070212E+03  0.29029070212E+03  0.00000000000E+00 0. -1.
          1   -1    0    0  503    0 -0.00000000000E+00 -0.00000000000E+00 -0.85248192809E+03  0.85248192809E+03  0.00000000000E+00 0. -1.
         21    1    1    2  503  505 -0.42467622023E+02  0.39984324241E+02 -0.62527891560E+02  0.85510129974E+02  0.00000000000E+00 0. -1.
         21    1    1    2  504  501  0.57642088376E+02  0.14634646681E+02  0.56255387939E+01  0.59736336701E+02  0.00000000000E+00 0. -1.
         21    1    1    2  505  502 -0.15075633136E+03  0.84507067113E+02  0.20095560479E+03  0.26505107231E+03  0.00000000000E+00 0. -1.
          1    1    1    2  501    0  0.13558186500E+03 -0.13912603804E+03 -0.70624447799E+03  0.73247509123E+03  0.00000000000E+00 0. -1.
<scales pt_clust_3="58.32877" pt_clust_4="58.40730" pt_clust_5="142.41726" pt_clust_6="14000.00000"></scales>
<clustering>
<clus scale="   58.329">  2  3  1 -1</clus>
<clus scale="   58.407">  1  4  2 -1</clus>
<clus scale="  142.417">  1  5  2 -1</clus>
<clus scale="   58.407">  1  3  2 -1</clus>
</clustering>
</event>
<event>
 6    0  0.1361744E+002  0.2778504E+03  0.7546771E-02  0.1096869E+00
         -3   -1    0    0    0  501 -0.00000000000E+00  0.00000000000E+00  0.17245166921E+03  0.17245166921E+03  0.00000000000E+00 0.  1.
         21   -1    0    0  501  502  0.00000000000E+00 -0.00000000000E+00 -0.13606248045E+04  0.13606248045E+04  0.00000000000E+00 0. -1.
         21    1    1    2  503  502 -0.86180907208E+02  0.51952565149E+02 -0.52870460298E+03  0.53819585190E+03  0.00000000000E+00 0. -1.
         21    1    1    2  504  503 -0.88301371421E+02  0.12541501554E+03 -0.69774629281E+03  0.71440601023E+03  0.00000000000E+00 0. -1.
         21    1    1    2  505  504  0.86038093984E+02 -0.10572001975E+03 -0.40328244662E+02  0.14214655645E+03  0.00000000000E+00 0.  1.
         -3    1    1    2    0  505  0.88444184645E+02 -0.71647560945E+02  0.78606005166E+02  0.13832805513E+03  0.00000000000E+00 0.  1.
<scales pt_clust_3="43.81613" pt_clust_4="254.61662" pt_clust_5="113.02346" pt_clust_6="113.02346"></scales>
<clustering>
<clus scale="   43.816">  3  4 -1 -1</clus>
<clus scale="  113.023">  5  6 -1 -1</clus>
<clus scale="  254.617">  2  3  1 -1</clus>
<clus scale="  254.617">  2  3  1 -1</clus>
</clustering>
</event>
<event>
 6    0  0.1361744E+002  0.1444891E+03  0.7546771E-02  0.1207413E+00
         21   -1    0    0  504  502  0.00000000000E+00  0.00000000000E+00  0.32127551942E+04  0.32127551942E+04  0.00000000000E+00 0.  1.
         -3   -1    0    0    0  501 -0.00000000000E+00 -0.00000000000E+00 -0.10268215214E+02  0.10268215214E+02  0.00000000000E+00 0.  1.
         21    1    1    2  503  505  0.19298926476E+01 -0.87083999357E+02  0.93991619773E+03  0.94394375160E+03  0.00000000000E+00 0.  1.
         21    1    1    2  504  501 -0.41283293731E+02  0.41413128756E+02  0.34619948737E+03  0.35110317947E+03  0.00000000000E+00 0. -1.
         21    1    1    2  505  502 -0.33224032309E+02 -0.45530649067E+02  0.12652822329E+04  0.12665370130E+04  0.00000000000E+00 0.  1.
         -3    1    1    2    0  503  0.72577433392E+02  0.91201519668E+02  0.65108906100E+03  0.66143946540E+03  0.00000000000E+00 0.  1.
<scales pt_clust_3="55.49337" pt_clust_4="58.47527" pt_clust_5="55.49337" pt_clust_6="126.95654"></scales>
<clustering>
<clus scale="   55.493">  3  5 -1 -1</clus>
<clus scale="   58.475">  2  4  1 -1</clus>
<clus scale="  126.957">  2  6  1 -1</clus>
<clus scale="  144.489">  1  3  2 -1</clus>
</clustering>
</event>
<event>
 6    0  0.1361744E+002  0.1875337E+03  0.7546771E-02  0.1160705E+00
          2   -1    0    0  503    0 -0.00000000000E+00  0.00000000000E+00  0.14073799143E+04  0.14073799143E+04  0.00000000000E+00 0.  1.
         21   -1    0    0  505  502  0.00000000000E+00 -0.00000000000E+00 -0.30121939307E+03  0.30121939307E+03  0.00000000000E+00 0. -1.
         21    1    1    2  503  502  0.25264648908E+02 -0.18424210709E+03 -0.21694006977E+03  0.28573843000E+03  0.00000000000E+00 0. -1.
         21    1    1    2  504  501 -0.62126609744E+00  0.14365158731E+03  0.89226682185E+03  0.90375674043E+03  0.00000000000E+00 0.  1.
         21    1    1    2  505  504 -0.39476122409E+02  0.78144367684E+01 -0.34120446470E+02  0.52760160441E+02  0.00000000000E+00 0. -1.
          2    1    1    2  501    0  0.14832739598E+02  0.32776083004E+02  0.46495421568E+03  0.46634397654E+03  0.00000000000E+00 0.  1.
<scales pt_clust_3="177.11734" pt_clust_4="30.84231" pt_clust_5="40.24214" pt_clust_6="30.84231"></scales>
<clustering>
<clus scale="   30.842">  4  6 -1 -1</clus>
<clus scale="   40.242">  2  5  1 -1</clus>
<clus scale="  177.117">  2  3  1 -1</clus>
<clus scale="   40.242">  2  3  1 -1</clus>
</clustering>
</event>
<event>
 6    0  0.1928893E+002  0.1516072E+03  0.7546771E-02  0.1198512E+00
          2   -1    0    0  505    0 -0.00000000000E+00  0.00000000000E+00  0.11447313637E+04  0.11447313637E+04  0.00000000000E+00 0.  1.
         21   -1    0    0  504  502  0.00000000000E+00 -0.00000000000E+00 -0.71459417876E+03  0.71459417876E+03  0.00000000000E+00 0.  1.
         21    1    1    2  503  502  0.32116580846E+01 -0.43292308851E+02 -0.29126590568E+02  0.52277117665E+02  0.00000000000E+00 0. -1.
         21    1    1    2  504  501  0.83141218714E+02 -0.82569539868E+02 -0.66122564796E+03  0.67152777209E+03  0.00000000000E+00 0.  1.
         21    1    1    2  505  503 -0.32815583717E+02  0.15590241945E+02  0.80335702235E+02  0.88168833678E+02  0.00000000000E+00 0.  1.
          2    1    1    2  501    0 -0.53537293082E+02  0.11027160677E+03  0.10401537213E+04  0.10473518191E+04  0.00000000000E+00 0.  1.
<scales pt_clust_3="43.21645" pt_clust_4="151.60716" pt_clust_5="36.33068" pt_clust_6="14000.00000"></scales>
<clustering>
<clus scale="   36.331">  1  5  2 -1</clus>
<clus scale="   43.216">  2  3  1 -1</clus>
<clus scale="  151.607">  2  4  1 -1</clus>
<clus scale="   43.216">  2  3  1 -1</clus>
</clustering>
</event>
<event>
 6    0  0.1361744E+002  0.1256982E+03  0.7546771E-02  0.1233982E+00
          2   -1    0    0  504    0 -0.00000000000E+00  0.00000000000E+00  0.17353495630E+04  0.17353495630E+04  0.00000000000E+00 0. -1.
         21   -1    0    0  503  502  0.00000000000E+00 -0.00000000000E+00 -0.87806798928E+03  0.87806798928E+03  0.00000000000E+00 0. -1.
         21    1    1    2  503  501 -0.18228929484E+02 -0.16023654158E+03 -0.40484822964E+03  0.43578679670E+03  0.00000000000E+00 0. -1.
         21    1    1    2  504  505  0.20508276359E+02  0.28048553487E+02  0.68377530725E+03  0.68465756518E+03  0.00000000000E+00 0. -1.
         21    1    1    2  505  502  0.23091145044E+02  0.10809287645E+03 -0.45032867359E+03  0.46369514250E+03  0.00000000000E+00 0. -1.
          2    1    1    2  501    0 -0.25370491920E+02  0.24095111643E+02  0.10286831697E+04  0.10292780479E+04  0.00000000000E+00 0. -1.
<scales pt_clust_3="125.69821" pt_clust_4="34.74638" pt_clust_5="14000.00000" pt_clust_6="51.82370"></scales>
<clustering>
<clus scale="   34.746">  1  4  2 -1</clus>
<clus scale="   51.824">  1  6  2 -1</clus>
<clus scale="  125.698">  1  3  2 -1</clus>
<clus scale="  125.698">  2  3  1 -1</clus>
</clustering>
</event>
<event>
 6    0  0.1361744E+002  0.1175817E+03  0.7546771E-02  0.1247141E+00
          2   -1    0    0  505    0 -0.00000000000E+00  0.00000000000E+00  0.30978975050E+03  0.30978975050E+03  0.00000000000E+00 0. -1.
         21   -1    0    0  503  502  0.00000000000E+00 -0.00000000000E+00 -0.54493595318E+03  0.54493595318E+03  0.00000000000E+00 0. -1.
         21    1    1    2  503  501 -0.15988279807E+02 -0.52642834682E+02 -0.10645823369E+03  0.11983425493E+03  0.00000000000E+00 0. -1.
         21    1    1    2  504  502 -0.85667156874E+02 -0.18170284466E+02 -0.39100417454E+03  0.40069101002E+03  0.00000000000E+00 0. -1.
         21    1    1    2  505  504  0.41300503417E+02 -0.26609501949E+02  0.19542060072E+03  0.20150188178E+03  0.00000000000E+00 0. -1.
          2    1    1    2  501    0  0.60354933263E+02  0.97422621098E+02  0.66895604836E+02  0.13269855695E+03  0.00000000000E+00 0. -1.
<scales pt_clust_3="55.89787" pt_clust_4="117.58171" pt_clust_5="49.13041" pt_clust_6="14000.00000"></scales>
<clustering>
<clus scale="   49.130">  1  5  2 -1</clus>
<clus scale="   55.898">  2  3  1 -1</clus>
<clus scale="  117.582">  2  4  1 -1</clus>
<clus scale="   55.898">  2  3  1 -1</clus>
</clustering>
</event>
<event>
 6    0  0.1361744E+002  0.1480871E+03  0.7546771E-02  0.1202843E+00
         -3   -1    0    0    0  501 -0.00000000000E+00  0.00000000000E+00  0.17187503238E+03  0.17187503238E+03  0.00000000000E+00 0. -1.
         21   -1    0    0  504  502  0.00000000000E+00 -0.00000000000E+00 -0.74642946097E+03  0.74642946097E+03  0.00000000000E+00 0.  1.
         21    1    1    2  503  505  0.33562576624E+02  0.82077913324E+02 -0.53321443950E+03  0.54053757399E+03  0.00000000000E+00 0.  1.
         21    1    1    2  504  503  0.67212222038E+02  0.46300943469E+02 -0.14539100987E+03  0.16673273796E+03  0.00000000000E+00 0.  1.
         21    1    1    2  505  501 -0.19403671972E+02 -0.29761560094E+02  0.70351428990E+02  0.78813555346E+02  0.00000000000E+00 0. -1.
         -3    1    1    2    0  502 -0.81371126690E+02 -0.98617296698E+02  0.33699591790E+02  0.13222062605E+03  0.00000000000E+00 0. -1.
<scales pt_clust_3="14000.00000" pt_clust_4="78.02626" pt_clust_5="35.52820" pt_clust_6="148.08709"></scales>
<clustering>
<clus scale="   35.528">  1  5  2 -1</clus>
<clus scale="   78.026">  2  4  1 -1</clus>
<clus scale="  148.087">  1  6  2 -1</clus>
<clus scale="   78.026">  2  3  1 -1</clus>
</clustering>
</event>
<event>
 6    0  0.1361744E+002  0.1480528E+03  0.7546771E-02  0.1202886E+00
         21   -1    0    0  504  502  0.00000000000E+00  0.00000000000E+00  0.41807172482E+03  0.41807172482E+03  0.00000000000E+00 0. -1.
          1   -1    0    0  503    0 -0.00000000000E+00 -0.00000000000E+00 -0.30030268349E+03  0.30030268349E+03  0.00000000000E+00 0. -1.
         21    1    1    2  503  502 -0.60575065601E+02 -0.12078424593E+01  0.26401985690E+02  0.66089804844E+02  0.00000000000E+00 0. -1.
         21    1    1    2  504  505 -0.11845217961E+03  0.61885394161E+02  0.22630901183E+03  0.26282406606E+03  0.00000000000E+00 0. -1.
         21    1    1    2  505  501  0.99995290528E+02 -0.10901777095E+03  0.70666456670E+02  0.16394413868E+03  0.00000000000E+00 0. -1.
          1    1    1    2  501    0  0.79031954685E+02  0.48340219246E+02 -0.20560841285E+03  0.22551639873E+03  0.00000000000E+00 0. -1.
<scales pt_clust_3="60.58711" pt_clust_4="14000.00000" pt_clust_5="148.05280" pt_clust_6="91.24697"></scales>
<clustering>
<clus scale="   60.587">  1  3  2 -1</clus>
<clus scale="   91.247">  2  6  1 -1</clus>
<clus scale="  148.053">  2  5  1 -1</clus>
<clus scale="   60.587">  1  3  2 -1</clus>
</clustering>
</event>
<event>
 6    0  0.1361744E+002  0.1842674E+03  0.7546771E-02  0.1163736E+00
          1   -1    0    0  504    0 -0.00000000000E+00  0.00000000000E+00  0.49673323395E+03  0.49673323395E+03  0.00000000000E+00 0.  1.
         21   -1    0    0  503  502  0.00000000000E+00 -0.00000000000E+00 -0.13384118816E+03  0.13384118816E+03  0.00000000000E+00 0.  1.
         21    1    1    2  503  505 -0.19896048491E+02 -0.22577257660E+02  0.26675401075E+00  0.30094126781E+02  0.00000000000E+00 0.  1.
         21    1    1    2  504  502  0.17822945526E+03  0.81391646654E+02  0.24584192592E+00  0.19593468123E+03  0.00000000000E+00 0.  1.
         21    1    1    2  505  501 -0.39492144388E+02 -0.41266602696E+02  0.86637470785E+02  0.10377192930E+03  0.00000000000E+00 0.  1.
          1    1    1    2  501    0 -0.11884126239E+03 -0.17547786298E+02  0.27574197907E+03  0.30077368481E+03  0.00000000000E+00 0.  1.
<scales pt_clust_3="30.09294" pt_clust_4="173.62252" pt_clust_5="42.92724" pt_clust_6="42.92724"></scales>
<clustering>
<clus scale="   30.093">  2  3  1 -1</clus>
<clus scale="   42.927">  5  6 -1 -1</clus>
<clus scale="  173.623">  2  4  1 -1</clus>
<clus scale="   30.093">  2  3  1 -1</clus>
</clustering>
</event>
<event>
 6    0  0.1361744E+002  0.7481018E+02  0.7546771E-02  0.1344460E+00
          1   -1    0    0  503    0 -0.00000000000E+00  0.00000000000E+00  0.93904612389E+03  0.93904612389E+03  0.00000000000E+00 0.  1.
         21   -1    0    0  501  502  0.00000000000E+00 -0.00000000000E+00 -0.95890585388E+03  0.95890585388E+03  0.00000000000E+00 0. -1.
         21    1    1    2  503  505  0.37508102595E+02  0.18129605554E+02  0.31703321709E+03  0.31975866070E+03  0.00000000000E+00 0. -1.
         21    1    1    2  504  502  0.35555166499E+02 -0.48986847232E+02 -0.33678594750E+03  0.34218219635E+03  0.00000000000E+00 0. -1.
         21    1    1    2  505  504 -0.72741499487E+02  0.11347080810E+03 -0.60788273438E+03  0.62264626298E+03  0.00000000000E+00 0. -1.
          1    1    1    2  501    0 -0.32176960697E+00 -0.82613566418E+02  0.60777573480E+03  0.61336485773E+03  0.00000000000E+00 0.  1.
<scales pt_clust_3="41.65982" pt_clust_4="60.56226" pt_clust_5="74.81018" pt_clust_6="14000.00000"></scales>
<clustering>
<clus scale="   41.660">  1  3  2 -1</clus>
<clus scale="   60.562">  2  4  1 -1</clus>
<clus scale="   74.810">  2  5  1 -1</clus>
<clus scale="   60.562">  2  3  1 -1</clus>
</clustering>
</event>
<event>
 6    0  0.1361744E+002  0.8611583E+02  0.7546771E-02  0.1312540E+00
          1   -1    0    0  504    0 -0.00000000000E+00  0.00000000000E+00  0.10754105590E+04  0.10754105590E+04  0.00000000000E+00 0. -1.
         21   -1    0    0  503  502  0.00000000000E+00 -0.00000000000E+00 -0.31472131141E+02  0.31472131141E+02  0.00000000000E+00 0. -1.
         21    1    1    2  503  505  0.57305148084E+02 -0.43093796981E+02  0.52675855679E+02  0.88970225956E+02  0.00000000000E+00 0. -1.
         21    1    1    2  504  502  0.30056578251E+02  0.12194971082E+02  0.78831870887E+02  0.85244231965E+02  0.00000000000E+00 0.  1.
         21    1    1    2  505  501 -0.11077265246E+03 -0.28055742292E+02  0.38985874102E+03  0.40626043760E+03  0.00000000000E+00 0. -1.
          1    1    1    2  501    0  0.23410926128E+02  0.58954568190E+02  0.52257196028E+03  0.52640779463E+03  0.00000000000E+00 0. -1.
<scales pt_clust_3="14000.00000" pt_clust_4="32.43633" pt_clust_5="86.11583" pt_clust_6="64.97392"></scales>
<clustering>
<clus scale="   32.436">  2  4  1 -1</clus>
<clus scale="   64.974">  1  6  2 -1</clus>
<clus scale="   86.116">  1  5  2 -1</clus>
<clus scale="   32.436">  2  3  1 -1</clus>
</clustering>
</event>
<event>
 6    0  0.1361744E+002  0.7757753E+02  0.7546771E-02  0.1336070E+00
         21   -1    0    0  504  502  0.00000000000E+00  0.00000000000E+00  0.28004233931E+03  0.28004233931E+03  0.00000000000E+00 0. -1.
          2   -1    0    0  505    0 -0.00000000000E+00 -0.00000000000E+00 -0.42373887839E+03  0.42373887839E+03  0.00000000000E+00 0. -1.
         21    1    1    2  503  502 -0.54508343876E+02  0.25266107327E+02  0.60597224923E+02  0.85332053766E+02  0.00000000000E+00 0. -1.
         21    1    1    2  504  501  0.79847787616E+02 -0.50087853602E+02  0.18003680352E+03  0.20321838718E+03  0.00000000000E+00 0. -1.
         21    1    1    2  505  503  0.41616863339E+02 -0.12874197746E+02 -0.30562964877E+02  0.53214688798E+02  0.00000000000E+00 0.  1.
          2    1    1    2  501    0 -0.66956307079E+02  0.37695944021E+02 -0.35376760265E+03  0.36201608796E+03  0.00000000000E+00 0. -1.
<scales pt_clust_3="14000.00000" pt_clust_4="77.57753" pt_clust_5="43.56269" pt_clust_6="37.92238"></scales>
<clustering>
<clus scale="   43.563">  2  5  1 -1</clus>
<clus scale="   37.922">  2  6  1 -1</clus>
<clus scale="   77.578">  1  4  2 -1</clus>
<clus scale="   77.578">  1  3  2 -1</clus>
</clustering>
</event>
<event>
 6    0  0.1361744E+002  0.1453395E+03  0.7546771E-02  0.1206320E+00
          1   -1    0    0  505    0 -0.00000000000E+00  0.00000000000E+00  0.13835778278E+04  0.13835778278E+04  0.00000000000E+00 0.  1.
         21   -1    0    0  503  502  0.00000000000E+00 -0.00000000000E+00 -0.96463676151E+02  0.96463676151E+02  0.00000000000E+00 0. -1.
         21    1    1    2  503  501 -0.49278827244E+02  0.31048533219E+02  0.42298391914E+03  0.42697518673E+03  0.00000000000E+00 0. -1.
         21    1    1    2  504  502  0.27939744432E+02 -0.21600549532E+02 -0.34548625932E+02  0.49404661853E+02  0.00000000000E+00 0.  1.
         21    1    1    2  505  504  0.75722056744E+02 -0.65745732499E+02 -0.12956256590E+01  0.10028962990E+03  0.00000000000E+00 0. -1.
          1    1    1    2  501    0 -0.54382973932E+02  0.56297748812E+02  0.89997448407E+03  0.90337202544E+03  0.00000000000E+00 0.  1.
<scales pt_clust_3="30.24843" pt_clust_4="31.11125" pt_clust_5="31.11125" pt_clust_6="140.01703"></scales>
<clustering>
<clus scale="   30.248">  3  6 -1 -1</clus>
<clus scale="   31.111">  4  5 -1 -1</clus>
<clus scale="  140.017">  1  3  2 -1</clus>
<clus scale="  145.340">  2  3  1 -1</clus>
</clustering>
</event>
<event>
 6    0  0.1460097E+003  0.9606314E+02  0.7546771E-02  0.1288799E+00
          2   -1    0    0  505    0 -0.00000000000E+00  0.00000000000E+00  0.10189926804E+04  0.10189926804E+04  0.00000000000E+00 0. -1.
         21   -1    0    0  504  502  0.00000000000E+00 -0.00000000000E+00 -0.12850226827E+04  0.12850226827E+04  0.00000000000E+00 0. -1.
         21    1    1    2  503  502  0.33544394870E+02  0.11547049490E+02 -0.10645644562E+02  0.37039040582E+02  0.00000000000E+00 0. -1.
         21    1    1    2  504  501 -0.10093237254E+03 -0.80531088623E+02 -0.12523477986E+04  0.12589867389E+04  0.00000000000E+00 0. -1.
         21    1    1    2  505  503  0.27537447667E+02  0.17904213780E+02  0.56927073730E+02  0.65723387151E+02  0.00000000000E+00 0.  1.
          2    1    1    2  501    0  0.39850530003E+02  0.51079825352E+02  0.94003636719E+03  0.94226619643E+03  0.00000000000E+00 0. -1.
<scales pt_clust_3="35.91548" pt_clust_4="96.06314" pt_clust_5="32.84619" pt_clust_6="14000.00000"></scales>
<clustering>
<clus scale="   32.846">  1  5  2 -1</clus>
<clus scale="   35.915">  2  3  1 -1</clus>
<clus scale="   96.063">  2  4  1 -1</clus>
<clus scale="   35.915">  2  3  1 -1</clus>
</clustering>
</event>
<event>
 6    0  0.1361744E+002  0.8397412E+02  0.7546771E-02  0.1318137E+00
          2   -1    0    0  505    0 -0.00000000000E+00  0.00000000000E+00  0.82166000280E+02  0.82166000280E+02  0.00000000000E+00 0.  1.
         21   -1    0    0  504  502  0.00000000000E+00 -0.00000000000E+00 -0.28779035912E+03  0.28779035912E+03  0.00000000000E+00 0.  1.
         21    1    1    2  503  502  0.22132996954E+02  0.74004742539E+02 -0.14363632840E+03  0.16308882950E+03  0.00000000000E+00 0.  1.
         21    1    1    2  504  501 -0.28963228671E+02  0.31107539202E+02 -0.50589131929E+02  0.66074260341E+02  0.00000000000E+00 0.  1.
         21    1    1    2  505  503 -0.38612891391E+02 -0.41143420711E+02 -0.24007392556E+02  0.61319583713E+02  0.00000000000E+00 0. -1.
          2    1    1    2  501    0  0.45443123108E+02 -0.63968861030E+02  0.12608494046E+02  0.79473685842E+02  0.00000000000E+00 0.  1.
<scales pt_clust_3="83.97412" pt_clust_4="42.50350" pt_clust_5="56.44579" pt_clust_6="14000.00000"></scales>
<clustering>
<clus scale="   42.504">  2  4  1 -1</clus>
<clus scale="   56.446">  1  5  2 -1</clus>
<clus scale="   83.974">  2  3  1 -1</clus>
<clus scale="   42.504">  2  3  1 -1</clus>
</clustering>
</event>
<event>
 6    0  0.1361744E+002  0.5008683E+03  0.7546771E-02  0.1013553E+00
          2   -1    0    0  504    0 -0.00000000000E+00  0.00000000000E+00  0.23477104718E+04  0.23477104718E+04  0.00000000000E+00 0.  1.
         21   -1    0    0  503  502  0.00000000000E+00 -0.00000000000E+00 -0.17583386422E+03  0.17583386422E+03  0.00000000000E+00 0. -1.
         21    1    1    2  503  501  0.19791180507E+01  0.46500007681E+02  0.28889382375E+03  0.29261888015E+03  0.00000000000E+00 0. -1.
         21    1    1    2  504  505  0.44941142098E+01 -0.43507213135E+03  0.25631194582E+03  0.50497897987E+03  0.00000000000E+00 0. -1.
         21    1    1    2  505  502  0.73732869599E+02 -0.66752002672E+02  0.16256753277E+03  0.19057955984E+03  0.00000000000E+00 0. -1.
          2    1    1    2  501    0 -0.80206101859E+02  0.45532412635E+03  0.14641033053E+04  0.15353669162E+04  0.00000000000E+00 0.  1.
<scales pt_clust_3="32.64489" pt_clust_4="490.18652" pt_clust_5="99.46037" pt_clust_6="32.64489"></scales>
<clustering>
<clus scale="   32.645">  3  6 -1 -1</clus>
<clus scale="   99.460">  2  5  1 -1</clus>
<clus scale="  490.187">  2  4  1 -1</clus>
<clus scale="   99.460">  2  3  1 -1</clus>
</clustering>
</event>
<event>
 6    0  0.1361744E+002  0.9636359E+02  0.7546771E-02  0.1288134E+00
         21   -1    0    0  504  502  0.00000000000E+00  0.00000000000E+00  0.30401241222E+03  0.30401241222E+03  0.00000000000E+00 0.  1.
          2   -1    0    0  505    0 -0.00000000000E+00 -0.00000000000E+00 -0.18750650955E+04  0.18750650955E+04  0.00000000000E+00 0.  1.
         21    1    1    2  503  501  0.26623521613E+02  0.72075521560E+02  0.23092734575E+03  0.24337446811E+03  0.00000000000E+00 0.  1.
         21    1    1    2  504  503  0.51871389435E+02 -0.15972648933E+02  0.52424601972E+02  0.75459296629E+02  0.00000000000E+00 0.  1.
         21    1    1    2  505  502 -0.10727561679E+03 -0.44694854940E+02 -0.14352141065E+04  0.14399115318E+04  0.00000000000E+00 0.  1.
          2    1    1    2  501    0  0.28780705738E+02 -0.11408017687E+02 -0.41919052456E+03  0.42033221119E+03  0.00000000000E+00 0.  1.
<scales pt_clust_3="96.36359" pt_clust_4="54.51917" pt_clust_5="14000.00000" pt_clust_6="30.95920"></scales>
<clustering>
<clus scale="   30.959">  2  6  1 -1</clus>
<clus scale="   54.519">  1  4  2 -1</clus>
<clus scale="   96.364">  1  3  2 -1</clus>
<clus scale="   54.519">  1  3  2 -1</clus>
</clustering>
</event>
<event>
 6    0  0.1361744E+002  0.1345654E+03  0.7546771E-02  0.1220835E+00
          2   -1    0    0  504    0 -0.00000000000E+00  0.00000000000E+00  0.34987417740E+04  0.34987417740E+04  0.00000000000E+00 0.  1.
         21   -1    0    0  505  502  0.00000000000E+00 -0.00000000000E+00 -0.81733988080E+01  0.81733988080E+01  0.00000000000E+00 0.  1.
         21    1    1    2  503  502 -0.49615258113E+02 -0.70306951829E+02  0.46318098629E+03  0.47110653506E+03  0.00000000000E+00 0.  1.
         21    1    1    2  504  503  0.82512812310E+01 -0.45388338340E+02  0.20126242465E+03  0.20648183570E+03  0.00000000000E+00 0.  1.
         21    1    1    2  505  501 -0.12739237857E+02  0.35653146370E+02  0.74935644973E+03  0.75031228417E+03  0.00000000000E+00 0. -1.
          2    1    1    2  501    0  0.54103214739E+02  0.80042143800E+02  0.20767685145E+04  0.20790145179E+04  0.00000000000E+00 0.  1.
<scales pt_clust_3="132.81925" pt_clust_4="36.93452" pt_clust_5="34.35321" pt_clust_6="34.35321"></scales>
<clustering>
<clus scale="   34.353">  5  6 -1 -1</clus>
<clus scale="   36.935">  3  4 -1 -1</clus>
<clus scale="  132.819">  2  3  1 -1</clus>
<clus scale="  132.819">  2  3  1 -1</clus>
</clustering>
</event>
<event>
 6    0  0.1361744E+002  0.6470396E+02  0.7546771E-02  0.1379089E+00
         21   -1    0    0  501  502  0.00000000000E+00  0.00000000000E+00  0.15949989072E+04  0.15949989072E+04  0.00000000000E+00 0.  1.
          2   -1    0    0  505    0 -0.00000000000E+00 -0.00000000000E+00 -0.11737773379E+03  0.11737773379E+03  0.00000000000E+00 0. -1.
         21    1    1    2  503  504 -0.42096365360E+02  0.32618023191E+02  0.16730486718E+03  0.17557607466E+03  0.00000000000E+00 0. -1.
         21    1    1    2  504  502  0.69025180294E+02 -0.10613458840E+01  0.13795513831E+04  0.13812775321E+04  0.00000000000E+00 0.  1.
         21    1    1    2  505  503  0.47143906692E+02  0.14942835680E+02 -0.39010297461E+02  0.62989202125E+02  0.00000000000E+00 0. -1.
          2    1    1    2  501    0 -0.74072721626E+02 -0.46499512986E+02 -0.30224779421E+02  0.92533832127E+02  0.00000000000E+00 0. -1.
<scales pt_clust_3="14000.00000" pt_clust_4="64.70396" pt_clust_5="49.45540" pt_clust_6="44.68874"></scales>
<clustering>
<clus scale="   49.455">  2  5  1 -1</clus>
<clus scale="   44.689">  2  6  1 -1</clus>
<clus scale="   64.704">  1  4  2 -1</clus>
<clus scale="   64.704">  1  3  2 -1</clus>
</clustering>
</event>
<event>
 6    0  0.1361744E+002  0.9869796E+02  0.7546771E-02  0.1283058E+00
         21   -1    0    0  503  502  0.00000000000E+00  0.00000000000E+00  0.48791375166E+03  0.48791375166E+03  0.00000000000E+00 0.  1.
          2   -1    0    0  504    0 -0.00000000000E+00 -0.00000000000E+00 -0.72516898396E+03  0.72516898396E+03  0.00000000000E+00 0.  1.
         21    1    1    2  503  501  0.21129380692E+02 -0.38719327548E+02  0.10578444518E+02  0.45360120620E+02  0.00000000000E+00 0. -1.
         21    1    1    2  504  505  0.39865834517E+02  0.27464114829E+02 -0.10315138374E+03  0.11394634848E+03  0.00000000000E+00 0.  1.
         21    1    1    2  505  502  0.49483719968E+02 -0.31165745580E+02  0.44677983466E+03  0.45059090415E+03  0.00000000000E+00 0.  1.
          2    1    1    2  501    0 -0.11047893518E+03  0.42420958300E+02 -0.59146212774E+03  0.60318536237E+03  0.00000000000E+00 0.  1.
<scales pt_clust_3="44.10938" pt_clust_4="48.35951" pt_clust_5="14000.00000" pt_clust_6="98.69796"></scales>
<clustering>
<clus scale="   44.109">  1  3  2 -1</clus>
<clus scale="   48.360">  2  4  1 -1</clus>
<clus scale="   98.698">  2  6  1 -1</clus>
<clus scale="   44.109">  1  3  2 -1</clus>
</clustering>
</event>
<event>
 6    0  0.1361744E+002  0.1010782E+03  0.7546771E-02  0.1278045E+00
          1   -1    0    0  505    0 -0.00000000000E+00  0.00000000000E+00  0.56763483775E+03  0.56763483775E+03  0.00000000000E+00 0.  1.
         21   -1    0    0  504  502  0.00000000000E+00 -0.00000000000E+00 -0.11253982935E+03  0.11253982935E+03  0.00000000000E+00 0.  1.
         21    1    1    2  503  501  0.40232283439E+02  0.42288485533E+02 -0.11089938367E+02  0.59413292893E+02  0.00000000000E+00 0.  1.
         21    1    1    2  504  503  0.50165453521E+02  0.79039204603E+01 -0.48346329769E+02  0.70117132626E+02  0.00000000000E+00 0.  1.
         21    1    1    2  505  502 -0.51915564285E+02  0.28521987524E+02  0.48813009889E+02  0.76755713284E+02  0.00000000000E+00 0.  1.
          1    1    1    2  501    0 -0.38482172675E+02 -0.78714393518E+02  0.46571826665E+03  0.47388852830E+03  0.00000000000E+00 0.  1.
<scales pt_clust_3="47.14335" pt_clust_4="47.14335" pt_clust_5="59.23453" pt_clust_6="87.53493"></scales>
<clustering>
<clus scale="   47.143">  3  4 -1 -1</clus>
<clus scale="   59.235">  2  5  1 -1</clus>
<clus scale="   87.535">  1  6  2 -1</clus>
<clus scale="   59.235">  2  3  1 -1</clus>
</clustering>
</event>
<event>
 6    0  0.1361744E+002  0.9699718E+02  0.7546771E-02  0.1286740E+00
          2   -1    0    0  505    0 -0.00000000000E+00  0.00000000000E+00  0.13279532730E+04  0.13279532730E+04  0.00000000000E+00 0. -1.
         21   -1    0    0  503  502  0.00000000000E+00 -0.00000000000E+00 -0.16658597455E+03  0.16658597455E+03  0.00000000000E+00 0. -1.
         21    1    1    2  503  501  0.72543983821E+02 -0.12979202243E+02 -0.13342162418E+03  0.15242184580E+03  0.00000000000E+00 0. -1.
         21    1    1    2  504  502  0.24290901733E+02  0.22457416723E+02 -0.12772265863E+01  0.33106113946E+02  0.00000000000E+00 0. -1.
         21    1    1    2  505  504 -0.12848707858E+03  0.33837858423E+01  0.12034500982E+04  0.12102943932E+04  0.00000000000E+00 0. -1.
          2    1    1    2  501    0  0.31652193025E+02 -0.12862000321E+02  0.92616051022E+02  0.98716894615E+02  0.00000000000E+00 0. -1.
<scales pt_clust_3="96.99718" pt_clust_4="33.08147" pt_clust_5="14000.00000" pt_clust_6="34.45796"></scales>
<clustering>
<clus scale="   33.081">  2  4  1 -1</clus>
<clus scale="   34.458">  1  6  2 -1</clus>
<clus scale="   96.997">  2  3  1 -1</clus>
<clus scale="   33.081">  2  3  1 -1</clus>
</clustering>
</event>
<event>
 6    0  0.1361744E+002  0.1384782E+03  0.7546771E-02  0.1215391E+00
          1   -1    0    0  505    0 -0.00000000000E+00  0.00000000000E+00  0.16469975568E+04  0.16469975568E+04  0.00000000000E+00 0. -1.
         21   -1    0    0  504  502  0.00000000000E+00 -0.00000000000E+00 -0.51858814150E+02  0.51858814150E+02  0.00000000000E+00 0. -1.
         21    1    1    2  503  502  0.10976870355E+03  0.54049778247E+02  0.41052161470E+02  0.12905745530E+03  0.00000000000E+00 0. -1.
         21    1    1    2  504  501  0.73404524313E+01  0.33575723511E+02  0.84853610024E+02  0.91549694622E+02  0.00000000000E+00 0. -1.
         21    1    1    2  505  503 -0.46619579836E+02 -0.78679556646E-01  0.29654916711E+03  0.30019127224E+03  0.00000000000E+00 0.  1.
          1    1    1    2  501    0 -0.70489576148E+02 -0.87546822201E+02  0.11726838041E+04  0.11780579488E+04  0.00000000000E+00 0. -1.
<scales pt_clust_3="14000.00000" pt_clust_4="34.36876" pt_clust_5="46.35909" pt_clust_6="138.47820"></scales>
<clustering>
<clus scale="   34.369">  2  4  1 -1</clus>
<clus scale="   46.359">  1  5  2 -1</clus>
<clus scale="  138.478">  1  6  2 -1</clus>
<clus scale="   34.369">  2  3  1 -1</clus>
</clustering>
</event>
<event>
 6    0  0.1361744E+002  0.7654293E+02  0.7546771E-02  0.1339159E+00
         21   -1    0    0  501  502  0.00000000000E+00  0.00000000000E+00  0.14325289638E+03  0.14325289638E+03  0.00000000000E+00 0.  1.
          1   -1    0    0  504    0 -0.00000000000E+00 -0.00000000000E+00 -0.78668381981E+03  0.78668381981E+03  0.00000000000E+00 0.  1.
         21    1    1    2  503  502  0.18307381409E+02  0.24534808498E+02  0.58566286799E+02  0.66084241628E+02  0.00000000000E+00 0.  1.
         21    1    1    2  504  505 -0.11832046707E+03 -0.36448920774E+02 -0.10260723485E+03  0.16079956902E+03  0.00000000000E+00 0.  1.
         21    1    1    2  505  503  0.32753576893E+02 -0.16998079042E+02  0.42909446042E+02  0.56594629162E+02  0.00000000000E+00 0.  1.
          1    1    1    2  501    0  0.67259508773E+02  0.28912191319E+02 -0.64229942143E+03  0.64645827638E+03  0.00000000000E+00 0.  1.
<scales pt_clust_3="30.61237" pt_clust_4="14000.00000" pt_clust_5="44.05008" pt_clust_6="76.54293"></scales>
<clustering>
<clus scale="   30.612">  1  3  2 -1</clus>
<clus scale="   44.050">  1  5  2 -1</clus>
<clus scale="   76.543">  2  6  1 -1</clus>
<clus scale="   30.612">  1  3  2 -1</clus>
</clustering>
</event>
<event>
 6    0  0.1361744E+002  0.1770877E+03  0.7546771E-02  0.1170652E+00
         -2   -1    0    0    0  501 -0.00000000000E+00  0.00000000000E+00  0.44827015563E+03  0.44827015563E+03  0.00000000000E+00 0.  1.
         21   -1    0    0  505  502  0.00000000000E+00 -0.00000000000E+00 -0.92844883584E+03  0.92844883584E+03  0.00000000000E+00 0. -1.
         21    1    1    2  503  502  0.98714060594E+02  0.24994175705E+02 -0.11044191261E+03  0.15022180481E+03  0.00000000000E+00 0.  1.
         21    1    1    2  504  501 -0.48196421850E+02  0.74084718474E+01  0.42156034476E+02  0.64458605143E+02  0.00000000000E+00 0. -1.
         21    1    1    2  505  504  0.27816225126E+02 -0.15550861218E+03 -0.76438494747E+03  0.78053892841E+03  0.00000000000E+00 0. -1.
         -2    1    1    2    0  503 -0.78333863869E+02  0.12310596463E+03  0.35249214539E+03  0.38149965311E+03  0.00000000000E+00 0.  1.
<scales pt_clust_3="99.57244" pt_clust_4="48.76249" pt_clust_5="14000.00000" pt_clust_6="177.08774"></scales>
<clustering>
<clus scale="   48.762">  1  4  2 -1</clus>
<clus scale="   99.572">  2  3  1 -1</clus>
<clus scale="  177.088">  1  6  2 -1</clus>
<clus scale="   99.572">  2  3  1 -1</clus>
</clustering>
</event>
<event>
 6    0  0.1361744E+002  0.2006835E+03  0.7546771E-02  0.1149164E+00
         21   -1    0    0  503  502  0.00000000000E+00  0.00000000000E+00  0.50275482634E+02  0.50275482634E+02  0.00000000000E+00 0.  1.
          2   -1    0    0  505    0 -0.00000000000E+00 -0.00000000000E+00 -0.29175554794E+04  0.29175554794E+04  0.00000000000E+00 0.  1.
         21    1    1    2  503  501  0.10153523008E+02  0.35751438437E+02 -0.46189840187E+03  0.46339118790E+03  0.00000000000E+00 0.  1.
         21    1    1    2  504  502 -0.83569786673E+02 -0.53129614566E+02 -0.54112477913E+02  0.11284868388E+03  0.00000000000E+00 0.  1.
         21    1    1    2  505  504 -0.72604488050E+02 -0.55873315062E+02 -0.10483620914E+03  0.13922596657E+03  0.00000000000E+00 0.  1.
          2    1    1    2  501    0  0.14602075171E+03  0.73251491191E+02 -0.22464329078E+04  0.22523651236E+04  0.00000000000E+00 0.  1.
<scales pt_clust_3="30.17304" pt_clust_4="195.64494" pt_clust_5="43.06739" pt_clust_6="30.17304"></scales>
<clustering>
<clus scale="   30.173">  3  6 -1 -1</clus>
<clus scale="   43.067">  4  5 -1 -1</clus>
<clus scale="  195.645">  1  4  2 -1</clus>
<clus scale="  195.645">  1  3  2 -1</clus>
</clustering>
</event>
<event>
 6    0  0.1361744E+002  0.1476885E+03  0.7546771E-02  0.1203342E+00
         21   -1    0    0  501  502  0.00000000000E+00  0.00000000000E+00  0.55575799784E+03  0.55575799784E+03  0.00000000000E+00 0. -1.
          1   -1    0    0  503    0 -0.00000000000E+00 -0.00000000000E+00 -0.77566889141E+03  0.77566889141E+03  0.00000000000E+00 0.  1.
         21    1    1    2  503  505  0.12681811893E+03 -0.55307283038E+02 -0.26363465579E+02  0.14084304442E+03  0.00000000000E+00 0. -1.
         21    1    1    2  504  502  0.18929227649E+02 -0.30684476497E+02  0.10595583783E+03  0.11192181345E+03  0.00000000000E+00 0. -1.
         21    1    1    2  505  504 -0.60714663751E+02 -0.39843761142E+02  0.37771014705E+03  0.38462806824E+03  0.00000000000E+00 0. -1.
          1    1    1    2  501    0 -0.85032682824E+02  0.12583552068E+03 -0.67721341286E+03  0.69403396313E+03  0.00000000000E+00 0.  1.
<scales pt_clust_3="14000.00000" pt_clust_4="36.05347" pt_clust_5="79.65430" pt_clust_6="147.68849"></scales>
<clustering>
<clus scale="   36.053">  1  4  2 -1</clus>
<clus scale="   79.654">  1  5  2 -1</clus>
<clus scale="  147.688">  2  6  1 -1</clus>
<clus scale="   36.053">  1  3  2 -1</clus>
</clustering>
</event>
<event>
 6    0  0.1361744E+002  0.2569020E+03  0.7546771E-02  0.1109019E+00
          1   -1    0    0  505    0 -0.00000000000E+00  0.00000000000E+00  0.93805783290E+03  0.93805783290E+03  0.00000000000E+00 0. -1.
         21   -1    0    0  504  502  0.00000000000E+00 -0.00000000000E+00 -0.20408945529E+03  0.20408945529E+03  0.00000000000E+00 0. -1.
         21    1    1    2  503  501  0.10093605456E+03  0.68289309084E+02  0.37196324264E+03  0.39141815329E+03  0.00000000000E+00 0. -1.
         21    1    1    2  504  503  0.25705328459E+02 -0.18140483540E+02 -0.12394694074E+02  0.33815225793E+02  0.00000000000E+00 0. -1.
         21    1    1    2  505  502 -0.12390893237E+03 -0.18528937866E+03 -0.84606258077E+02  0.23841937058E+03  0.00000000000E+00 0. -1.
          1    1    1    2  501    0 -0.27324506486E+01  0.13514055311E+03  0.45900608712E+03  0.47849453852E+03  0.00000000000E+00 0. -1.
<scales pt_clust_3="117.83257" pt_clust_4="31.46174" pt_clust_5="225.36244" pt_clust_6="117.83257"></scales>
<clustering>
<clus scale="   31.462">  2  4  1 -1</clus>
<clus scale="  117.833">  3  6 -1 -1</clus>
<clus scale="  225.362">  2  5  1 -1</clus>
<clus scale="   31.462">  2  3  1 -1</clus>
</clustering>
</event>
<event>
 6    0  0.1361744E+002  0.1498013E+03  0.7546771E-02  0.1200717E+00
          2   -1    0    0  503    0 -0.00000000000E+00  0.00000000000E+00  0.21702033525E+04  0.21702033525E+04  0.00000000000E+00 0.  1.
         21   -1    0    0  504  502  0.00000000000E+00 -0.00000000000E+00 -0.72162756271E+03  0.72162756271E+03  0.00000000000E+00 0.  1.
         21    1    1    2  503  502 -0.11133573260E+03 -0.39133695417E+02  0.32095273289E+03  0.34196161806E+03  0.00000000000E+00 0.  1.
         21    1    1    2  504  505 -0.16761086386E+01  0.75104179195E+02 -0.46555606925E+03  0.47157809606E+03  0.00000000000E+00 0.  1.
         21    1    1    2  505  501  0.35512590211E+02  0.58990839114E+02 -0.23557626456E+03  0.24543275980E+03  0.00000000000E+00 0.  1.
          2    1    1    2  501    0  0.77499251031E+02 -0.94961322892E+02  0.18287553907E+04  0.18328584413E+04  0.00000000000E+00 0.  1.
<scales pt_clust_3="118.01310" pt_clust_4="55.75547" pt_clust_5="55.75547" pt_clust_6="138.01737"></scales>
<clustering>
<clus scale="   55.755">  4  5 -1 -1</clus>
<clus scale="  118.013">  1  3  2 -1</clus>
<clus scale="  138.017">  1  6  2 -1</clus>
<clus scale="  149.801">  2  3  1 -1</clus>
</clustering>
</event>
<event>
 6    0  0.1361744E+002  0.1590195E+03  0.7546771E-02  0.1189808E+00
          2   -1    0    0  505    0 -0.00000000000E+00  0.00000000000E+00  0.76709786863E+03  0.76709786863E+03  0.00000000000E+00 0.  1.
         21   -1    0    0  501  502  0.00000000000E+00 -0.00000000000E+00 -0.26122608943E+03  0.26122608943E+03  0.00000000000E+00 0.  1.
         21    1    1    2  503  502 -0.28895606702E+02 -0.15179892808E+02 -0.95502479207E+01  0.34008711644E+02  0.00000000000E+00 0. -1.
         21    1    1    2  504  503  0.86329789668E+02 -0.13911413748E+03 -0.18839624283E+03  0.24959711566E+03  0.00000000000E+00 0.  1.
         21    1    1    2  505  504  0.37032971592E+02  0.13669026737E+03  0.33755011875E+03  0.36605430314E+03  0.00000000000E+00 0.  1.
          2    1    1    2  501    0 -0.94467154557E+02  0.17603762921E+02  0.36626815121E+03  0.37866382762E+03  0.00000000000E+00 0.  1.
<scales pt_clust_3="32.64024" pt_clust_4="159.01953" pt_clust_5="14000.00000" pt_clust_6="96.75808"></scales>
<clustering>
<clus scale="   32.640">  2  3  1 -1</clus>
<clus scale="   96.758">  1  6  2 -1</clus>
<clus scale="  159.020">  2  4  1 -1</clus>
<clus scale="   32.640">  2  3  1 -1</clus>
</clustering>
</event>
<event>
 6    0  0.1361744E+002  0.1184300E+03  0.7546771E-02  0.1245710E+00
         -3   -1    0    0    0  501 -0.00000000000E+00  0.00000000000E+00  0.27024565326E+02  0.27024565326E+02  0.00000000000E+00 0. -1.
         21   -1    0    0  501  502  0.00000000000E+00 -0.00000000000E+00 -0.20979714758E+04  0.20979714758E+04  0.00000000000E+00 0. -1.
         21    1    1    2  503  504 -0.63875342485E+02  0.60327858587E+01 -0.86125699187E+03  0.86364347964E+03  0.00000000000E+00 0.  1.
         21    1    1    2  504  502 -0.41087792992E+02  0.32820196621E+02 -0.10133872181E+04  0.10147507211E+04  0.00000000000E+00 0. -1.
         21    1    1    2  505  503  0.11358985154E+03 -0.79601546567E+01 -0.17235795029E+03  0.20657512304E+03  0.00000000000E+00 0. -1.
         -3    1    1    2    0  505 -0.86267160598E+01 -0.30892827823E+02 -0.23944750159E+02  0.40026717340E+02  0.00000000000E+00 0. -1.
<scales pt_clust_3="35.35313" pt_clust_4="35.35313" pt_clust_5="111.70773" pt_clust_6="32.07471"></scales>
<clustering>
<clus scale="   32.075">  1  6  2 -1</clus>
<clus scale="   35.353">  3  4 -1 -1</clus>
<clus scale="  111.708">  1  5  2 -1</clus>
<clus scale="  118.430">  2  3  1 -1</clus>
</clustering>
</event>
<event>
 6    0  0.1361744E+002  0.1612780E+03  0.7546771E-02  0.1187261E+00
          2   -1    0    0  505    0 -0.00000000000E+00  0.00000000000E+00  0.75914518611E+03  0.75914518611E+03  0.00000000000E+00 0.  1.
         21   -1    0    0  503  502  0.00000000000E+00 -0.00000000000E+00 -0.34889772788E+03  0.34889772788E+03  0.00000000000E+00 0.  1.
         21    1    1    2  503  504 -0.32025646519E+02  0.40198691361E+01 -0.32670754056E+02  0.45925804875E+02  0.00000000000E+00 0.  1.
         21    1    1    2  504  501  0.19463140501E+02 -0.43837818067E+02  0.12116011322E+03  0.13030863811E+03  0.00000000000E+00 0.  1.
         21    1    1    2  505  502  0.17272529387E+02  0.14196657794E+03 -0.28373598033E+03  0.31774039098E+03  0.00000000000E+00 0.  1.
          2    1    1    2  501    0 -0.47100233685E+01 -0.10214862901E+03  0.60549407940E+03  0.61406808003E+03  0.00000000000E+00 0.  1.
<scales pt_clust_3="32.27695" pt_clust_4="46.04000" pt_clust_5="146.52615" pt_clust_6="46.04000"></scales>
<clustering>
<clus scale="   32.277">  2  3  1 -1</clus>
<clus scale="   46.040">  4  6 -1 -1</clus>
<clus scale="  146.526">  2  5  1 -1</clus>
<clus scale="   32.277">  2  3  1 -1</clus>
</clustering>
</event>
<event>
 6    0  0.1361744E+002  0.2033946E+03  0.7546771E-02  0.1146906E+00
         21   -1    0    0  505  502  0.00000000000E+00  0.00000000000E+00  0.43256786214E+03  0.43256786214E+03  0.00000000000E+00 0. -1.
          3   -1    0    0  503    0 -0.00000000000E+00 -0.00000000000E+00 -0.50694929212E+03  0.50694929212E+03  0.00000000000E+00 0.  1.
         21    1    1    2  503  504  0.20225016080E+03 -0.27747464516E+02  0.21471688711E+03  0.29627418204E+03  0.00000000000E+00 0. -1.
         21    1    1    2  504  502 -0.43317316820E+02 -0.87165115999E+00  0.44808921417E+02  0.62329681138E+02  0.00000000000E+00 0. -1.
         21    1    1    2  505  501 -0.69637967705E+02 -0.17859389483E+03 -0.17766890197E+02  0.19251204690E+03  0.00000000000E+00 0. -1.
          3    1    1    2  501    0 -0.89294876276E+02  0.20721301051E+03 -0.31614034831E+03  0.38840124418E+03  0.00000000000E+00 0.  1.
<scales pt_clust_3="175.35297" pt_clust_4="43.32609" pt_clust_5="14000.00000" pt_clust_6="203.39463"></scales>
<clustering>
<clus scale="   43.326">  1  4  2 -1</clus>
<clus scale="  175.353">  1  3  2 -1</clus>
<clus scale="  203.395">  2  6  1 -1</clus>
<clus scale="   43.326">  1  3  2 -1</clus>
</clustering>
</event>
<event>
 6    0  0.1361744E+002  0.1868507E+03  0.7546771E-02  0.1161333E+00
          1   -1    0    0  504    0 -0.00000000000E+00  0.00000000000E+00  0.25739591904E+03  0.25739591904E+03  0.00000000000E+00 0. -1.
         21   -1    0    0  503  502  0.00000000000E+00 -0.00000000000E+00 -0.47200531640E+03  0.47200531640E+03  0.00000000000E+00 0. -1.
         21    1    1    2  503  501  0.53706334494E+02 -0.18972907846E+03  0.36992663510E+02  0.20062390369E+03  0.00000000000E+00 0. -1.
         21    1    1    2  504  505  0.62641463503E+02  0.24916265265E+02 -0.12161405024E+03  0.13904945322E+03  0.00000000000E+00 0. -1.
         21    1    1    2  505  502  0.27105233681E+02  0.36792021252E+02 -0.18434197280E+03  0.18992185092E+03  0.00000000000E+00 0. -1.
          1    1    1    2  501    0 -0.14345303168E+03  0.12802079194E+03  0.54353962164E+02  0.19980602761E+03  0.00000000000E+00 0. -1.
<scales pt_clust_3="186.85071" pt_clust_4="120.88437" pt_clust_5="43.18075" pt_clust_6="14000.00000"></scales>
<clustering>
<clus scale="   43.181">  4  5 -1 -1</clus>
<clus scale="  120.884">  2  4  1 -1</clus>
<clus scale="  186.851">  2  3  1 -1</clus>
<clus scale="  120.884">  2  3  1 -1</clus>
</clustering>
</event>
<event>
 6    0  0.1361744E+002  0.9679921E+02  0.7546771E-02  0.1287174E+00
         -1   -1    0    0    0  501 -0.00000000000E+00  0.00000000000E+00  0.10486325050E+03  0.10486325050E+03  0.00000000000E+00 0.  1.
         21   -1    0    0  505  502  0.00000000000E+00 -0.00000000000E+00 -0.13879222616E+04  0.13879222616E+04  0.00000000000E+00 0.  1.
         21    1    1    2  503  504 -0.74184433558E+01  0.70915382254E+02 -0.93085433907E+03  0.93358118303E+03  0.00000000000E+00 0.  1.
         21    1    1    2  504  501  0.18709212258E+02 -0.82770902514E+02 -0.15034268613E+01  0.84872358390E+02  0.00000000000E+00 0.  1.
         21    1    1    2  505  503 -0.65866818412E+02  0.17567659559E+01 -0.39676830252E+03  0.40220220025E+03  0.00000000000E+00 0.  1.
         -1    1    1    2    0  502  0.54576049510E+02  0.10098754305E+02  0.46067057321E+02  0.72129770476E+02  0.00000000000E+00 0.  1.
<scales pt_clust_3="96.79921" pt_clust_4="14000.00000" pt_clust_5="62.67108" pt_clust_6="55.50252"></scales>
<clustering>
<clus scale="   55.503">  1  6  2 -1</clus>
<clus scale="   62.671">  2  5  1 -1</clus>
<clus scale="   96.799">  2  3  1 -1</clus>
<clus scale="   62.671">  2  3  1 -1</clus>
</clustering>
</event>
<event>
 6    0  0.1361744E+002  0.9062448E+02  0.7546771E-02  0.1301346E+00
          2   -1    0    0  503    0 -0.00000000000E+00  0.00000000000E+00  0.93978587835E+03  0.93978587835E+03  0.00000000000E+00 0. -1.
         21   -1    0    0  505  502  0.00000000000E+00 -0.00000000000E+00 -0.28945505295E+03  0.28945505295E+03  0.00000000000E+00 0. -1.
         21    1    1    2  503  504 -0.16721343778E+02  0.25438367693E+02  0.21330970138E+02  0.37171550622E+02  0.00000000000E+00 0. -1.
         21    1    1    2  504  502 -0.32337621910E+02  0.22932451269E+02 -0.59612410056E+02  0.71590911048E+02  0.00000000000E+00 0.  1.
         21    1    1    2  505  501 -0.22276846604E+01  0.62151390829E+02 -0.20724412477E+03  0.21637440979E+03  0.00000000000E+00 0. -1.
          2    1    1    2  501    0  0.51286650348E+02 -0.11052220979E+03  0.89585639009E+03  0.90410405984E+03  0.00000000000E+00 0. -1.
<scales pt_clust_3="30.44198" pt_clust_4="39.83023" pt_clust_5="90.62448" pt_clust_6="14000.00000"></scales>
<clustering>
<clus scale="   30.442">  1  3  2 -1</clus>
<clus scale="   39.830">  2  4  1 -1</clus>
<clus scale="   90.624">  2  5  1 -1</clus>
<clus scale="   39.830">  2  3  1 -1</clus>
</clustering>
</event>
<event>
 6    0  0.1361744E+002  0.1708629E+03  0.7546771E-02  0.1176951E+00
         21   -1    0    0  503  502  0.00000000000E+00  0.00000000000E+00  0.93129563819E+02  0.93129563819E+02  0.00000000000E+00 0. -1.
          2   -1    0    0  504    0 -0.00000000000E+00 -0.00000000000E+00 -0.14091283694E+04  0.14091283694E+04  0.00000000000E+00 0. -1.
         21    1    1    2  503  501 -0.12020106341E+03  0.61060765495E+02 -0.13941045821E+03  0.19393810504E+03  0.00000000000E+00 0. -1.
         21    1    1    2  504  505 -0.41008464244E+02  0.29836763675E+01 -0.75847265229E+03  0.75958630895E+03  0.00000000000E+00 0. -1.
         21    1    1    2  505  502  0.18046343599E+03 -0.10207160229E+03 -0.10439259807E+03  0.23212815050E+03  0.00000000000E+00 0. -1.
          2    1    1    2  501    0 -0.19253908339E+02  0.38027160424E+02 -0.31372309703E+03  0.31660536876E+03  0.00000000000E+00 0. -1.
<scales pt_clust_3="170.86286" pt_clust_4="41.11686" pt_clust_5="14000.00000" pt_clust_6="55.58491"></scales>
<clustering>
<clus scale="   41.117">  2  4  1 -1</clus>
<clus scale="   55.585">  2  6  1 -1</clus>
<clus scale="  170.863">  1  3  2 -1</clus>
<clus scale="  170.863">  1  3  2 -1</clus>
</clustering>
</event>
<event>
 6    0  0.1361744E+002  0.1058515E+03  0.7546771E-02  0.1268451E+00
         21   -1    0    0  501  502  0.00000000000E+00  0.00000000000E+00  0.16325036317E+03  0.16325036317E+03  0.00000000000E+00 0. -1.
          1   -1    0    0  505    0 -0.00000000000E+00 -0.00000000000E+00 -0.45819331825E+03  0.45819331825E+03  0.00000000000E+00 0. -1.
         21    1    1    2  503  504  0.34778715759E+02  0.60390469685E+02 -0.42230308449E+02  0.81485991743E+02  0.00000000000E+00 0.  1.
         21    1    1    2  504  502 -0.56926738202E+02 -0.10699671668E+03  0.11378190766E+03  0.16623860386E+03  0.00000000000E+00 0. -1.
         21    1    1    2  505  503  0.33342359390E+02  0.15601002418E+02 -0.13659907228E+03  0.14147229677E+03  0.00000000000E+00 0. -1.
          1    1    1    2  501    0 -0.11194336947E+02  0.31005244575E+02 -0.22989548201E+03  0.23224678904E+03  0.00000000000E+00 0. -1.
<scales pt_clust_3="105.85147" pt_clust_4="14000.00000" pt_clust_5="43.56102" pt_clust_6="32.96420"></scales>
<clustering>
<clus scale="   32.964">  2  6  1 -1</clus>
<clus scale="   43.561">  2  5  1 -1</clus>
<clus scale="  105.851">  2  3  1 -1</clus>
<clus scale="  105.851">  1  3  2 -1</clus>
</clustering>
</event>
<event>
 6    0  0.1361744E+002  0.7624099E+02  0.7546771E-02  0.1340071E+00
          2   -1    0    0  504    0 -0.00000000000E+00  0.00000000000E+00  0.87958433556E+02  0.87958433556E+02  0.00000000000E+00 0. -1.
         21   -1    0    0  505  502  0.00000000000E+00 -0.00000000000E+00 -0.85819784266E+03  0.85819784266E+03  0.00000000000E+00 0.  1.
         21    1    1    2  503  501  0.23684870481E+02 -0.46087639159E+02 -0.14263648675E+03  0.15175707866E+03  0.00000000000E+00 0.  1.
         21    1    1    2  504  502  0.16426501496E+02  0.10276567544E+03 -0.23916274189E+02  0.10678296760E+03  0.00000000000E+00 0. -1.
         21    1    1    2  505  503  0.16529198407E+02 -0.33501452412E+02 -0.62247748645E+03  0.62359745257E+03  0.00000000000E+00 0.  1.
          2    1    1    2  501    0 -0.56640570384E+02 -0.23176583864E+02  0.18790838287E+02  0.64018777375E+02  0.00000000000E+00 0. -1.
<scales pt_clust_3="14000.00000" pt_clust_4="76.24099" pt_clust_5="37.35722" pt_clust_6="61.05313"></scales>
<clustering>
<clus scale="   37.357">  2  5  1 -1</clus>
<clus scale="   61.053">  1  6  2 -1</clus>
<clus scale="   76.241">  1  4  2 -1</clus>
<clus scale="   37.357">  2  3  1 -1</clus>
</clustering>
</event>
<event>
 6    0  0.1361744E+002  0.1433259E+03  0.7546771E-02  0.1208923E+00
          2   -1    0    0  504    0 -0.00000000000E+00  0.00000000000E+00  0.21613854439E+04  0.21613854439E+04  0.00000000000E+00 0.  1.
         21   -1    0    0  505  502  0.00000000000E+00 -0.00000000000E+00 -0.70509900611E+02  0.70509900611E+02  0.00000000000E+00 0.  1.
         21    1    1    2  503  501 -0.74377983337E+02 -0.12959268984E+02  0.10928981971E+02  0.76285448840E+02  0.00000000000E+00 0.  1.
         21    1    1    2  504  502  0.42543522254E+02 -0.57729875689E+01  0.14212174379E+03  0.14846504211E+03  0.00000000000E+00 0.  1.
         21    1    1    2  505  503 -0.55157373312E+02 -0.41520179188E+02  0.26604373092E+01  0.69089355455E+02  0.00000000000E+00 0.  1.
          2    1    1    2  501    0  0.86991834394E+02  0.60252435740E+02  0.19351643802E+04  0.19380554981E+04  0.00000000000E+00 0.  1.
<scales pt_clust_3="33.14980" pt_clust_4="42.93342" pt_clust_5="33.14980" pt_clust_6="139.07035"></scales>
<clustering>
<clus scale="   33.150">  3  5 -1 -1</clus>
<clus scale="   42.933">  1  4  2 -1</clus>
<clus scale="  139.070">  1  6  2 -1</clus>
<clus scale="  143.326">  2  3  1 -1</clus>
</clustering>
</event>
<event>
 6    0  0.1361744E+002  0.1436476E+03  0.7546771E-02  0.1208503E+00
         21   -1    0    0  505  502  0.00000000000E+00  0.00000000000E+00  0.93125847467E+03  0.93125847467E+03  0.00000000000E+00 0.  1.
          1   -1    0    0  504    0 -0.00000000000E+00 -0.00000000000E+00 -0.17299426450E+04  0.17299426450E+04  0.00000000000E+00 0. -1.
         21    1    1    2  503  502  0.53476717816E+02 -0.14230896504E+03  0.86682706607E+03  0.88005725004E+03  0.00000000000E+00 0.  1.
         21    1    1    2  504  503 -0.14869347288E+02  0.54499744612E+02 -0.26099756371E+03  0.26704128504E+03  0.00000000000E+00 0.  1.
         21    1    1    2  505  501 -0.10062375196E+03  0.45497322933E+01  0.49236855617E+01  0.10084682544E+03  0.00000000000E+00 0.  1.
          1    1    1    2  501    0  0.62016381432E+02  0.83259488133E+02 -0.14094373582E+04  0.14132557591E+04  0.00000000000E+00 0. -1.
<scales pt_clust_3="14000.00000" pt_clust_4="56.49177" pt_clust_5="101.30837" pt_clust_6="143.64759"></scales>
<clustering>
<clus scale="   56.492">  2  4  1 -1</clus>
<clus scale="  101.308">  1  5  2 -1</clus>
<clus scale="  143.648">  2  6  1 -1</clus>
<clus scale="  101.308">  1  3  2 -1</clus>
</clustering>
</event>
<event>
 6    0  0.1361744E+002  0.7619092E+02  0.7546771E-02  0.1340222E+00
         21   -1    0    0  503  502  0.00000000000E+00  0.00000000000E+00  0.98588080123E+03  0.98588080123E+03  0.00000000000E+00 0. -1.
          4   -1    0    0  504    0 -0.00000000000E+00 -0.00000000000E+00 -0.11623823108E+03  0.11623823108E+03  0.00000000000E+00 0.  1.
         21    1    1    2  503  501 -0.91505697173E+01 -0.60186527509E+02  0.12535193579E+03  0.13935300078E+03  0.00000000000E+00 0.  1.
         21    1    1    2  504  505 -0.27109608536E+02  0.24971706049E+02  0.45482243228E+02  0.58541877549E+02  0.00000000000E+00 0. -1.
         21    1    1    2  505  502 -0.61198564725E+02  0.27747690780E+02  0.77647679782E+03  0.77937886565E+03  0.00000000000E+00 0. -1.
          4    1    1    2  501    0  0.97458742978E+02  0.74671306806E+01 -0.77668406683E+02  0.12484528834E+03  0.00000000000E+00 0.  1.
<scales pt_clust_3="59.59473" pt_clust_4="36.85807" pt_clust_5="76.19092" pt_clust_6="14000.00000"></scales>
<clustering>
<clus scale="   36.858">  2  4  1 -1</clus>
<clus scale="   59.595">  1  3  2 -1</clus>
<clus scale="   76.191">  1  5  2 -1</clus>
<clus scale="   59.595">  1  3  2 -1</clus>
</clustering>
</event>
<event>
 6    0  0.1361744E+002  0.2385706E+03  0.7546771E-02  0.1120749E+00
          2   -1    0    0  504    0 -0.00000000000E+00  0.00000000000E+00  0.10572283323E+04  0.10572283323E+04  0.00000000000E+00 0.  1.
         21   -1    0    0  503  502  0.00000000000E+00 -0.00000000000E+00 -0.71386777826E+03  0.71386777826E+03  0.00000000000E+00 0.  1.
         21    1    1    2  503  501 -0.14550368411E+02 -0.42097324282E+02 -0.11515809572E+03  0.12347179816E+03  0.00000000000E+00 0.  1.
         21    1    1    2  504  505  0.23661360255E+03 -0.67990403736E+02  0.53266972992E+03  0.58680979293E+03  0.00000000000E+00 0. -1.
         21    1    1    2  505  502 -0.35488761280E+02 -0.41768261436E+02 -0.53667760625E+03  0.53946908428E+03  0.00000000000E+00 0.  1.
          2    1    1    2  501    0 -0.18657447286E+03  0.15185598945E+03  0.46252652612E+03  0.52134543522E+03  0.00000000000E+00 0.  1.
<scales pt_clust_3="44.54097" pt_clust_4="238.57064" pt_clust_5="93.52092" pt_clust_6="14000.00000"></scales>
<clustering>
<clus scale="   44.541">  2  3  1 -1</clus>
<clus scale="   93.521">  2  5  1 -1</clus>
<clus scale="  238.571">  1  4  2 -1</clus>
<clus scale="   44.541">  2  3  1 -1</clus>
</clustering>
</event>
<event>
 6    0  0.1361744E+002  0.2034301E+03  0.7546771E-02  0.1146877E+00
          2   -1    0    0  505    0 -0.00000000000E+00  0.00000000000E+00  0.10693434957E+04  0.10693434957E+04  0.00000000000E+00 0.  1.
         21   -1    0    0  503  502  0.00000000000E+00 -0.00000000000E+00 -0.74536287866E+03  0.74536287866E+03  0.00000000000E+00 0.  1.
         21    1    1    2  503  504 -0.56707422443E+02 -0.54518372493E+02 -0.45048818677E+03  0.45730470271E+03  0.00000000000E+00 0.  1.
         21    1    1    2  504  501 -0.73485975427E+02 -0.10730264693E+03 -0.25996240288E+03  0.29067937239E+03  0.00000000000E+00 0.  1.
         21    1    1    2  505  502 -0.24925975385E+02  0.20179038690E+02  0.45119421778E+02  0.55355759166E+02  0.00000000000E+00 0. -1.
          2    1    1    2  501    0  0.15511937325E+03  0.14164198073E+03  0.98931178492E+03  0.10113665401E+04  0.00000000000E+00 0.  1.
<scales pt_clust_3="78.67714" pt_clust_4="203.43006" pt_clust_5="32.07020" pt_clust_6="14000.00000"></scales>
<clustering>
<clus scale="   32.070">  1  5  2 -1</clus>
<clus scale="   78.677">  2  3  1 -1</clus>
<clus scale="  203.430">  2  4  1 -1</clus>
<clus scale="   78.677">  2  3  1 -1</clus>
</clustering>
</event>
<event>
 6    0  0.1361744E+002  0.4078376E+03  0.7546771E-02  0.1041099E+00
         21   -1    0    0  503  502  0.00000000000E+00  0.00000000000E+00  0.12724771590E+03  0.12724771590E+03  0.00000000000E+00 0. -1.
         -2   -1    0    0    0  501 -0.00000000000E+00 -0.00000000000E+00 -0.15914070522E+04  0.15914070522E+04  0.00000000000E+00 0. -1.
         21    1    1    2  503  504  0.34823933007E+02 -0.34125676313E+03 -0.32037775178E+03  0.46937276075E+03  0.00000000000E+00 0. -1.
         21    1    1    2  504  501 -0.22317561356E+02 -0.59825501175E+02 -0.44148150990E+02  0.77628753510E+02  0.00000000000E+00 0. -1.
         21    1    1    2  505  502 -0.26047251280E+02  0.19749557704E+03 -0.49808423773E+03  0.53644279297E+03  0.00000000000E+00 0. -1.
         -2    1    1    2    0  505  0.13540879628E+02  0.20358668726E+03 -0.60154919574E+03  0.63521046083E+03  0.00000000000E+00 0. -1.
<scales pt_clust_3="31.43366" pt_clust_4="31.43366" pt_clust_5="49.93790" pt_clust_6="404.44735"></scales>
<clustering>
<clus scale="   31.434">  3  4 -1 -1</clus>
<clus scale="   49.938">  5  6 -1 -1</clus>
<clus scale="  404.447">  2  5  1 -1</clus>
<clus scale="  407.838">  1  3  2 -1</clus>
</clustering>
</event>
<event>
 6    0  0.1361744E+002  0.8726407E+02  0.7546771E-02  0.1309616E+00
          2   -1    0    0  503    0 -0.00000000000E+00  0.00000000000E+00  0.55795796740E+03  0.55795796740E+03  0.00000000000E+00 0.  1.
         21   -1    0    0  505  502  0.00000000000E+00 -0.00000000000E+00 -0.10450320822E+03  0.10450320822E+03  0.00000000000E+00 0.  1.
         21    1    1    2  503  504 -0.62949414973E+02  0.35596318226E+02  0.70413972017E+02  0.10093490066E+03  0.00000000000E+00 0.  1.
         21    1    1    2  504  502  0.27010242197E+02  0.18630993250E+02 -0.25066594100E+02  0.41291660572E+02  0.00000000000E+00 0.  1.
         21    1    1    2  505  501 -0.36405031580E+02 -0.10267833082E+03  0.63234094735E+01  0.10912447687E+03  0.00000000000E+00 0.  1.
          2    1    1    2  501    0  0.72344204355E+02  0.48451019346E+02  0.40178397179E+03  0.41111013751E+03  0.00000000000E+00 0.  1.
<scales pt_clust_3="69.53580" pt_clust_4="32.81261" pt_clust_5="14000.00000" pt_clust_6="87.26407"></scales>
<clustering>
<clus scale="   32.813">  2  4  1 -1</clus>
<clus scale="   69.536">  2  3  1 -1</clus>
<clus scale="   87.264">  1  6  2 -1</clus>
<clus scale="   32.813">  2  3  1 -1</clus>
</clustering>
</event>
<event>
 6    0  0.1361744E+002  0.6099177E+02  0.7546771E-02  0.1393716E+00
         21   -1    0    0  504  502  0.00000000000E+00  0.00000000000E+00  0.25636741510E+03  0.25636741510E+03  0.00000000000E+00 0. -1.
         -1   -1    0    0    0  501 -0.00000000000E+00 -0.00000000000E+00 -0.38307501234E+03  0.38307501234E+03  0.00000000000E+00 0.  1.
         21    1    1    2  503  501 -0.30976500901E+01 -0.43345294239E+02 -0.79608924508E+02  0.90697248195E+02  0.00000000000E+00 0.  1.
         21    1    1    2  504  505 -0.35691550287E+02  0.11642962655E+02  0.37874746972E+02  0.53328620829E+02  0.00000000000E+00 0.  1.
         21    1    1    2  505  503  0.81541706851E+02 -0.46855770953E+02  0.18689042758E+03  0.20921889290E+03  0.00000000000E+00 0. -1.
         -1    1    1    2    0  502 -0.42752506474E+02  0.78558102537E+02 -0.27186384729E+03  0.28619766551E+03  0.00000000000E+00 0.  1.
<scales pt_clust_3="43.22790" pt_clust_4="37.54258" pt_clust_5="60.99177" pt_clust_6="14000.00000"></scales>
<clustering>
<clus scale="   37.543">  1  4  2 -1</clus>
<clus scale="   43.228">  2  3  1 -1</clus>
<clus scale="   60.992">  1  5  2 -1</clus>
<clus scale="   37.543">  1  3  2 -1</clus>
</clustering>
</event>
<event>
 6    0  0.1361744E+002  0.1385759E+03  0.7546771E-02  0.1215258E+00
         21   -1    0    0  504  502  0.00000000000E+00  0.00000000000E+00  0.32605640784E+02  0.32605640784E+02  0.00000000000E+00 0. -1.
          2   -1    0    0  502    0 -0.00000000000E+00 -0.00000000000E+00 -0.85979025197E+03  0.85979025197E+03  0.00000000000E+00 0. -1.
         21    1    1    2  503  505 -0.18310085952E+02 -0.43418728698E+02 -0.52502754073E+02  0.70547745779E+02  0.00000000000E+00 0. -1.
         21    1    1    2  504  503  0.24952837860E+02 -0.87951547898E+02 -0.10813241415E+03  0.14160062813E+03  0.00000000000E+00 0. -1.
         21    1    1    2  505  501 -0.35595002223E+01  0.62742496875E+02 -0.23468517996E+03  0.24295354422E+03  0.00000000000E+00 0. -1.
          2    1    1    2  501    0 -0.30832516852E+01  0.68627779721E+02 -0.43186426300E+03  0.43729397463E+03  0.00000000000E+00 0. -1.
<scales pt_clust_3="31.30213" pt_clust_4="31.30213" pt_clust_5="32.38179" pt_clust_6="135.82535"></scales>
<clustering>
<clus scale="   31.302">  3  4 -1 -1</clus>
<clus scale="   32.382">  5  6 -1 -1</clus>
<clus scale="  135.825">  2  5  1 -1</clus>
<clus scale="  138.576">  1  3  2 -1</clus>
</clustering>
</event>
<event>
 6    0  0.1361744E+002  0.1075697E+03  0.7546771E-02  0.1265138E+00
          2   -1    0    0  505    0 -0.00000000000E+00  0.00000000000E+00  0.29814322570E+03  0.29814322570E+03  0.00000000000E+00 0. -1.
         21   -1    0    0  504  502  0.00000000000E+00 -0.00000000000E+00 -0.13539097471E+04  0.13539097471E+04  0.00000000000E+00 0. -1.
         21    1    1    2  503  502 -0.42594217718E+02  0.63401212427E+02 -0.94401891256E+03  0.94710384245E+03  0.00000000000E+00 0. -1.
         21    1    1    2  504  501 -0.48278597850E+02 -0.29496837708E+01 -0.38319495554E+03  0.38623554678E+03  0.00000000000E+00 0. -1.
         21    1    1    2  505  503  0.47306942276E+02  0.10311195237E+02  0.17446444253E+02  0.51464997345E+02  0.00000000000E+00 0. -1.
          2    1    1    2  501    0  0.43565873292E+02 -0.70762723893E+02  0.25400090244E+03  0.26724858624E+03  0.00000000000E+00 0. -1.
<scales pt_clust_3="14000.00000" pt_clust_4="48.36862" pt_clust_5="47.57894" pt_clust_6="107.56968"></scales>
<clustering>
<clus scale="   48.369">  2  4  1 -1</clus>
<clus scale="   47.579">  1  5  2 -1</clus>
<clus scale="  107.570">  1  6  2 -1</clus>
<clus scale="   48.369">  2  3  1 -1</clus>
</clustering>
</event>
<event>
 6    0  0.1361744E+002  0.1794741E+03  0.7546771E-02  0.1168313E+00
         21   -1    0    0  504  502  0.00000000000E+00  0.00000000000E+00  0.43218513281E+03  0.43218513281E+03  0.00000000000E+00 0.  1.
         -3   -1    0    0    0  501 -0.00000000000E+00 -0.00000000000E+00 -0.17879510649E+03  0.17879510649E+03  0.00000000000E+00 0.  1.
         21    1    1    2  503  505 -0.24688558666E+02  0.50136158201E+02  0.96509694109E+00  0.55893565822E+02  0.00000000000E+00 0.  1.
         21    1    1    2  504  501  0.37584044167E+02 -0.95014809604E+02  0.28679216105E+03  0.30445051824E+03  0.00000000000E+00 0.  1.
         21    1    1    2  505  502  0.38911359025E+02 -0.75859902525E+02  0.45744548093E+02  0.96754236871E+02  0.00000000000E+00 0.  1.
         -3    1    1    2    0  503 -0.51806844526E+02  0.12073855393E+03 -0.80111779761E+02  0.15388191837E+03  0.00000000000E+00 0.  1.
<scales pt_clust_3="33.83780" pt_clust_4="171.81127" pt_clust_5="85.25737" pt_clust_6="33.83780"></scales>
<clustering>
<clus scale="   33.838">  3  6 -1 -1</clus>
<clus scale="   85.257">  1  5  2 -1</clus>
<clus scale="  171.811">  1  4  2 -1</clus>
<clus scale="   85.257">  1  3  2 -1</clus>
</clustering>
</event>
<event>
 6    0  0.1361744E+002  0.1480553E+03  0.7546771E-02  0.1202883E+00
         21   -1    0    0  501  502  0.00000000000E+00  0.00000000000E+00  0.10633591295E+03  0.10633591295E+03  0.00000000000E+00 0. -1.
          2   -1    0    0  504    0 -0.00000000000E+00 -0.00000000000E+00 -0.35118257678E+04  0.35118257678E+04  0.00000000000E+00 0. -1.
         21    1    1    2  503  505  0.14996646703E+02 -0.80797649053E+02  0.44225874490E+02  0.93322491819E+02  0.00000000000E+00 0. -1.
         21    1    1    2  504  503 -0.67017817247E+01  0.34385483711E+02 -0.15810862658E+04  0.15814743296E+04  0.00000000000E+00 0. -1.
         21    1    1    2  505  502 -0.20302313573E+02 -0.60565434672E+02  0.73501616634E+01  0.64299149993E+02  0.00000000000E+00 0. -1.
          2    1    1    2  501    0  0.12007448594E+02  0.10697760001E+03 -0.18759796251E+04  0.18790657093E+04  0.00000000000E+00 0. -1.
<scales pt_clust_3="41.06375" pt_clust_4="35.03249" pt_clust_5="41.06375" pt_clust_6="140.52595"></scales>
<clustering>
<clus scale="   35.032">  2  4  1 -1</clus>
<clus scale="   41.064">  3  5 -1 -1</clus>
<clus scale="  140.526">  2  6  1 -1</clus>
<clus scale="  148.055">  1  3  2 -1</clus>
</clustering>
</event>
<event>
 6    0  0.1361744E+002  0.9351802E+02  0.7546771E-02  0.1294549E+00
          2   -1    0    0  503    0 -0.00000000000E+00  0.00000000000E+00  0.25971846950E+03  0.25971846950E+03  0.00000000000E+00 0. -1.
         21   -1    0    0  505  502  0.00000000000E+00 -0.00000000000E+00 -0.18596306667E+03  0.18596306667E+03  0.00000000000E+00 0. -1.
         21    1    1    2  503  504  0.41183670170E+02  0.43624892800E+02  0.11152213930E+02  0.61021290023E+02  0.00000000000E+00 0. -1.
         21    1    1    2  504  502  0.62009865886E+02 -0.76930837575E+02 -0.12539949116E+03  0.15965152558E+03  0.00000000000E+00 0. -1.
         21    1    1    2  505  501 -0.80775188416E+02  0.10906327895E+02  0.87293136417E+02  0.11943061047E+03  0.00000000000E+00 0. -1.
          2    1    1    2  501    0 -0.22418347640E+02  0.22399616880E+02  0.10070954365E+03  0.10557811009E+03  0.00000000000E+00 0. -1.
<scales pt_clust_3="60.64178" pt_clust_4="14000.00000" pt_clust_5="93.51802" pt_clust_6="31.69109"></scales>
<clustering>
<clus scale="   31.691">  1  6  2 -1</clus>
<clus scale="   60.642">  1  3  2 -1</clus>
<clus scale="   93.518">  1  5  2 -1</clus>
<clus scale="   93.518">  2  3  1 -1</clus>
</clustering>
</event>
<event>
 6    0  0.1361744E+002  0.1895798E+03  0.7546771E-02  0.1158841E+00
         21   -1    0    0  501  502  0.00000000000E+00  0.00000000000E+00  0.20359902638E+03  0.20359902638E+03  0.00000000000E+00 0. -1.
          2   -1    0    0  504    0 -0.00000000000E+00 -0.00000000000E+00 -0.12720880338E+04  0.12720880338E+04  0.00000000000E+00 0.  1.
         21    1    1    2  503  502  0.47012181487E+02 -0.60851457781E+02  0.44431724982E+02  0.88810040575E+02  0.00000000000E+00 0. -1.
         21    1    1    2  504  505 -0.72121641984E+01  0.62181317548E+02 -0.11546277070E+03  0.13133995196E+03  0.00000000000E+00 0. -1.
         21    1    1    2  505  503  0.10060853181E+03 -0.51831437352E+02  0.98155011177E+02  0.14980981540E+03  0.00000000000E+00 0. -1.
          2    1    1    2  501    0 -0.14040854910E+03  0.50501577585E+02 -0.10956129729E+04  0.11057272523E+04  0.00000000000E+00 0.  1.
<scales pt_clust_3="37.94533" pt_clust_4="62.59818" pt_clust_5="37.94533" pt_clust_6="183.90586"></scales>
<clustering>
<clus scale="   37.945">  3  5 -1 -1</clus>
<clus scale="   62.598">  2  4  1 -1</clus>
<clus scale="  183.906">  2  6  1 -1</clus>
<clus scale="  189.580">  1  3  2 -1</clus>
</clustering>
</event>
<event>
 6    0  0.1361744E+002  0.9735295E+02  0.7546771E-02  0.1285963E+00
         -2   -1    0    0    0  501 -0.00000000000E+00  0.00000000000E+00  0.52109978962E+03  0.52109978962E+03  0.00000000000E+00 0. -1.
         21   -1    0    0  501  502  0.00000000000E+00 -0.00000000000E+00 -0.31925874284E+03  0.31925874284E+03  0.00000000000E+00 0. -1.
         21    1    1    2  503  504 -0.11569055214E+02 -0.72480628430E+02 -0.70561373724E+02  0.10181449798E+03  0.00000000000E+00 0. -1.
         21    1    1    2  504  502 -0.33387286710E+02  0.44620706877E+02 -0.20115383900E+03  0.20873089216E+03  0.00000000000E+00 0. -1.
         21    1    1    2  505  503 -0.52094855802E+00 -0.44452023243E+02 -0.40392963114E+01  0.44638208662E+02  0.00000000000E+00 0. -1.
         -2    1    1    2    0  505  0.45477290483E+02  0.72311944796E+02  0.47759555582E+03  0.48517493366E+03  0.00000000000E+00 0. -1.
<scales pt_clust_3="35.35443" pt_clust_4="55.72897" pt_clust_5="35.35443" pt_clust_6="86.10386"></scales>
<clustering>
<clus scale="   35.354">  3  5 -1 -1</clus>
<clus scale="   55.729">  2  4  1 -1</clus>
<clus scale="   86.104">  1  6  2 -1</clus>
<clus scale="   55.729">  2  3  1 -1</clus>
</clustering>
</event>
<event>
 6    0  0.1361744E+002  0.3379236E+03  0.7546771E-02  0.1067684E+00
          2   -1    0    0  502    0 -0.00000000000E+00  0.00000000000E+00  0.18670840012E+04  0.18670840012E+04  0.00000000000E+00 0.  1.
         21   -1    0    0  503  502  0.00000000000E+00 -0.00000000000E+00 -0.29543949874E+03  0.29543949874E+03  0.00000000000E+00 0.  1.
         21    1    1    2  503  504 -0.49968508628E+02  0.20499216671E+03 -0.10188708560E+03  0.23430667613E+03  0.00000000000E+00 0.  1.
         21    1    1    2  504  505  0.16794891957E+02  0.11562957831E+03 -0.80526660961E+02  0.14190423144E+03  0.00000000000E+00 0.  1.
         21    1    1    2  505  501 -0.12941876747E+02 -0.21521845820E+03  0.95652033789E+03  0.98051906342E+03  0.00000000000E+00 0.  1.
          2    1    1    2  501    0  0.46115493418E+02 -0.10540328682E+03  0.79753791111E+03  0.80579352893E+03  0.00000000000E+00 0.  1.
<scales pt_clust_3="329.02868" pt_clust_4="49.14312" pt_clust_5="74.11294" pt_clust_6="74.11294"></scales>
<clustering>
<clus scale="   49.143">  3  4 -1 -1</clus>
<clus scale="   74.113">  5  6 -1 -1</clus>
<clus scale="  329.029">  2  3  1 -1</clus>
<clus scale="  329.029">  2  3  1 -1</clus>
</clustering>
</event>
<event>
 6    0  0.1361744E+002  0.1436763E+03  0.7546771E-02  0.1208466E+00
          2   -1    0    0  505    0 -0.00000000000E+00  0.00000000000E+00  0.47792907166E+03  0.47792907166E+03  0.00000000000E+00 0.  1.
         21   -1    0    0  504  502  0.00000000000E+00 -0.00000000000E+00 -0.67477338627E+03  0.67477338627E+03  0.00000000000E+00 0.  1.
         21    1    1    2  503  501 -0.44357469943E+01  0.42768285058E+02 -0.18833711811E+03  0.19318300162E+03  0.00000000000E+00 0.  1.
         21    1    1    2  504  503 -0.74210903887E+02  0.67835763720E+02 -0.45551752914E+03  0.46648169144E+03  0.00000000000E+00 0.  1.
         21    1    1    2  505  502 -0.28632275973E+02 -0.11509831489E+02  0.10264602412E+02  0.32521462313E+02  0.00000000000E+00 0. -1.
          2    1    1    2  501    0  0.10727892685E+03 -0.99094217289E+02  0.43674573022E+03  0.46051630255E+03  0.00000000000E+00 0.  1.
<scales pt_clust_3="30.60434" pt_clust_4="30.60434" pt_clust_5="30.85909" pt_clust_6="135.84084"></scales>
<clustering>
<clus scale="   30.604">  3  4 -1 -1</clus>
<clus scale="   30.859">  1  5  2 -1</clus>
<clus scale="  135.841">  1  6  2 -1</clus>
<clus scale="  143.676">  2  3  1 -1</clus>
</clustering>
</event>
<event>
 6    0  0.1361744E+002  0.1680487E+03  0.7546771E-02  0.1179898E+00
         21   -1    0    0  505  502  0.00000000000E+00  0.00000000000E+00  0.93608805881E+03  0.93608805881E+03  0.00000000000E+00 0.  1.
          1   -1    0    0  503    0 -0.00000000000E+00 -0.00000000000E+00 -0.91226037700E+03  0.91226037700E+03  0.00000000000E+00 0. -1.
         21    1    1    2  503  504 -0.96260050479E+01  0.33046748654E+02 -0.19237210969E+03  0.19542716330E+03  0.00000000000E+00 0.  1.
         21    1    1    2  504  502  0.16484782789E+03  0.51893087941E+02  0.74607926024E+03  0.76583416057E+03  0.00000000000E+00 0.  1.
         21    1    1    2  505  501 -0.11892633307E+03 -0.11142946091E+03  0.14051726348E+03  0.21518619563E+03  0.00000000000E+00 0.  1.
          1    1    1    2  501    0 -0.36295489773E+02  0.26489624319E+02 -0.67039673221E+03  0.67190091631E+03  0.00000000000E+00 0. -1.
<scales pt_clust_3="34.42016" pt_clust_4="168.04869" pt_clust_5="14000.00000" pt_clust_6="73.08738"></scales>
<clustering>
<clus scale="   34.420">  2  3  1 -1</clus>
<clus scale="   73.087">  2  6  1 -1</clus>
<clus scale="  168.049">  1  4  2 -1</clus>
<clus scale="  168.049">  1  3  2 -1</clus>
</clustering>
</event>
<event>
 6    0  0.1361744E+002  0.1452202E+03  0.7546771E-02  0.1206473E+00
          2   -1    0    0  505    0 -0.00000000000E+00  0.00000000000E+00  0.22527091816E+04  0.22527091816E+04  0.00000000000E+00 0.  1.
         21   -1    0    0  503  502  0.00000000000E+00 -0.00000000000E+00 -0.22119779233E+02  0.22119779233E+02  0.00000000000E+00 0.  1.
         21    1    1    2  503  501 -0.95784909531E+02  0.60030816221E+01  0.15650291904E+03  0.18358635448E+03  0.00000000000E+00 0.  1.
         21    1    1    2  504  502 -0.32526752367E+02 -0.22628045044E+02  0.19370929427E+03  0.19772027900E+03  0.00000000000E+00 0.  1.
         21    1    1    2  505  504 -0.29020725636E+02  0.41369069489E+02  0.23041722718E+03  0.23589341027E+03  0.00000000000E+00 0.  1.
          2    1    1    2  501    0  0.15733238753E+03 -0.24744106068E+02  0.16499599619E+04  0.16576289171E+04  0.00000000000E+00 0.  1.
<scales pt_clust_3="145.22018" pt_clust_4="39.62345" pt_clust_5="50.84125" pt_clust_6="14000.00000"></scales>
<clustering>
<clus scale="   39.623">  2  4  1 -1</clus>
<clus scale="   50.841">  2  5  1 -1</clus>
<clus scale="  145.220">  2  3  1 -1</clus>
<clus scale="   39.623">  2  3  1 -1</clus>
</clustering>
</event>
<event>
 6    0  0.1361744E+002  0.1400629E+03  0.7546771E-02  0.1213244E+00
         21   -1    0    0  504  502  0.00000000000E+00  0.00000000000E+00  0.39688417342E+03  0.39688417342E+03  0.00000000000E+00 0.  1.
          1   -1    0    0  505    0 -0.00000000000E+00 -0.00000000000E+00 -0.13059988280E+03  0.13059988280E+03  0.00000000000E+00 0.  1.
         21    1    1    2  503  501 -0.47284081060E+02 -0.12762035408E+03  0.26972501583E+03  0.30211640681E+03  0.00000000000E+00 0.  1.
         21    1    1    2  504  503 -0.34896818298E+02  0.60705065119E+00  0.32409929734E+02  0.47629402507E+02  0.00000000000E+00 0. -1.
         21    1    1    2  505  502  0.42142314011E+02  0.18368303667E+02  0.18842300482E+02  0.49683010147E+02  0.00000000000E+00 0.  1.
          1    1    1    2  501    0  0.40038585346E+02  0.10864499976E+03 -0.54692955426E+02  0.12805523676E+03  0.00000000000E+00 0.  1.
<scales pt_clust_3="140.06294" pt_clust_4="34.90210" pt_clust_5="42.94587" pt_clust_6="14000.00000"></scales>
<clustering>
<clus scale="   34.902">  1  4  2 -1</clus>
<clus scale="   42.946">  2  5  1 -1</clus>
<clus scale="  140.063">  1  3  2 -1</clus>
<clus scale="   34.902">  1  3  2 -1</clus>
</clustering>
</event>
<event>
 6    0  0.1361744E+002  0.1142060E+03  0.7546771E-02  0.1252973E+00
         21   -1    0    0  504  502  0.00000000000E+00  0.00000000000E+00  0.22640257342E+02  0.22640257342E+02  0.00000000000E+00 0.  1.
          2   -1    0    0  503    0 -0.00000000000E+00 -0.00000000000E+00 -0.19845725220E+04  0.19845725220E+04  0.00000000000E+00 0. -1.
         21    1    1    2  503  502 -0.39106598633E+02  0.22543444767E+01 -0.14940042190E+03  0.15445029683E+03  0.00000000000E+00 0.  1.
         21    1    1    2  504  505  0.36270328155E+02 -0.54206458450E+01 -0.79538265063E+02  0.87585704970E+02  0.00000000000E+00 0. -1.
         21    1    1    2  505  501 -0.66986080832E+02 -0.87925237697E+02 -0.20519217976E+03  0.23307040371E+03  0.00000000000E+00 0.  1.
          2    1    1    2  501    0  0.69822351311E+02  0.91091539065E+02 -0.15278013979E+04  0.15321063738E+04  0.00000000000E+00 0. -1.
<scales pt_clust_3="34.22104" pt_clust_4="36.67315" pt_clust_5="14000.00000" pt_clust_6="114.20600"></scales>
<clustering>
<clus scale="   36.673">  1  4  2 -1</clus>
<clus scale="   34.221">  1  3  2 -1</clus>
<clus scale="  114.206">  2  6  1 -1</clus>
<clus scale="   36.673">  1  3  2 -1</clus>
</clustering>
</event>
<event>
 6    0  0.1361744E+002  0.9761771E+02  0.7546771E-02  0.1285387E+00
         21   -1    0    0  504  502  0.00000000000E+00  0.00000000000E+00  0.22537510665E+03  0.22537510665E+03  0.00000000000E+00 0.  1.
          4   -1    0    0  505    0 -0.00000000000E+00 -0.00000000000E+00 -0.15323454006E+03  0.15323454006E+03  0.00000000000E+00 0.  1.
         21    1    1    2  503  501 -0.66728358288E+02  0.89832003105E+01  0.22525845147E+02  0.70998488626E+02  0.00000000000E+00 0.  1.
         21    1    1    2  504  503  0.38839318974E+02 -0.11426771892E+02  0.76506084025E+02  0.86557753593E+02  0.00000000000E+00 0.  1.
         21    1    1    2  505  502  0.11772051457E+03  0.12258790861E+01  0.20471421556E+02  0.11949352046E+03  0.00000000000E+00 0.  1.
          4    1    1    2  501    0 -0.89831475258E+02  0.12176924950E+01 -0.47362784138E+02  0.10155988403E+03  0.00000000000E+00 0.  1.
<scales pt_clust_3="54.35795" pt_clust_4="40.48535" pt_clust_5="14000.00000" pt_clust_6="97.61771"></scales>
<clustering>
<clus scale="   40.485">  1  4  2 -1</clus>
<clus scale="   54.358">  1  3  2 -1</clus>
<clus scale="   97.618">  2  6  1 -1</clus>
<clus scale="   40.485">  1  3  2 -1</clus>
</clustering>
</event>
<event>
 6    0  0.1361744E+002  0.8846287E+02  0.7546771E-02  0.1306617E+00
         21   -1    0    0  504  502  0.00000000000E+00  0.00000000000E+00  0.93930519402E+03  0.93930519402E+03  0.00000000000E+00 0. -1.
          2   -1    0    0  503    0 -0.00000000000E+00 -0.00000000000E+00 -0.16107555648E+04  0.16107555648E+04  0.00000000000E+00 0.  1.
         21    1    1    2  503  505  0.99246880628E-01 -0.55130050854E+02 -0.50197918392E+03  0.50499745885E+03  0.00000000000E+00 0.  1.
         21    1    1    2  504  501  0.10501802310E+03 -0.16501842699E+02 -0.70494997571E+02  0.12755642152E+03  0.00000000000E+00 0.  1.
         21    1    1    2  505  502 -0.63239628319E+02  0.61902101506E+02  0.90665180583E+03  0.91096027233E+03  0.00000000000E+00 0. -1.
          2    1    1    2  501    0 -0.41877641661E+02  0.97297920467E+01 -0.10056279951E+04  0.10065466061E+04  0.00000000000E+00 0.  1.
<scales pt_clust_3="58.48663" pt_clust_4="14000.00000" pt_clust_5="88.46287" pt_clust_6="42.99309"></scales>
<clustering>
<clus scale="   42.993">  2  6  1 -1</clus>
<clus scale="   58.487">  2  3  1 -1</clus>
<clus scale="   88.463">  1  5  2 -1</clus>
<clus scale="   88.463">  1  3  2 -1</clus>
</clustering>
</event>
<event>
 6    0  0.1361744E+002  0.8922954E+02  0.7546771E-02  0.1304728E+00
          2   -1    0    0  505    0 -0.00000000000E+00  0.00000000000E+00  0.11533442389E+03  0.11533442389E+03  0.00000000000E+00 0.  1.
         21   -1    0    0  503  502  0.00000000000E+00 -0.00000000000E+00 -0.27491673375E+03  0.27491673375E+03  0.00000000000E+00 0.  1.
         21    1    1    2  503  501  0.34088734437E+02  0.37869280988E+02 -0.87940853325E+02  0.10163521999E+03  0.00000000000E+00 0. -1.
         21    1    1    2  504  502 -0.52186599351E+02  0.87227551221E+00 -0.90140415734E+02  0.10416091669E+03  0.00000000000E+00 0.  1.
         21    1    1    2  505  504 -0.71429635259E+02  0.18669113527E+02 -0.96031641017E+01  0.74450986252E+02  0.00000000000E+00 0.  1.
          2    1    1    2  501    0  0.89527500174E+02 -0.57410670027E+02  0.28102123302E+02  0.11000403472E+03  0.00000000000E+00 0.  1.
<scales pt_clust_3="50.95218" pt_clust_4="39.95083" pt_clust_5="89.22954" pt_clust_6="14000.00000"></scales>
<clustering>
<clus scale="   50.952">  2  3  1 -1</clus>
<clus scale="   39.951">  2  4  1 -1</clus>
<clus scale="   89.230">  2  5  1 -1</clus>
<clus scale="   50.952">  2  3  1 -1</clus>
</clustering>
</event>
<event>
 6    0  0.1361744E+002  0.2345769E+03  0.7546771E-02  0.1123459E+00
          2   -1    0    0  503    0 -0.00000000000E+00  0.00000000000E+00  0.18891888729E+04  0.18891888729E+04  0.00000000000E+00 0.  1.
         21   -1    0    0  505  502  0.00000000000E+00 -0.00000000000E+00 -0.83447895959E+02  0.83447895959E+02  0.00000000000E+00 0.  1.
         21    1    1    2  503  504 -0.42645239047E+02 -0.54601690112E+02  0.30007174966E+03  0.30796593305E+03  0.00000000000E+00 0.  1.
         21    1    1    2  504  502 -0.92442102952E+02 -0.14680234502E+02  0.78465314054E+02  0.12213868017E+03  0.00000000000E+00 0. -1.
         21    1    1    2  505  501 -0.82469496043E+02  0.19437116051E+03  0.20310168497E+03  0.29297040849E+03  0.00000000000E+00 0.  1.
          2    1    1    2  501    0  0.21755683804E+03 -0.12508923589E+03  0.12241022283E+04  0.12495617471E+04  0.00000000000E+00 0.  1.
<scales pt_clust_3="69.28175" pt_clust_4="96.85348" pt_clust_5="234.57687" pt_clust_6="14000.00000"></scales>
<clustering>
<clus scale="   69.282">  1  3  2 -1</clus>
<clus scale="   96.853">  2  4  1 -1</clus>
<clus scale="  234.577">  2  5  1 -1</clus>
<clus scale="   96.853">  2  3  1 -1</clus>
</clustering>
</event>
<event>
 6    0  0.1361744E+002  0.2374908E+03  0.7546771E-02  0.1121476E+00
         21   -1    0    0  503  502  0.00000000000E+00  0.00000000000E+00  0.53372999315E+03  0.53372999315E+03  0.00000000000E+00 0.  1.
         -3   -1    0    0    0  501 -0.00000000000E+00 -0.00000000000E+00 -0.18655449334E+03  0.18655449334E+03  0.00000000000E+00 0.  1.
         21    1    1    2  503  504  0.57236672119E+02  0.80722682739E+02  0.91927218699E+01  0.99381559050E+02  0.00000000000E+00 0. -1.
         21    1    1    2  504  505  0.11332748387E+03  0.89542409529E+02  0.15238547711E+03  0.20995784181E+03  0.00000000000E+00 0.  1.
         21    1    1    2  505  501  0.37153898308E+02 -0.13850321014E+03  0.22960370680E+02  0.14522647830E+03  0.00000000000E+00 0.  1.
         -3    1    1    2    0  502 -0.20771805429E+03 -0.31761882130E+02  0.16263693015E+03  0.26571860733E+03  0.00000000000E+00 0.  1.
<scales pt_clust_3="88.76760" pt_clust_4="88.76760" pt_clust_5="143.39997" pt_clust_6="211.89829"></scales>
<clustering>
<clus scale="   88.768">  3  4 -1 -1</clus>
<clus scale="  143.400">  2  5  1 -1</clus>
<clus scale="  211.898">  1  6  2 -1</clus>
<clus scale="  211.898">  1  3  2 -1</clus>
</clustering>
</event>
<event>
 6    0  0.1361744E+002  0.8971568E+02  0.7546771E-02  0.1303542E+00
         -1   -1    0    0    0  501 -0.00000000000E+00  0.00000000000E+00  0.19544032127E+03  0.19544032127E+03  0.00000000000E+00 0. -1.
         21   -1    0    0  504  502  0.00000000000E+00 -0.00000000000E+00 -0.15006689645E+03  0.15006689645E+03  0.00000000000E+00 0.  1.
         21    1    1    2  503  501 -0.48609898692E+02  0.26259497453E+01  0.11916565228E+02  0.50118084458E+02  0.00000000000E+00 0. -1.
         21    1    1    2  504  503  0.31813820119E+01  0.55354131750E+02  0.58835128568E+02  0.80844130565E+02  0.00000000000E+00 0.  1.
         21    1    1    2  505  502 -0.21016104619E+02 -0.99349689411E+02 -0.71038456335E+02  0.12392941426E+03  0.00000000000E+00 0.  1.
         -1    1    1    2    0  505  0.66444621300E+02  0.41369607917E+02  0.45660187363E+02  0.90615588443E+02  0.00000000000E+00 0. -1.
<scales pt_clust_3="48.68078" pt_clust_4="59.10894" pt_clust_5="89.71568" pt_clust_6="14000.00000"></scales>
<clustering>
<clus scale="   48.681">  1  3  2 -1</clus>
<clus scale="   59.109">  1  4  2 -1</clus>
<clus scale="   89.716">  2  5  1 -1</clus>
<clus scale="   89.716">  2  3  1 -1</clus>
</clustering>
</event>
<event>
 6    0  0.1361744E+002  0.8627632E+02  0.7546771E-02  0.1312128E+00
          2   -1    0    0  503    0 -0.00000000000E+00  0.00000000000E+00  0.37383478085E+03  0.37383478085E+03  0.00000000000E+00 0. -1.
         21   -1    0    0  504  502  0.00000000000E+00 -0.00000000000E+00 -0.92285005220E+02  0.92285005220E+02  0.00000000000E+00 0. -1.
         21    1    1    2  503  505 -0.29986726610E+02  0.47822729851E+02  0.78893563445E+02  0.97007276099E+02  0.00000000000E+00 0. -1.
         21    1    1    2  504  501  0.19902743161E+02  0.27904201022E+02  0.25302110209E+02  0.42602352060E+02  0.00000000000E+00 0. -1.
         21    1    1    2  505  502 -0.83085619417E+02 -0.76762849151E+02 -0.13701527537E+02  0.11394510529E+03  0.00000000000E+00 0. -1.
          2    1    1    2  501    0  0.93169602865E+02  0.10359182775E+01  0.19105562951E+03  0.21256505262E+03  0.00000000000E+00 0. -1.
<scales pt_clust_3="57.96336" pt_clust_4="34.27482" pt_clust_5="86.27632" pt_clust_6="14000.00000"></scales>
<clustering>
<clus scale="   34.275">  2  4  1 -1</clus>
<clus scale="   57.963">  1  3  2 -1</clus>
<clus scale="   86.276">  2  5  1 -1</clus>
<clus scale="   34.275">  2  3  1 -1</clus>
</clustering>
</event>
<event>
 6    0  0.1361744E+002  0.1039646E+03  0.7546771E-02  0.1272173E+00
          2   -1    0    0  503    0 -0.00000000000E+00  0.00000000000E+00  0.35912182575E+04  0.35912182575E+04  0.00000000000E+00 0. -1.
         21   -1    0    0  504  502  0.00000000000E+00 -0.00000000000E+00 -0.20639675242E+03  0.20639675242E+03  0.00000000000E+00 0. -1.
         21    1    1    2  503  505  0.42835304105E+02  0.22592462917E+01 -0.12544310841E+03  0.13257428453E+03  0.00000000000E+00 0. -1.
         21    1    1    2  504  501  0.74559138829E+01 -0.71429768782E+02  0.10383655089E+03  0.12625304678E+03  0.00000000000E+00 0.  1.
         21    1    1    2  505  502  0.35623827982E+02  0.22558635575E+02 -0.58703610064E+02  0.72277679775E+02  0.00000000000E+00 0. -1.
          2    1    1    2  501    0 -0.85915045970E+02  0.46611886915E+02  0.34651316727E+04  0.34665099989E+04  0.00000000000E+00 0. -1.
<scales pt_clust_3="35.50705" pt_clust_4="71.81784" pt_clust_5="35.50705" pt_clust_6="97.60171"></scales>
<clustering>
<clus scale="   35.507">  3  5 -1 -1</clus>
<clus scale="   71.818">  2  4  1 -1</clus>
<clus scale="   97.602">  1  6  2 -1</clus>
<clus scale="   71.818">  2  3  1 -1</clus>
</clustering>
</event>
<event>
 6    0  0.1361744E+002  0.1011002E+03  0.7546771E-02  0.1277999E+00
         21   -1    0    0  501  502  0.00000000000E+00  0.00000000000E+00  0.28102151727E+03  0.28102151727E+03  0.00000000000E+00 0. -1.
          2   -1    0    0  505    0 -0.00000000000E+00 -0.00000000000E+00 -0.54797521259E+03  0.54797521259E+03  0.00000000000E+00 0.  1.
         21    1    1    2  503  504 -0.31614468057E+02 -0.75484471345E+02  0.87527134202E+02  0.11982645462E+03  0.00000000000E+00 0. -1.
         21    1    1    2  504  502 -0.51468841618E+02  0.87079035873E+01  0.16594224977E+03  0.17395890176E+03  0.00000000000E+00 0. -1.
         21    1    1    2  505  503  0.40081728296E+02 -0.16862799984E+01 -0.24142908826E+03  0.24473943929E+03  0.00000000000E+00 0.  1.
          2    1    1    2  501    0  0.43001581378E+02  0.68462847757E+02 -0.27899399103E+03  0.29047193419E+03  0.00000000000E+00 0.  1.
<scales pt_clust_3="14000.00000" pt_clust_4="51.67706" pt_clust_5="40.11718" pt_clust_6="101.10021"></scales>
<clustering>
<clus scale="   40.117">  2  5  1 -1</clus>
<clus scale="   51.677">  1  4  2 -1</clus>
<clus scale="  101.100">  2  6  1 -1</clus>
<clus scale="   51.677">  1  3  2 -1</clus>
</clustering>
</event>
<event>
 6    0  0.1361744E+002  0.9481334E+02  0.7546771E-02  0.1291597E+00
          2   -1    0    0  503    0 -0.00000000000E+00  0.00000000000E+00  0.99806392141E+03  0.99806392141E+03  0.00000000000E+00 0. -1.
         21   -1    0    0  504  502  0.00000000000E+00 -0.00000000000E+00 -0.78976263681E+02  0.78976263681E+02  0.00000000000E+00 0. -1.
         21    1    1    2  503  502  0.63279646228E+00 -0.49761784192E+02  0.16172956168E+03  0.16921313991E+03  0.00000000000E+00 0. -1.
         21    1    1    2  504  505  0.20812500530E+02 -0.38913191559E+02 -0.14904184695E+02  0.46578228573E+02  0.00000000000E+00 0. -1.
         21    1    1    2  505  501  0.49438270024E+02 -0.31722004742E+01 -0.25068404449E+02  0.55521440007E+02  0.00000000000E+00 0. -1.
          2    1    1    2  501    0 -0.70883567016E+02  0.91847176225E+02  0.79733068520E+03  0.80572737661E+03  0.00000000000E+00 0. -1.
<scales pt_clust_3="49.76581" pt_clust_4="43.45829" pt_clust_5="43.45829" pt_clust_6="82.88176"></scales>
<clustering>
<clus scale="   43.458">  4  5 -1 -1</clus>
<clus scale="   49.766">  1  3  2 -1</clus>
<clus scale="   82.882">  1  6  2 -1</clus>
<clus scale="   94.813">  2  3  1 -1</clus>
</clustering>
</event>
<event>
 6    0  0.1361744E+002  0.1209477E+03  0.7546771E-02  0.1241542E+00
          2   -1    0    0  504    0 -0.00000000000E+00  0.00000000000E+00  0.56896409390E+03  0.56896409390E+03  0.00000000000E+00 0.  1.
         21   -1    0    0  505  502  0.00000000000E+00 -0.00000000000E+00 -0.14124594288E+03  0.14124594288E+03  0.00000000000E+00 0.  1.
         21    1    1    2  503  501  0.10300399002E+03 -0.36934408667E+02 -0.49648748676E+02  0.12016226840E+03  0.00000000000E+00 0.  1.
         21    1    1    2  504  502 -0.42871924725E+02 -0.48721520358E+01  0.87188123729E+02  0.97280566993E+02  0.00000000000E+00 0.  1.
         21    1    1    2  505  503 -0.22483813506E+02 -0.64002670549E+02 -0.17371460640E+02  0.70025933425E+02  0.00000000000E+00 0.  1.
          2    1    1    2  501    0 -0.37648251787E+02  0.10580923125E+03  0.40755023660E+03  0.42274126796E+03  0.00000000000E+00 0.  1.
<scales pt_clust_3="14000.00000" pt_clust_4="43.14788" pt_clust_5="68.90898" pt_clust_6="120.94774"></scales>
<clustering>
<clus scale="   43.148">  1  4  2 -1</clus>
<clus scale="   68.909">  2  5  1 -1</clus>
<clus scale="  120.948">  1  6  2 -1</clus>
<clus scale="   68.909">  2  3  1 -1</clus>
</clustering>
</event>
<event>
 6    0  0.1361744E+002  0.1125332E+03  0.7546771E-02  0.1255949E+00
         21   -1    0    0  503  502  0.00000000000E+00  0.00000000000E+00  0.51111481938E+03  0.51111481938E+03  0.00000000000E+00 0.  1.
          2   -1    0    0  505    0 -0.00000000000E+00 -0.00000000000E+00 -0.72251721576E+03  0.72251721576E+03  0.00000000000E+00 0.  1.
         21    1    1    2  503  501  0.51591713458E+02  0.57548283243E+02  0.45704853789E+03  0.46353735101E+03  0.00000000000E+00 0.  1.
         21    1    1    2  504  502 -0.23892030759E+02  0.54773825049E+02  0.22345557976E+02  0.63799098783E+02  0.00000000000E+00 0. -1.
         21    1    1    2  505  504 -0.22567471832E+02 -0.46148594018E+02 -0.10650876951E+03  0.11825016490E+03  0.00000000000E+00 0.  1.
          2    1    1    2  501    0 -0.51322108682E+01 -0.66173514275E+02 -0.58428772273E+03  0.58804542045E+03  0.00000000000E+00 0.  1.
<scales pt_clust_3="112.53323" pt_clust_4="58.64249" pt_clust_5="51.37104" pt_clust_6="14000.00000"></scales>
<clustering>
<clus scale="   51.371">  2  5  1 -1</clus>
<clus scale="   58.642">  1  4  2 -1</clus>
<clus scale="  112.533">  1  3  2 -1</clus>
<clus scale="   58.642">  1  3  2 -1</clus>
</clustering>
</event>
<event>
 6    0  0.1361744E+002  0.8890821E+02  0.7546771E-02  0.1305517E+00
         21   -1    0    0  504  502  0.00000000000E+00  0.00000000000E+00  0.53534171307E+02  0.53534171307E+02  0.00000000000E+00 0.  1.
          3   -1    0    0  503    0 -0.00000000000E+00 -0.00000000000E+00 -0.98467320344E+03  0.98467320344E+03  0.00000000000E+00 0. -1.
         21    1    1    2  503  505 -0.36723730860E+02 -0.46637403629E+02 -0.30689729632E+03  0.31258539683E+03  0.00000000000E+00 0.  1.
         21    1    1    2  504  501  0.68001670059E+02  0.10031204743E+03 -0.17265048476E+03  0.21093819920E+03  0.00000000000E+00 0.  1.
         21    1    1    2  505  502  0.37559724697E+02 -0.70411287951E+02 -0.27035366209E+02  0.84257898242E+02  0.00000000000E+00 0.  1.
          3    1    1    2  501    0 -0.68837663896E+02  0.16736644145E+02 -0.42455588484E+03  0.43042588047E+03  0.00000000000E+00 0. -1.
<scales pt_clust_3="59.36059" pt_clust_4="14000.00000" pt_clust_5="81.89306" pt_clust_6="88.90821"></scales>
<clustering>
<clus scale="   59.361">  2  3  1 -1</clus>
<clus scale="   81.893">  1  5  2 -1</clus>
<clus scale="   88.908">  2  6  1 -1</clus>
<clus scale="   81.893">  1  3  2 -1</clus>
</clustering>
</event>
<event>
 6    0  0.1361744E+002  0.1226136E+03  0.7546771E-02  0.1238847E+00
         -1   -1    0    0    0  501 -0.00000000000E+00  0.00000000000E+00  0.56261496418E+02  0.56261496418E+02  0.00000000000E+00 0. -1.
         21   -1    0    0  504  502  0.00000000000E+00 -0.00000000000E+00 -0.27582157615E+04  0.27582157615E+04  0.00000000000E+00 0. -1.
         21    1    1    2  503  502  0.73917114521E+01 -0.30163435117E+02 -0.41473809551E+03  0.41589921625E+03  0.00000000000E+00 0.  1.
         21    1    1    2  504  505  0.11345645430E+03  0.43339860672E+02 -0.21788650817E+04  0.21822474091E+04  0.00000000000E+00 0. -1.
         21    1    1    2  505  501  0.25681486738E+02  0.20789157316E+02 -0.37759482476E+02  0.50174757995E+02  0.00000000000E+00 0. -1.
         -1    1    1    2    0  503 -0.14652965249E+03 -0.33965582870E+02 -0.70591605396E+02  0.16615587450E+03  0.00000000000E+00 0. -1.
<scales pt_clust_3="31.05592" pt_clust_4="14000.00000" pt_clust_5="32.79721" pt_clust_6="122.61357"></scales>
<clustering>
<clus scale="   31.056">  2  3  1 -1</clus>
<clus scale="   32.797">  1  5  2 -1</clus>
<clus scale="  122.614">  1  6  2 -1</clus>
<clus scale="   31.056">  2  3  1 -1</clus>
</clustering>
</event>
<event>
 6    0  0.1361744E+002  0.3285803E+03  0.7546771E-02  0.1071767E+00
         21   -1    0    0  504  502  0.00000000000E+00  0.00000000000E+00  0.58059273686E+03  0.58059273686E+03  0.00000000000E+00 0.  1.
         -1   -1    0    0    0  501 -0.00000000000E+00 -0.00000000000E+00 -0.23343872993E+04  0.23343872993E+04  0.00000000000E+00 0.  1.
         21    1    1    2  503  505 -0.15130041924E+03  0.58400317262E+02  0.20286508581E+03  0.25972419402E+03  0.00000000000E+00 0.  1.
         21    1    1    2  504  501  0.12312738597E+03  0.24389597104E+02 -0.32442203107E+03  0.34785752811E+03  0.00000000000E+00 0.  1.
         21    1    1    2  505  502 -0.16397846405E+03  0.78198322364E+01  0.31148628441E+03  0.35209912216E+03  0.00000000000E+00 0.  1.
         -1    1    1    2    0  503  0.19215149732E+03 -0.90609746602E+02 -0.19437239016E+04  0.19552991919E+04  0.00000000000E+00 0.  1.
<scales pt_clust_3="76.89088" pt_clust_4="125.51974" pt_clust_5="76.89088" pt_clust_6="319.34382"></scales>
<clustering>
<clus scale="   76.891">  3  5 -1 -1</clus>
<clus scale="  125.520">  2  4  1 -1</clus>
<clus scale="  319.344">  2  6  1 -1</clus>
<clus scale="  328.580">  1  3  2 -1</clus>
</clustering>
</event>
<event>
 6    0  0.1361744E+002  0.1585263E+03  0.7546771E-02  0.1190371E+00
         -2   -1    0    0    0  501 -0.00000000000E+00  0.00000000000E+00  0.15162074760E+04  0.15162074760E+04  0.00000000000E+00 0. -1.
         21   -1    0    0  505  502  0.00000000000E+00 -0.00000000000E+00 -0.52731548751E+03  0.52731548751E+03  0.00000000000E+00 0.  1.
         21    1    1    2  503  502  0.34541547266E+02  0.74298469461E+02  0.80833327491E+01  0.82332990472E+02  0.00000000000E+00 0. -1.
         21    1    1    2  504  501  0.64693674832E+00 -0.69652082385E+02  0.28042186480E+03  0.28894333937E+03  0.00000000000E+00 0.  1.
         21    1    1    2  505  504 -0.67086534893E+02  0.85117810201E+02 -0.47794076885E+03  0.49007450791E+03  0.00000000000E+00 0.  1.
         -2    1    1    2    0  503  0.31898050879E+02 -0.89764197277E+02  0.11783275598E+04  0.11821721258E+04  0.00000000000E+00 0. -1.
<scales pt_clust_3="79.63427" pt_clust_4="69.65509" pt_clust_5="158.52627" pt_clust_6="14000.00000"></scales>
<clustering>
<clus scale="   69.655">  1  4  2 -1</clus>
<clus scale="   79.634">  2  3  1 -1</clus>
<clus scale="  158.526">  2  5  1 -1</clus>
<clus scale="   79.634">  2  3  1 -1</clus>
</clustering>
</event>
<event>
 6    0  0.1361744E+002  0.8996438E+02  0.7546771E-02  0.1302938E+00
          2   -1    0    0  503    0 -0.00000000000E+00  0.00000000000E+00  0.73580824774E+03  0.73580824774E+03  0.00000000000E+00 0. -1.
         21   -1    0    0  504  502  0.00000000000E+00 -0.00000000000E+00 -0.41500990990E+02  0.41500990990E+02  0.00000000000E+00 0. -1.
         21    1    1    2  503  505  0.13717054433E+02 -0.41197383946E+02  0.18545086077E+03  0.19046627992E+03  0.00000000000E+00 0.  1.
         21    1    1    2  504  501  0.18730759977E+02 -0.73362031900E+02  0.41704685164E+02  0.86441366593E+02  0.00000000000E+00 0. -1.
         21    1    1    2  505  502  0.36732151377E+02  0.77079208816E+01  0.40727995664E+02  0.55384407733E+02  0.00000000000E+00 0. -1.
          2    1    1    2  501    0 -0.69179965787E+02  0.10685149496E+03  0.42642371516E+03  0.44501718449E+03  0.00000000000E+00 0. -1.
<scales pt_clust_3="43.82136" pt_clust_4="89.96438" pt_clust_5="37.53216" pt_clust_6="14000.00000"></scales>
<clustering>
<clus scale="   37.532">  2  5  1 -1</clus>
<clus scale="   43.821">  1  3  2 -1</clus>
<clus scale="   89.964">  2  4  1 -1</clus>
<clus scale="   37.532">  2  3  1 -1</clus>
</clustering>
</event>
<event>
 6    0  0.1361744E+002  0.9415438E+02  0.7546771E-02  0.1293092E+00
          2   -1    0    0  505    0 -0.00000000000E+00  0.00000000000E+00  0.31991901158E+04  0.31991901158E+04  0.00000000000E+00 0. -1.
         21   -1    0    0  504  502  0.00000000000E+00 -0.00000000000E+00 -0.14260297341E+02  0.14260297341E+02  0.00000000000E+00 0. -1.
         21    1    1    2  503  502 -0.10410515112E+03 -0.28931192342E+02  0.31351163019E+03  0.33160886394E+03  0.00000000000E+00 0. -1.
         21    1    1    2  504  501  0.25898847056E+02  0.19256349377E+02  0.15814145531E+03  0.16140098252E+03  0.00000000000E+00 0.  1.
         21    1    1    2  505  503 -0.54760478704E+02 -0.20019461152E+02  0.62029320945E+03  0.62302741074E+03  0.00000000000E+00 0. -1.
          2    1    1    2  501    0  0.13296678276E+03  0.29694304117E+02  0.20929835236E+04  0.20974131560E+04  0.00000000000E+00 0. -1.
<scales pt_clust_3="94.15438" pt_clust_4="32.27317" pt_clust_5="54.96569" pt_clust_6="14000.00000"></scales>
<clustering>
<clus scale="   32.273">  2  4  1 -1</clus>
<clus scale="   54.966">  1  5  2 -1</clus>
<clus scale="   94.154">  2  3  1 -1</clus>
<clus scale="   32.273">  2  3  1 -1</clus>
</clustering>
</event>
<event>
 6    0  0.1361744E+002  0.1381779E+03  0.7546771E-02  0.1215802E+00
         21   -1    0    0  504  502  0.00000000000E+00  0.00000000000E+00  0.14311723670E+04  0.14311723670E+04  0.00000000000E+00 0. -1.
         -1   -1    0    0    0  501 -0.00000000000E+00 -0.00000000000E+00 -0.22476996563E+04  0.22476996563E+04  0.00000000000E+00 0.  1.
         21    1    1    2  503  505 -0.45822296937E+01 -0.59851443702E+02 -0.60752203539E+03  0.61048031551E+03  0.00000000000E+00 0.  1.
         21    1    1    2  504  501 -0.27211970485E+02  0.20784867319E+03  0.12460771440E+04  0.12635860917E+04  0.00000000000E+00 0. -1.
         21    1    1    2  505  502  0.24373830150E+02 -0.83083687094E+02  0.16344350243E+03  0.18496151260E+03  0.00000000000E+00 0. -1.
         -1    1    1    2    0  503  0.74203700287E+01 -0.64913542396E+02 -0.16185259003E+04  0.16198441036E+04  0.00000000000E+00 0.  1.
<scales pt_clust_3="56.57007" pt_clust_4="124.93951" pt_clust_5="86.58512" pt_clust_6="56.57007"></scales>
<clustering>
<clus scale="   56.570">  3  6 -1 -1</clus>
<clus scale="   86.585">  1  5  2 -1</clus>
<clus scale="  124.940">  1  4  2 -1</clus>
<clus scale="   86.585">  1  3  2 -1</clus>
</clustering>
</event>
<event>
 6    0  0.1361744E+002  0.1542842E+03  0.7546771E-02  0.1195305E+00
         -2   -1    0    0    0  501 -0.00000000000E+00  0.00000000000E+00  0.60372994179E+03  0.60372994179E+03  0.00000000000E+00 0.  1.
         21   -1    0    0  501  502  0.00000000000E+00 -0.00000000000E+00 -0.53740017699E+02  0.53740017699E+02  0.00000000000E+00 0. -1.
         21    1    1    2  503  505  0.20374964973E+02  0.98906821816E+02  0.18813203361E+03  0.21352133540E+03  0.00000000000E+00 0.  1.
         21    1    1    2  504  502 -0.31226136606E+02 -0.18788222320E+02  0.13396562782E+02  0.38827011212E+02  0.00000000000E+00 0. -1.
         21    1    1    2  505  504 -0.22965923384E+02 -0.13283739195E+03  0.17639112892E+03  0.22200683931E+03  0.00000000000E+00 0. -1.
         -2    1    1    2    0  503  0.33817095017E+02  0.52718792455E+02  0.17207019878E+03  0.18311477357E+03  0.00000000000E+00 0.  1.
<scales pt_clust_3="31.96548" pt_clust_4="36.44268" pt_clust_5="148.84942" pt_clust_6="31.96548"></scales>
<clustering>
<clus scale="   31.965">  3  6 -1 -1</clus>
<clus scale="   36.443">  2  4  1 -1</clus>
<clus scale="  148.849">  2  5  1 -1</clus>
<clus scale="   36.443">  2  3  1 -1</clus>
</clustering>
</event>
<event>
 6    0  0.1361744E+002  0.1002155E+03  0.7546771E-02  0.1279843E+00
         21   -1    0    0  503  502  0.00000000000E+00  0.00000000000E+00  0.36520585719E+02  0.36520585719E+02  0.00000000000E+00 0. -1.
          2   -1    0    0  505    0 -0.00000000000E+00 -0.00000000000E+00 -0.39278581485E+04  0.39278581485E+04  0.00000000000E+00 0.  1.
         21    1    1    2  503  504 -0.55119533131E+02 -0.25192842818E+02 -0.25140317756E+01  0.60656101240E+02  0.00000000000E+00 0. -1.
         21    1    1    2  504  501 -0.65370302434E+02  0.45300837032E+02 -0.25854882038E+03  0.27050496260E+03  0.00000000000E+00 0.  1.
         21    1    1    2  505  502  0.50291278666E+02  0.23582699799E+02 -0.20781003533E+04  0.20788425710E+04  0.00000000000E+00 0.  1.
          2    1    1    2  501    0  0.70198556898E+02 -0.43690694013E+02 -0.15521743573E+04  0.15543750994E+04  0.00000000000E+00 0.  1.
<scales pt_clust_3="59.65537" pt_clust_4="14000.00000" pt_clust_5="55.54598" pt_clust_6="100.21549"></scales>
<clustering>
<clus scale="   55.546">  2  5  1 -1</clus>
<clus scale="   59.655">  1  3  2 -1</clus>
<clus scale="  100.215">  2  6  1 -1</clus>
<clus scale="   59.655">  1  3  2 -1</clus>
</clustering>
</event>
<event>
 6    0  0.1361744E+002  0.1117032E+03  0.7546771E-02  0.1257448E+00
          1   -1    0    0  504    0 -0.00000000000E+00  0.00000000000E+00  0.13504626495E+04  0.13504626495E+04  0.00000000000E+00 0.  1.
         21   -1    0    0  503  502  0.00000000000E+00 -0.00000000000E+00 -0.93282123837E+03  0.93282123837E+03  0.00000000000E+00 0. -1.
         21    1    1    2  503  501 -0.46799439616E+02 -0.12768775474E+03 -0.72775251881E+03  0.74034997055E+03  0.00000000000E+00 0. -1.
         21    1    1    2  504  505  0.26102110414E+02 -0.37572731974E+02  0.42645401999E+02  0.62543270363E+02  0.00000000000E+00 0.  1.
         21    1    1    2  505  502  0.97338586914E+02  0.28513237567E+02 -0.17003541677E+03  0.19798951531E+03  0.00000000000E+00 0. -1.
          1    1    1    2  501    0 -0.76641257712E+02  0.13674724914E+03  0.12727839448E+04  0.12824011317E+04  0.00000000000E+00 0.  1.
<scales pt_clust_3="14000.00000" pt_clust_4="45.74965" pt_clust_5="101.58591" pt_clust_6="111.70324"></scales>
<clustering>
<clus scale="   45.750">  1  4  2 -1</clus>
<clus scale="  101.586">  2  5  1 -1</clus>
<clus scale="  111.703">  1  6  2 -1</clus>
<clus scale="  101.586">  2  3  1 -1</clus>
</clustering>
</event>
<event>
 6    0  0.1361744E+002  0.1359725E+03  0.7546771E-02  0.1218853E+00
         21   -1    0    0  503  502  0.00000000000E+00  0.00000000000E+00  0.19144707746E+02  0.19144707746E+02  0.00000000000E+00 0. -1.
          2   -1    0    0  504    0 -0.00000000000E+00 -0.00000000000E+00 -0.24391712564E+04  0.24391712564E+04  0.00000000000E+00 0. -1.
         21    1    1    2  503  501 -0.95318895478E+02  0.32581806146E+02 -0.10308009306E+04  0.10357112650E+04  0.00000000000E+00 0. -1.
         21    1    1    2  504  505  0.47601707138E+02 -0.18922965512E+02 -0.16769898310E+03  0.17534808262E+03  0.00000000000E+00 0. -1.
         21    1    1    2  505  502  0.84583767590E+02 -0.39553739518E+01 -0.13050202078E+03  0.15556617933E+03  0.00000000000E+00 0. -1.
          2    1    1    2  501    0 -0.36866579250E+02 -0.97034666820E+01 -0.10910246142E+04  0.10916904372E+04  0.00000000000E+00 0. -1.
<scales pt_clust_3="126.11319" pt_clust_4="38.93160" pt_clust_5="38.93160" pt_clust_6="38.12220"></scales>
<clustering>
<clus scale="   38.122">  2  6  1 -1</clus>
<clus scale="   38.932">  4  5 -1 -1</clus>
<clus scale="  126.113">  2  3  1 -1</clus>
<clus scale="  135.973">  1  3  2 -1</clus>
</clustering>
</event>
<event>
 6    0  0.1678265E+002  0.1087110E+03  0.7546771E-02  0.1262976E+00
         21   -1    0    0  503  502  0.00000000000E+00  0.00000000000E+00  0.83017879224E+03  0.83017879224E+03  0.00000000000E+00 0. -1.
         -1   -1    0    0    0  501 -0.00000000000E+00 -0.00000000000E+00 -0.10458153858E+04  0.10458153858E+04  0.00000000000E+00 0. -1.
         21    1    1    2  503  505  0.23704835817E+02  0.21008255259E+02  0.78147060464E+01  0.32624157625E+02  0.00000000000E+00 0. -1.
         21    1    1    2  504  502  0.19022085718E+02 -0.53566039990E+02  0.78432826618E+03  0.78638539503E+03  0.00000000000E+00 0. -1.
         21    1    1    2  505  501  0.16381540922E+02  0.12285306780E+03 -0.16012565016E+03  0.20248816012E+03  0.00000000000E+00 0. -1.
         -1    1    1    2    0  504 -0.59108462457E+02 -0.90295283071E+02 -0.84765391565E+03  0.85449646529E+03  0.00000000000E+00 0. -1.
<scales pt_clust_3="31.67437" pt_clust_4="53.54014" pt_clust_5="14000.00000" pt_clust_6="108.71097"></scales>
<clustering>
<clus scale="   31.674">  1  3  2 -1</clus>
<clus scale="   53.540">  1  4  2 -1</clus>
<clus scale="  108.711">  2  6  1 -1</clus>
<clus scale="   31.674">  1  3  2 -1</clus>
</clustering>
</event>
<event>
 6    0  0.1361744E+002  0.1072016E+03  0.7546771E-02  0.1265842E+00
         21   -1    0    0  503  502  0.00000000000E+00  0.00000000000E+00  0.91638094160E+02  0.91638094160E+02  0.00000000000E+00 0.  1.
          2   -1    0    0  504    0 -0.00000000000E+00 -0.00000000000E+00 -0.88447197487E+03  0.88447197487E+03  0.00000000000E+00 0.  1.
         21    1    1    2  503  501  0.34292832679E+02  0.38402999115E+02 -0.27189333727E+01  0.51557553403E+02  0.00000000000E+00 0.  1.
         21    1    1    2  504  505  0.84160301959E+02 -0.13854723675E+03 -0.42177861929E+03  0.45185782823E+03  0.00000000000E+00 0.  1.
         21    1    1    2  505  502 -0.35939783075E+02  0.57766341674E+02  0.21988635117E+02  0.71499079100E+02  0.00000000000E+00 0.  1.
          2    1    1    2  501    0 -0.82513351563E+02  0.42377895963E+02 -0.39032496316E+03  0.40119560830E+03  0.00000000000E+00 0.  1.
<scales pt_clust_3="51.48581" pt_clust_4="14000.00000" pt_clust_5="85.33291" pt_clust_6="107.20162"></scales>
<clustering>
<clus scale="   51.486">  1  3  2 -1</clus>
<clus scale="   85.333">  1  5  2 -1</clus>
<clus scale="  107.202">  2  6  1 -1</clus>
<clus scale="   51.486">  1  3  2 -1</clus>
</clustering>
</event>
<event>
 6    0  0.2211137E+002  0.1304996E+03  0.7546771E-02  0.1226716E+00
         21   -1    0    0  503  502  0.00000000000E+00  0.00000000000E+00  0.55521478058E+03  0.55521478058E+03  0.00000000000E+00 0. -1.
          2   -1    0    0  504    0 -0.00000000000E+00 -0.00000000000E+00 -0.33946543036E+04  0.33946543036E+04  0.00000000000E+00 0.  1.
         21    1    1    2  503  505  0.25413912449E+02  0.27574181969E+02 -0.23938129809E+02  0.44488611082E+02  0.00000000000E+00 0. -1.
         21    1    1    2  504  502 -0.62410295084E+02 -0.15561152501E+03  0.52965646728E+03  0.55555914624E+03  0.00000000000E+00 0. -1.
         21    1    1    2  505  501  0.28208428188E+02  0.73306423222E+02 -0.75585952944E+03  0.75992971738E+03  0.00000000000E+00 0.  1.
          2    1    1    2  501    0  0.87879544467E+01  0.54730919819E+02 -0.25892983310E+04  0.25898916095E+04  0.00000000000E+00 0.  1.
<scales pt_clust_3="37.49937" pt_clust_4="14000.00000" pt_clust_5="130.49962" pt_clust_6="55.44897"></scales>
<clustering>
<clus scale="   37.499">  1  3  2 -1</clus>
<clus scale="   55.449">  2  6  1 -1</clus>
<clus scale="  130.500">  2  5  1 -1</clus>
<clus scale="   37.499">  1  3  2 -1</clus>
</clustering>
</event>
<event>
 6    0  0.1361744E+002  0.2605773E+03  0.7546771E-02  0.1106797E+00
         21   -1    0    0  504  502  0.00000000000E+00  0.00000000000E+00  0.76883983591E+02  0.76883983591E+02  0.00000000000E+00 0.  1.
         -3   -1    0    0    0  501 -0.00000000000E+00 -0.00000000000E+00 -0.16342127614E+04  0.16342127614E+04  0.00000000000E+00 0.  1.
         21    1    1    2  503  501 -0.15331565734E+03  0.13872475216E+03 -0.32823346243E+03  0.38792712396E+03  0.00000000000E+00 0.  1.
         21    1    1    2  504  503 -0.92851171877E+02 -0.16146282402E+01 -0.42814165996E+02  0.10225947366E+03  0.00000000000E+00 0.  1.
         21    1    1    2  505  502  0.57837984683E+02 -0.31350219737E+02 -0.17837382341E+03  0.19011914587E+03  0.00000000000E+00 0.  1.
         -3    1    1    2    0  505  0.18832884453E+03 -0.10575990418E+03 -0.10079073259E+04  0.10307910015E+04  0.00000000000E+00 0.  1.
<scales pt_clust_3="252.86201" pt_clust_4="92.86521" pt_clust_5="34.73556" pt_clust_6="34.73556"></scales>
<clustering>
<clus scale="   34.736">  5  6 -1 -1</clus>
<clus scale="   92.865">  1  4  2 -1</clus>
<clus scale="  252.862">  1  3  2 -1</clus>
<clus scale="   92.865">  1  3  2 -1</clus>
</clustering>
</event>
<event>
 6    0  0.1361744E+002  0.1525370E+03  0.7546771E-02  0.1197390E+00
          2   -1    0    0  503    0 -0.00000000000E+00  0.00000000000E+00  0.90615746763E+03  0.90615746763E+03  0.00000000000E+00 0. -1.
         21   -1    0    0  505  502  0.00000000000E+00 -0.00000000000E+00 -0.42821671203E+03  0.42821671203E+03  0.00000000000E+00 0.  1.
         21    1    1    2  503  504 -0.38683143215E+02  0.27154081195E+01  0.47874880796E+02  0.61609765634E+02  0.00000000000E+00 0.  1.
         21    1    1    2  504  502 -0.51098888549E+02  0.50852483664E+02 -0.17857684102E+02  0.74269565686E+02  0.00000000000E+00 0. -1.
         21    1    1    2  505  501 -0.79067920508E+02  0.31216130504E+02 -0.35942077428E+03  0.36933653467E+03  0.00000000000E+00 0.  1.
          2    1    1    2  501    0  0.16884995227E+03 -0.84784022288E+02  0.80734433318E+03  0.82915831367E+03  0.00000000000E+00 0. -1.
<scales pt_clust_3="38.77833" pt_clust_4="73.06735" pt_clust_5="152.53702" pt_clust_6="14000.00000"></scales>
<clustering>
<clus scale="   38.778">  1  3  2 -1</clus>
<clus scale="   73.067">  2  4  1 -1</clus>
<clus scale="  152.537">  2  5  1 -1</clus>
<clus scale="   73.067">  2  3  1 -1</clus>
</clustering>
</event>
<event>
 6    0  0.1361744E+002  0.1130860E+03  0.7546771E-02  0.1254960E+00
          2   -1    0    0  503    0 -0.00000000000E+00  0.00000000000E+00  0.30161732418E+04  0.30161732418E+04  0.00000000000E+00 0. -1.
         21   -1    0    0  505  502  0.00000000000E+00 -0.00000000000E+00 -0.90091214746E+02  0.90091214746E+02  0.00000000000E+00 0. -1.
         21    1    1    2  503  502 -0.90339404394E+02  0.12816702051E+03  0.23589335717E+02  0.15857001574E+03  0.00000000000E+00 0. -1.
         21    1    1    2  504  501  0.88730986324E+01 -0.73428777271E+02  0.69404391168E+03  0.69797383085E+03  0.00000000000E+00 0. -1.
         21    1    1    2  505  504  0.30977151302E+02 -0.27948730325E+02  0.12074213425E+01  0.41739349491E+02  0.00000000000E+00 0. -1.
          2    1    1    2  501    0  0.50489154460E+02 -0.26789512911E+02  0.22072413583E+04  0.22079812605E+04  0.00000000000E+00 0. -1.
<scales pt_clust_3="14000.00000" pt_clust_4="113.08599" pt_clust_5="41.72188" pt_clust_6="57.37062"></scales>
<clustering>
<clus scale="   41.722">  2  5  1 -1</clus>
<clus scale="   57.371">  1  6  2 -1</clus>
<clus scale="  113.086">  1  4  2 -1</clus>
<clus scale="   41.722">  2  3  1 -1</clus>
</clustering>
</event>
<event>
 6    0  0.1361744E+002  0.1456384E+03  0.7546771E-02  0.1205937E+00
         21   -1    0    0  503  502  0.00000000000E+00  0.00000000000E+00  0.14407439448E+04  0.14407439448E+04  0.00000000000E+00 0.  1.
         -4   -1    0    0    0  501 -0.00000000000E+00 -0.00000000000E+00 -0.45071847276E+03  0.45071847276E+03  0.00000000000E+00 0. -1.
         21    1    1    2  503  505  0.20758538879E+02 -0.27092523036E+02  0.91798246822E+03  0.91861675018E+03  0.00000000000E+00 0.  1.
         21    1    1    2  504  502 -0.26473484192E+02  0.51095761134E+02 -0.10405723969E+03  0.11890976117E+03  0.00000000000E+00 0. -1.
         21    1    1    2  505  501  0.18703216690E+02 -0.10123628858E+03  0.50523218627E+03  0.51561435054E+03  0.00000000000E+00 0.  1.
         -4    1    1    2    0  504 -0.12988271377E+02  0.77233050479E+02 -0.32913194277E+03  0.33832155567E+03  0.00000000000E+00 0. -1.
<scales pt_clust_3="34.13095" pt_clust_4="49.72790" pt_clust_5="133.52318" pt_clust_6="49.72790"></scales>
<clustering>
<clus scale="   34.131">  1  3  2 -1</clus>
<clus scale="   49.728">  4  6 -1 -1</clus>
<clus scale="  133.523">  1  5  2 -1</clus>
<clus scale="   34.131">  1  3  2 -1</clus>
</clustering>
</event>
<event>
 6    0  0.1361744E+002  0.1318082E+03  0.7546771E-02  0.1224797E+00
         21   -1    0    0  503  502  0.00000000000E+00  0.00000000000E+00  0.10129569836E+04  0.10129569836E+04  0.00000000000E+00 0.  1.
          3   -1    0    0  504    0 -0.00000000000E+00 -0.00000000000E+00 -0.11750516087E+03  0.11750516087E+03  0.00000000000E+00 0. -1.
         21    1    1    2  503  505 -0.10790264403E+01  0.31216513609E+02  0.96921200404E+02  0.10183002557E+03  0.00000000000E+00 0.  1.
         21    1    1    2  504  502 -0.16704842086E+02 -0.67130391342E+02 -0.60480268101E+02  0.91887997151E+02  0.00000000000E+00 0. -1.
         21    1    1    2  505  501  0.90545857399E+02  0.84054498893E+02  0.83792814174E+03  0.84698717924E+03  0.00000000000E+00 0.  1.
          3    1    1    2  501    0 -0.72761988873E+02 -0.48140621160E+02  0.21082748652E+02  0.89756942468E+02  0.00000000000E+00 0. -1.
<scales pt_clust_3="31.23516" pt_clust_4="68.66153" pt_clust_5="131.80819" pt_clust_6="14000.00000"></scales>
<clustering>
<clus scale="   31.235">  1  3  2 -1</clus>
<clus scale="   68.662">  2  4  1 -1</clus>
<clus scale="  131.808">  1  5  2 -1</clus>
<clus scale="   31.235">  1  3  2 -1</clus>
</clustering>
</event>
<event>
 6    0  0.1361744E+002  0.1381428E+03  0.7546771E-02  0.1215850E+00
         21   -1    0    0  503  502  0.00000000000E+00  0.00000000000E+00  0.89226082140E+02  0.89226082140E+02  0.00000000000E+00 0.  1.
          2   -1    0    0  505    0 -0.00000000000E+00 -0.00000000000E+00 -0.24361536427E+04  0.24361536427E+04  0.00000000000E+00 0. -1.
         21    1    1    2  503  501  0.16316009400E+03 -0.10092953559E+03 -0.15600043825E+03  0.24727337940E+03  0.00000000000E+00 0.  1.
         21    1    1    2  504  502 -0.11901595853E+03  0.13009071311E+02 -0.46246609681E+02  0.12834634092E+03  0.00000000000E+00 0.  1.
         21    1    1    2  505  504 -0.34490610800E+01  0.37514945324E+02 -0.17475773568E+03  0.17877229462E+03  0.00000000000E+00 0.  1.
          2    1    1    2  501    0 -0.40695074390E+02  0.50405518952E+02 -0.19699227770E+04  0.19709877099E+04  0.00000000000E+00 0. -1.
<scales pt_clust_3="14000.00000" pt_clust_4="138.14277" pt_clust_5="37.67316" pt_clust_6="93.91162"></scales>
<clustering>
<clus scale="   37.673">  2  5  1 -1</clus>
<clus scale="   93.912">  2  6  1 -1</clus>
<clus scale="  138.143">  1  4  2 -1</clus>
<clus scale="  138.143">  1  3  2 -1</clus>
</clustering>
</event>
<event>
 6    0  0.1361744E+002  0.1246558E+03  0.7546771E-02  0.1235608E+00
          2   -1    0    0  504    0 -0.00000000000E+00  0.00000000000E+00  0.23420845701E+04  0.23420845701E+04  0.00000000000E+00 0. -1.
         21   -1    0    0  505  502  0.00000000000E+00 -0.00000000000E+00 -0.89792391361E+02  0.89792391361E+02  0.00000000000E+00 0. -1.
         21    1    1    2  503  501 -0.60478002235E+02  0.37849013078E+02 -0.17245876778E+02  0.73399978277E+02  0.00000000000E+00 0. -1.
         21    1    1    2  504  502  0.17623586587E+02 -0.41116791698E+02  0.80242506457E+03  0.80367105561E+03  0.00000000000E+00 0. -1.
         21    1    1    2  505  503 -0.53387333863E+02 -0.24119549889E+00 -0.25446877852E+02  0.59142279163E+02  0.00000000000E+00 0. -1.
          2    1    1    2  501    0  0.96241749510E+02  0.35089741193E+01  0.14925598688E+04  0.14956636484E+04  0.00000000000E+00 0. -1.
<scales pt_clust_3="31.96125" pt_clust_4="44.73457" pt_clust_5="31.96125" pt_clust_6="119.05436"></scales>
<clustering>
<clus scale="   31.961">  3  5 -1 -1</clus>
<clus scale="   44.735">  1  4  2 -1</clus>
<clus scale="  119.054">  1  6  2 -1</clus>
<clus scale="  124.656">  2  3  1 -1</clus>
</clustering>
</event>
<event>
 6    0  0.1361744E+002  0.1207769E+03  0.7546771E-02  0.1241821E+00
         21   -1    0    0  503  502  0.00000000000E+00  0.00000000000E+00  0.14036016250E+03  0.14036016250E+03  0.00000000000E+00 0. -1.
          1   -1    0    0  505    0 -0.00000000000E+00 -0.00000000000E+00 -0.11607639830E+04  0.11607639830E+04  0.00000000000E+00 0.  1.
         21    1    1    2  503  501 -0.30287374936E+02 -0.68431647013E+02 -0.28845044083E+02  0.80201321446E+02  0.00000000000E+00 0.  1.
         21    1    1    2  504  502 -0.27135839972E+02 -0.61744647073E+02  0.96234065369E+02  0.11751489519E+03  0.00000000000E+00 0. -1.
         21    1    1    2  505  504  0.77203761725E+01  0.45382315746E+02 -0.92983213204E+02  0.10375469497E+03  0.00000000000E+00 0.  1.
          1    1    1    2  501    0  0.49702838736E+02  0.84793978340E+02 -0.99480962860E+03  0.99965323392E+03  0.00000000000E+00 0.  1.
<scales pt_clust_3="120.77686" pt_clust_4="66.99733" pt_clust_5="46.03432" pt_clust_6="14000.00000"></scales>
<clustering>
<clus scale="   46.034">  2  5  1 -1</clus>
<clus scale="   66.997">  1  4  2 -1</clus>
<clus scale="  120.777">  1  3  2 -1</clus>
<clus scale="   66.997">  1  3  2 -1</clus>
</clustering>
</event>
<event>
 6    0  0.1361744E+002  0.1127693E+03  0.7546771E-02  0.1255526E+00
         21   -1    0    0  505  502  0.00000000000E+00  0.00000000000E+00  0.16426937316E+03  0.16426937316E+03  0.00000000000E+00 0. -1.
          2   -1    0    0  504    0 -0.00000000000E+00 -0.00000000000E+00 -0.11347428618E+04  0.11347428618E+04  0.00000000000E+00 0.  1.
         21    1    1    2  503  502  0.66280191041E+02  0.88590557519E+01 -0.85373875531E+01  0.67412414135E+02  0.00000000000E+00 0. -1.
         21    1    1    2  504  503  0.33983792643E+02  0.19970468132E+02 -0.81148001844E+02  0.90214832279E+02  0.00000000000E+00 0. -1.
         21    1    1    2  505  501 -0.56288199629E+02 -0.12215039184E+03  0.92122394169E+02  0.16302029061E+03  0.00000000000E+00 0. -1.
          2    1    1    2  501    0 -0.43975784055E+02  0.93320867952E+02 -0.97291049342E+03  0.97836469795E+03  0.00000000000E+00 0.  1.
<scales pt_clust_3="68.18698" pt_clust_4="39.41723" pt_clust_5="112.76929" pt_clust_6="14000.00000"></scales>
<clustering>
<clus scale="   39.417">  2  4  1 -1</clus>
<clus scale="   68.187">  1  3  2 -1</clus>
<clus scale="  112.769">  1  5  2 -1</clus>
<clus scale="   68.187">  1  3  2 -1</clus>
</clustering>
</event>
<event>
 6    0  0.1361744E+002  0.1598893E+03  0.7546771E-02  0.1188822E+00
         -4   -1    0    0    0  501 -0.00000000000E+00  0.00000000000E+00  0.58139640441E+02  0.58139640441E+02  0.00000000000E+00 0.  1.
         21   -1    0    0  505  502  0.00000000000E+00 -0.00000000000E+00 -0.12090773467E+04  0.12090773467E+04  0.00000000000E+00 0. -1.
         21    1    1    2  503  501 -0.33785324275E+02  0.41599611705E+02 -0.95630021222E+02  0.10962242831E+03  0.00000000000E+00 0. -1.
         21    1    1    2  504  502  0.11301182189E+03  0.10235966569E+03 -0.69502950026E+03  0.71155827539E+03  0.00000000000E+00 0. -1.
         21    1    1    2  505  503  0.56032374331E+02 -0.62376326319E+02 -0.21754051429E+03  0.23314010469E+03  0.00000000000E+00 0. -1.
         -4    1    1    2    0  504 -0.13525887195E+03 -0.81582951079E+02 -0.14273767048E+03  0.21289617874E+03  0.00000000000E+00 0.  1.
<scales pt_clust_3="53.59082" pt_clust_4="159.88933" pt_clust_5="75.68585" pt_clust_6="14000.00000"></scales>
<clustering>
<clus scale="   53.591">  1  3  2 -1</clus>
<clus scale="   75.686">  2  5  1 -1</clus>
<clus scale="  159.889">  2  4  1 -1</clus>
<clus scale="   75.686">  2  3  1 -1</clus>
</clustering>
</event>
<event>
 6    0  0.1361744E+002  0.6633620E+02  0.7546771E-02  0.1373015E+00
         21   -1    0    0  505  502  0.00000000000E+00  0.00000000000E+00  0.44583811408E+02  0.44583811408E+02  0.00000000000E+00 0.  1.
          2   -1    0    0  504    0 -0.00000000000E+00 -0.00000000000E+00 -0.28311397162E+04  0.28311397162E+04  0.00000000000E+00 0. -1.
         21    1    1    2  503  502  0.44335557337E+02  0.48359584605E+02  0.51390784578E+01  0.65808063297E+02  0.00000000000E+00 0.  1.
         21    1    1    2  504  503 -0.38796689191E+02  0.69474627831E+02 -0.16540086257E+04  0.16559216289E+04  0.00000000000E+00 0. -1.
         21    1    1    2  505  501 -0.20679575060E+02 -0.75922754984E+02 -0.19532728444E+03  0.21058171239E+03  0.00000000000E+00 0. -1.
          2    1    1    2  501    0  0.15140706914E+02 -0.41911457452E+02 -0.94235907310E+03  0.94341212306E+03  0.00000000000E+00 0. -1.
<scales pt_clust_3="14000.00000" pt_clust_4="41.51619" pt_clust_5="66.33620" pt_clust_6="44.56244"></scales>
<clustering>
<clus scale="   44.562">  2  6  1 -1</clus>
<clus scale="   41.516">  2  4  1 -1</clus>
<clus scale="   66.336">  2  5  1 -1</clus>
<clus scale="   66.336">  1  3  2 -1</clus>
</clustering>
</event>
<event>
 6    0  0.1361744E+002  0.8246941E+02  0.7546771E-02  0.1322186E+00
          2   -1    0    0  505    0 -0.00000000000E+00  0.00000000000E+00  0.74792035125E+03  0.74792035125E+03  0.00000000000E+00 0. -1.
         21   -1    0    0  503  502  0.00000000000E+00 -0.00000000000E+00 -0.60365667200E+02  0.60365667200E+02  0.00000000000E+00 0. -1.
         21    1    1    2  503  501  0.55240246838E+02  0.45870915188E+02  0.60242174205E+02  0.93726972019E+02  0.00000000000E+00 0.  1.
         21    1    1    2  504  502 -0.33291708241E+02  0.71686335842E+02  0.21189673194E+02  0.81830745041E+02  0.00000000000E+00 0. -1.
         21    1    1    2  505  504 -0.53401775916E+02 -0.70662547906E+02  0.15858971279E+03  0.18164702681E+03  0.00000000000E+00 0. -1.
          2    1    1    2  501    0  0.31453237319E+02 -0.46894703123E+02  0.44753312387E+03  0.45108127458E+03  0.00000000000E+00 0. -1.
<scales pt_clust_3="82.46941" pt_clust_4="69.43420" pt_clust_5="14000.00000" pt_clust_6="56.46609"></scales>
<clustering>
<clus scale="   56.466">  1  6  2 -1</clus>
<clus scale="   69.434">  2  4  1 -1</clus>
<clus scale="   82.469">  2  3  1 -1</clus>
<clus scale="   69.434">  2  3  1 -1</clus>
</clustering>
</event>
<event>
 6    0  0.1361744E+002  0.1109212E+03  0.7546771E-02  0.1258873E+00
          2   -1    0    0  503    0 -0.00000000000E+00  0.00000000000E+00  0.23682384319E+04  0.23682384319E+04  0.00000000000E+00 0. -1.
         21   -1    0    0  505  502  0.00000000000E+00 -0.00000000000E+00 -0.27746368096E+02  0.27746368096E+02  0.00000000000E+00 0. -1.
         21    1    1    2  503  504  0.31257248909E+02 -0.92317980453E+02  0.62172894723E+03  0.62932226160E+03  0.00000000000E+00 0.  1.
         21    1    1    2  504  502  0.56654365559E+02  0.33763211981E+02  0.58043157106E+02  0.87856016908E+02  0.00000000000E+00 0. -1.
         21    1    1    2  505  501  0.59296246132E+02  0.67669567964E+02  0.43227206770E+03  0.44153635835E+03  0.00000000000E+00 0. -1.
          2    1    1    2  501    0 -0.14720786060E+03 -0.91147994910E+01  0.12284478918E+04  0.12372701631E+04  0.00000000000E+00 0. -1.
<scales pt_clust_3="95.30937" pt_clust_4="65.95204" pt_clust_5="14000.00000" pt_clust_6="110.92118"></scales>
<clustering>
<clus scale="   65.952">  2  4  1 -1</clus>
<clus scale="   95.309">  2  3  1 -1</clus>
<clus scale="  110.921">  1  6  2 -1</clus>
<clus scale="   65.952">  2  3  1 -1</clus>
</clustering>
</event>
<event>
 6    0  0.1361744E+002  0.1089172E+03  0.7546771E-02  0.1262588E+00
         21   -1    0    0  504  502  0.00000000000E+00  0.00000000000E+00  0.12011046612E+03  0.12011046612E+03  0.00000000000E+00 0.  1.
          2   -1    0    0  503    0 -0.00000000000E+00 -0.00000000000E+00 -0.22749576195E+04  0.22749576195E+04  0.00000000000E+00 0.  1.
         21    1    1    2  503  505 -0.44762089162E+02 -0.62945896782E+02 -0.56447461447E+03  0.56973451794E+03  0.00000000000E+00 0.  1.
         21    1    1    2  504  501 -0.40165112975E+02 -0.90781017247E+01  0.73097961437E+02  0.83898511295E+02  0.00000000000E+00 0.  1.
         21    1    1    2  505  502  0.10667636040E+03  0.98694583360E+02 -0.97315920351E+02  0.17490241567E+03  0.00000000000E+00 0.  1.
          2    1    1    2  501    0 -0.21749158260E+02 -0.26670584854E+02 -0.15661545800E+04  0.15665326407E+04  0.00000000000E+00 0.  1.
<scales pt_clust_3="108.91718" pt_clust_4="41.38504" pt_clust_5="14000.00000" pt_clust_6="34.41433"></scales>
<clustering>
<clus scale="   34.414">  2  6  1 -1</clus>
<clus scale="   41.385">  1  4  2 -1</clus>
<clus scale="  108.917">  2  3  1 -1</clus>
<clus scale="   41.385">  1  3  2 -1</clus>
</clustering>
</event>
<event>
 6    0  0.1361744E+002  0.1106565E+03  0.7546771E-02  0.1259359E+00
          2   -1    0    0  505    0 -0.00000000000E+00  0.00000000000E+00  0.19279778610E+04  0.19279778610E+04  0.00000000000E+00 0. -1.
         21   -1    0    0  504  502  0.00000000000E+00 -0.00000000000E+00 -0.24260935102E+03  0.24260935102E+03  0.00000000000E+00 0. -1.
         21    1    1    2  503  501  0.52451116252E+01 -0.16497511788E+03  0.18507932168E+03  0.24798922563E+03  0.00000000000E+00 0.  1.
         21    1    1    2  504  503 -0.62801315709E+02  0.72065430299E+02 -0.19365709228E+03  0.21596411945E+03  0.00000000000E+00 0. -1.
         21    1    1    2  505  502  0.50717674250E+02  0.24148131845E+02  0.13584361522E+03  0.14699966853E+03  0.00000000000E+00 0.  1.
          2    1    1    2  501    0  0.68385298339E+01  0.68761555736E+02  0.15581026654E+04  0.15596341984E+04  0.00000000000E+00 0. -1.
<scales pt_clust_3="14000.00000" pt_clust_4="95.49614" pt_clust_5="56.17308" pt_clust_6="110.65653"></scales>
<clustering>
<clus scale="   56.173">  1  5  2 -1</clus>
<clus scale="   95.496">  2  4  1 -1</clus>
<clus scale="  110.657">  1  6  2 -1</clus>
<clus scale="   95.496">  2  3  1 -1</clus>
</clustering>
</event>
<event>
 6    0  0.1361744E+002  0.8664761E+02  0.7546771E-02  0.1311179E+00
         21   -1    0    0  504  502  0.00000000000E+00  0.00000000000E+00  0.91405868463E+02  0.91405868463E+02  0.00000000000E+00 0.  1.
          2   -1    0    0  503    0 -0.00000000000E+00 -0.00000000000E+00 -0.18046559545E+04  0.18046559545E+04  0.00000000000E+00 0.  1.
         21    1    1    2  503  505 -0.27694991660E+02 -0.48738005995E+02 -0.59553620227E+03  0.59816868357E+03  0.00000000000E+00 0.  1.
         21    1    1    2  504  501  0.46834584065E+01 -0.33032283732E+02 -0.11304378462E+02  0.35225779248E+02  0.00000000000E+00 0.  1.
         21    1    1    2  505  502 -0.72135886110E+02 -0.19711419253E+02  0.55080707251E+02  0.92876317892E+02  0.00000000000E+00 0.  1.
          2    1    1    2  501    0  0.95147419364E+02  0.10148170898E+03 -0.11614902126E+04  0.11697910423E+04  0.00000000000E+00 0.  1.
<scales pt_clust_3="56.49566" pt_clust_4="33.36265" pt_clust_5="86.64761" pt_clust_6="14000.00000"></scales>
<clustering>
<clus scale="   33.363">  1  4  2 -1</clus>
<clus scale="   56.496">  2  3  1 -1</clus>
<clus scale="   86.648">  1  5  2 -1</clus>
<clus scale="   33.363">  1  3  2 -1</clus>
</clustering>
</event>
<event>
 6    0  0.1361744E+002  0.9025091E+02  0.7546771E-02  0.1302245E+00
          1   -1    0    0  504    0 -0.00000000000E+00  0.00000000000E+00  0.67685480575E+03  0.67685480575E+03  0.00000000000E+00 0.  1.
         21   -1    0    0  505  502  0.00000000000E+00 -0.00000000000E+00 -0.79079308216E+02  0.79079308216E+02  0.00000000000E+00 0. -1.
         21    1    1    2  503  501  0.65663554084E+02  0.47294141657E+02  0.92328805032E+02  0.12277233568E+03  0.00000000000E+00 0.  1.
         21    1    1    2  504  502 -0.12860800118E+03 -0.57423869345E+01  0.22744870960E+02  0.13072995881E+03  0.00000000000E+00 0. -1.
         21    1    1    2  505  503 -0.22489596655E+02 -0.22588592839E+02  0.39919864649E+02  0.51084460238E+02  0.00000000000E+00 0. -1.
          1    1    1    2  501    0  0.85434043751E+02 -0.18963161884E+02  0.44278195689E+03  0.45134735923E+03  0.00000000000E+00 0.  1.
<scales pt_clust_3="74.41653" pt_clust_4="90.25091" pt_clust_5="31.87517" pt_clust_6="14000.00000"></scales>
<clustering>
<clus scale="   31.875">  2  5  1 -1</clus>
<clus scale="   74.417">  2  3  1 -1</clus>
<clus scale="   90.251">  2  4  1 -1</clus>
<clus scale="   31.875">  2  3  1 -1</clus>
</clustering>
</event>
<event>
 6    0  0.1566301E+002  0.1534520E+03  0.7546771E-02  0.1196294E+00
         21   -1    0    0  504  502  0.00000000000E+00  0.00000000000E+00  0.57755563308E+03  0.57755563308E+03  0.00000000000E+00 0. -1.
          2   -1    0    0  503    0 -0.00000000000E+00 -0.00000000000E+00 -0.72295634724E+03  0.72295634724E+03  0.00000000000E+00 0. -1.
         21    1    1    2  503  505  0.11129878352E+02  0.72851457042E+02 -0.86235032053E+02  0.11343583974E+03  0.00000000000E+00 0. -1.
         21    1    1    2  504  501 -0.29921825824E+02  0.92382450460E+01  0.67681718732E+01  0.32038554628E+02  0.00000000000E+00 0. -1.
         21    1    1    2  505  502  0.66949677259E+02 -0.16032472957E+03  0.52706591652E+03  0.55496374526E+03  0.00000000000E+00 0. -1.
          2    1    1    2  501    0 -0.48157729787E+02  0.78235027482E+02 -0.59299977050E+03  0.60007384069E+03  0.00000000000E+00 0. -1.
<scales pt_clust_3="73.81301" pt_clust_4="31.31550" pt_clust_5="14000.00000" pt_clust_6="153.45201"></scales>
<clustering>
<clus scale="   31.316">  1  4  2 -1</clus>
<clus scale="   73.813">  2  3  1 -1</clus>
<clus scale="  153.452">  2  6  1 -1</clus>
<clus scale="   31.316">  1  3  2 -1</clus>
</clustering>
</event>
<event>
 6    0  0.1361744E+002  0.8674643E+02  0.7546771E-02  0.1310928E+00
          2   -1    0    0  505    0 -0.00000000000E+00  0.00000000000E+00  0.95190695070E+03  0.95190695070E+03  0.00000000000E+00 0. -1.
         21   -1    0    0  503  502  0.00000000000E+00 -0.00000000000E+00 -0.29865037467E+02  0.29865037467E+02  0.00000000000E+00 0. -1.
         21    1    1    2  503  504  0.41330379826E+02 -0.34392933244E+02  0.52344309884E+02  0.75039995542E+02  0.00000000000E+00 0. -1.
         21    1    1    2  504  501  0.75162086276E+02  0.25768168613E+02  0.11913979128E+03  0.14320484487E+03  0.00000000000E+00 0. -1.
         21    1    1    2  505  502 -0.82568157538E+02  0.28745199885E+02  0.33932807283E+03  0.35041022839E+03  0.00000000000E+00 0. -1.
          2    1    1    2  501    0 -0.33924308563E+02 -0.20120435254E+02  0.41122973924E+03  0.41311691936E+03  0.00000000000E+00 0. -1.
<scales pt_clust_3="52.39412" pt_clust_4="86.74643" pt_clust_5="14000.00000" pt_clust_6="39.44224"></scales>
<clustering>
<clus scale="   39.442">  1  6  2 -1</clus>
<clus scale="   52.394">  2  3  1 -1</clus>
<clus scale="   86.746">  2  4  1 -1</clus>
<clus scale="   52.394">  2  3  1 -1</clus>
</clustering>
</event>
<event>
 6    0  0.1361744E+002  0.1504322E+03  0.7546771E-02  0.1199943E+00
          1   -1    0    0  503    0 -0.00000000000E+00  0.00000000000E+00  0.59437903533E+03  0.59437903533E+03  0.00000000000E+00 0. -1.
         21   -1    0    0  504  502  0.00000000000E+00 -0.00000000000E+00 -0.10944420519E+04  0.10944420519E+04  0.00000000000E+00 0. -1.
         21    1    1    2  503  502  0.56697777579E+02 -0.41096758133E+02  0.12234991720E+03  0.14097192539E+03  0.00000000000E+00 0.  1.
         21    1    1    2  504  505  0.51640544939E+02 -0.48867953125E+02 -0.74035846518E+03  0.74376439797E+03  0.00000000000E+00 0. -1.
         21    1    1    2  505  501  0.21916618454E+02 -0.64063394609E+02 -0.31725898750E+03  0.32440364031E+03  0.00000000000E+00 0. -1.
          1    1    1    2  501    0 -0.13025494097E+03  0.15402810587E+03  0.43520451890E+03  0.47968112358E+03  0.00000000000E+00 0. -1.
<scales pt_clust_3="70.02558" pt_clust_4="63.72517" pt_clust_5="63.72517" pt_clust_6="135.52011"></scales>
<clustering>
<clus scale="   63.725">  4  5 -1 -1</clus>
<clus scale="   70.026">  1  3  2 -1</clus>
<clus scale="  135.520">  1  6  2 -1</clus>
<clus scale="  150.432">  2  3  1 -1</clus>
</clustering>
</event>
<event>
 6    0  0.1361744E+002  0.1162412E+03  0.7546771E-02  0.1249430E+00
          2   -1    0    0  503    0 -0.00000000000E+00  0.00000000000E+00  0.72947234800E+03  0.72947234800E+03  0.00000000000E+00 0.  1.
         21   -1    0    0  501  502  0.00000000000E+00 -0.00000000000E+00 -0.51296662671E+03  0.51296662671E+03  0.00000000000E+00 0.  1.
         21    1    1    2  503  505 -0.14107030963E+03  0.26231694936E+02  0.18619311146E+03  0.23506766863E+03  0.00000000000E+00 0. -1.
         21    1    1    2  504  502 -0.19963440946E+02 -0.86454448730E+02 -0.32682386449E+02  0.94557120640E+02  0.00000000000E+00 0. -1.
         21    1    1    2  505  504  0.94367338261E+02  0.15701796933E+03 -0.39743308599E+03  0.43762186309E+03  0.00000000000E+00 0.  1.
          2    1    1    2  501    0  0.66666412320E+02 -0.96795215531E+02  0.46042808227E+03  0.47519232235E+03  0.00000000000E+00 0.  1.
<scales pt_clust_3="116.24124" pt_clust_4="88.72942" pt_clust_5="107.83775" pt_clust_6="14000.00000"></scales>
<clustering>
<clus scale="   88.729">  2  4  1 -1</clus>
<clus scale="  107.838">  2  5  1 -1</clus>
<clus scale="  116.241">  2  3  1 -1</clus>
<clus scale="   88.729">  2  3  1 -1</clus>
</clustering>
</event>
<event>
 6    0  0.1361744E+002  0.1211795E+03  0.7546771E-02  0.1241164E+00
          1   -1    0    0  503    0 -0.00000000000E+00  0.00000000000E+00  0.83977320964E+03  0.83977320964E+03  0.00000000000E+00 0. -1.
         21   -1    0    0  504  502  0.00000000000E+00 -0.00000000000E+00 -0.37600478427E+03  0.37600478427E+03  0.00000000000E+00 0.  1.
         21    1    1    2  503  502  0.69228092292E+02 -0.59898954968E+02  0.19725489012E+03  0.21746242260E+03  0.00000000000E+00 0.  1.
         21    1    1    2  504  505 -0.41193697548E+02  0.46355498086E+02 -0.14348748925E+03  0.15631510641E+03  0.00000000000E+00 0.  1.
         21    1    1    2  505  501 -0.13737489871E+02  0.56052065617E+02 -0.21132216713E+03  0.21906074730E+03  0.00000000000E+00 0.  1.
          1    1    1    2  501    0 -0.14296904873E+02 -0.42508608734E+02  0.62132319163E+03  0.62293971760E+03  0.00000000000E+00 0. -1.
<scales pt_clust_3="114.76972" pt_clust_4="37.51598" pt_clust_5="37.51598" pt_clust_6="44.84845"></scales>
<clustering>
<clus scale="   37.516">  4  5 -1 -1</clus>
<clus scale="   44.848">  1  6  2 -1</clus>
<clus scale="  114.770">  1  3  2 -1</clus>
<clus scale="  121.180">  2  3  1 -1</clus>
</clustering>
</event>
<event>
 6    0  0.1361744E+002  0.2232292E+03  0.7546771E-02  0.1131498E+00
          2   -1    0    0  504    0 -0.00000000000E+00  0.00000000000E+00  0.48335681392E+03  0.48335681392E+03  0.00000000000E+00 0.  1.
         21   -1    0    0  503  502  0.00000000000E+00 -0.00000000000E+00 -0.16049611916E+04  0.16049611916E+04  0.00000000000E+00 0. -1.
         21    1    1    2  503  505  0.76140279768E+02  0.46008292732E+02 -0.69457147750E+03  0.70024541595E+03  0.00000000000E+00 0. -1.
         21    1    1    2  504  502  0.17435929239E+03 -0.20002118484E+02  0.20567258682E+03  0.27037466700E+03  0.00000000000E+00 0.  1.
         21    1    1    2  505  501  0.57312620234E+02  0.11541391103E+03 -0.74865073668E+03  0.75965981388E+03  0.00000000000E+00 0. -1.
          2    1    1    2  501    0 -0.30781219239E+03 -0.14142008527E+03  0.11594524972E+03  0.35803810864E+03  0.00000000000E+00 0.  1.
<scales pt_clust_3="56.14531" pt_clust_4="175.50284" pt_clust_5="56.14531" pt_clust_6="212.75610"></scales>
<clustering>
<clus scale="   56.145">  3  5 -1 -1</clus>
<clus scale="  175.503">  1  4  2 -1</clus>
<clus scale="  212.756">  1  6  2 -1</clus>
<clus scale="  223.229">  2  3  1 -1</clus>
</clustering>
</event>
<event>
 6    0  0.1361744E+002  0.1075733E+03  0.7546771E-02  0.1265131E+00
         21   -1    0    0  505  502  0.00000000000E+00  0.00000000000E+00  0.80303552221E+02  0.80303552221E+02  0.00000000000E+00 0. -1.
          2   -1    0    0  503    0 -0.00000000000E+00 -0.00000000000E+00 -0.81066771875E+03  0.81066771875E+03  0.00000000000E+00 0. -1.
         21    1    1    2  503  502  0.35864334990E+02 -0.17306766146E+02 -0.30467478306E+03  0.30726616819E+03  0.00000000000E+00 0. -1.
         21    1    1    2  504  501  0.26465993679E+02  0.89761440983E+02 -0.20679111807E+02  0.95839400947E+02  0.00000000000E+00 0. -1.
         21    1    1    2  505  504 -0.44705583882E+02  0.25149418434E+02  0.17247365279E+02  0.54116116701E+02  0.00000000000E+00 0. -1.
          2    1    1    2  501    0 -0.17624744787E+02 -0.97604093270E+02 -0.42225763693E+03  0.43374958513E+03  0.00000000000E+00 0. -1.
<scales pt_clust_3="39.82179" pt_clust_4="14000.00000" pt_clust_5="49.84252" pt_clust_6="107.57332"></scales>
<clustering>
<clus scale="   39.822">  2  3  1 -1</clus>
<clus scale="   49.843">  1  5  2 -1</clus>
<clus scale="  107.573">  2  6  1 -1</clus>
<clus scale="   49.843">  1  3  2 -1</clus>
</clustering>
</event>
<event>
 6    0  0.1361744E+002  0.1222823E+03  0.7546771E-02  0.1239379E+00
         -1   -1    0    0    0  501 -0.00000000000E+00  0.00000000000E+00  0.11818902885E+04  0.11818902885E+04  0.00000000000E+00 0. -1.
         21   -1    0    0  503  502  0.00000000000E+00 -0.00000000000E+00 -0.47246972175E+02  0.47246972175E+02  0.00000000000E+00 0. -1.
         21    1    1    2  503  501  0.26626520736E+02  0.31095532473E+02  0.37125168669E+03  0.37350196602E+03  0.00000000000E+00 0. -1.
         21    1    1    2  504  502  0.25550893901E+02 -0.35233896752E+02  0.21235625463E+02  0.48427548444E+02  0.00000000000E+00 0.  1.
         21    1    1    2  505  504 -0.11927368873E+02 -0.80413398369E+02  0.26576660469E+02  0.85527163212E+02  0.00000000000E+00 0. -1.
         -1    1    1    2    0  505 -0.40250045764E+02  0.84551762648E+02  0.71557934368E+03  0.72168058298E+03  0.00000000000E+00 0. -1.
<scales pt_clust_3="40.93780" pt_clust_4="33.51442" pt_clust_5="33.51442" pt_clust_6="113.37992"></scales>
<clustering>
<clus scale="   33.514">  4  5 -1 -1</clus>
<clus scale="   40.938">  1  3  2 -1</clus>
<clus scale="  113.380">  1  6  2 -1</clus>
<clus scale="  122.282">  2  3  1 -1</clus>
</clustering>
</event>
<event>
 6    0  0.1361744E+002  0.1230593E+03  0.7546771E-02  0.1238134E+00
          2   -1    0    0  503    0 -0.00000000000E+00  0.00000000000E+00  0.26214908472E+04  0.26214908472E+04  0.00000000000E+00 0. -1.
         21   -1    0    0  505  502  0.00000000000E+00 -0.00000000000E+00 -0.43933314600E+02  0.43933314600E+02  0.00000000000E+00 0.  1.
         21    1    1    2  503  502 -0.13976442285E+03 -0.41249790879E+02  0.12881264658E+03  0.19449508236E+03  0.00000000000E+00 0.  1.
         21    1    1    2  504  501  0.46187622832E+02  0.27421871092E+02  0.90804748160E+03  0.90963480823E+03  0.00000000000E+00 0.  1.
         21    1    1    2  505  504  0.95801293315E+02 -0.19468523610E+02  0.22678534012E+03  0.24695850199E+03  0.00000000000E+00 0.  1.
          2    1    1    2  501    0 -0.22244932932E+01  0.33296443397E+02  0.13139120643E+04  0.13143357692E+04  0.00000000000E+00 0. -1.
<scales pt_clust_3="123.05925" pt_clust_4="67.45380" pt_clust_5="14000.00000" pt_clust_6="33.37067"></scales>
<clustering>
<clus scale="   33.371">  1  6  2 -1</clus>
<clus scale="   67.454">  1  4  2 -1</clus>
<clus scale="  123.059">  2  3  1 -1</clus>
<clus scale="  123.059">  2  3  1 -1</clus>
</clustering>
</event>
<event>
 6    0  0.1361744E+002  0.1260615E+03  0.7546771E-02  0.1233420E+00
         21   -1    0    0  504  502  0.00000000000E+00  0.00000000000E+00  0.93605775835E+03  0.93605775835E+03  0.00000000000E+00 0.  1.
          4   -1    0    0  503    0 -0.00000000000E+00 -0.00000000000E+00 -0.17892908945E+04  0.17892908945E+04  0.00000000000E+00 0. -1.
         21    1    1    2  503  505  0.28239503699E+02  0.92902978871E+02  0.19607372079E+03  0.21879976471E+03  0.00000000000E+00 0.  1.
         21    1    1    2  504  501  0.86366783623E+02 -0.98614412419E+02 -0.21799925556E+03  0.25437708049E+03  0.00000000000E+00 0. -1.
         21    1    1    2  505  502 -0.16504324598E+02  0.39634810109E+02  0.70803392713E+03  0.70933444359E+03  0.00000000000E+00 0.  1.
          4    1    1    2  501    0 -0.98101962724E+02 -0.33923376560E+02 -0.15393415285E+04  0.15428373640E+04  0.00000000000E+00 0. -1.
<scales pt_clust_3="126.06151" pt_clust_4="14000.00000" pt_clust_5="42.93380" pt_clust_6="103.82254"></scales>
<clustering>
<clus scale="   42.934">  1  5  2 -1</clus>
<clus scale="  103.823">  2  6  1 -1</clus>
<clus scale="  126.062">  1  3  2 -1</clus>
<clus scale="   42.934">  1  3  2 -1</clus>
</clustering>
</event>
<event>
 6    0  0.1361744E+002  0.1475349E+03  0.7546771E-02  0.1203535E+00
         21   -1    0    0  504  502  0.00000000000E+00  0.00000000000E+00  0.32071320708E+03  0.32071320708E+03  0.00000000000E+00 0.  1.
         -3   -1    0    0    0  501 -0.00000000000E+00 -0.00000000000E+00 -0.51871881254E+03  0.51871881254E+03  0.00000000000E+00 0. -1.
         21    1    1    2  503  505 -0.16889268935E+02 -0.54342320815E+02  0.59229036890E+02  0.82136557315E+02  0.00000000000E+00 0.  1.
         21    1    1    2  504  503  0.13096648309E+01 -0.83820249334E+02  0.20639953305E+03  0.22277413823E+03  0.00000000000E+00 0.  1.
         21    1    1    2  505  501 -0.97998873031E+02  0.57425360509E+02 -0.12812203464E+03  0.17122122212E+03  0.00000000000E+00 0. -1.
         -3    1    1    2    0  502  0.11357847714E+03  0.80737209640E+02 -0.33551214076E+03  0.36330010196E+03  0.00000000000E+00 0. -1.
<scales pt_clust_3="45.72790" pt_clust_4="45.72790" pt_clust_5="113.58456" pt_clust_6="136.69734"></scales>
<clustering>
<clus scale="   45.728">  3  4 -1 -1</clus>
<clus scale="  113.585">  2  5  1 -1</clus>
<clus scale="  136.697">  2  6  1 -1</clus>
<clus scale="  147.535">  1  3  2 -1</clus>
</clustering>
</event>
<event>
 6    0  0.1361744E+002  0.2255401E+03  0.7546771E-02  0.1129819E+00
         21   -1    0    0  505  502  0.00000000000E+00  0.00000000000E+00  0.12300247228E+03  0.12300247228E+03  0.00000000000E+00 0. -1.
          2   -1    0    0  503    0 -0.00000000000E+00 -0.00000000000E+00 -0.93905644131E+03  0.93905644131E+03  0.00000000000E+00 0. -1.
         21    1    1    2  503  504 -0.15445494083E+03 -0.30441355291E+01 -0.21148990796E+02  0.15592586482E+03  0.00000000000E+00 0. -1.
         21    1    1    2  504  502 -0.61490319493E+02  0.30818934009E+02  0.11902961605E+02  0.69803628701E+02  0.00000000000E+00 0. -1.
         21    1    1    2  505  501  0.11229441082E+03 -0.98202611169E+00 -0.37545081029E+03  0.39188558283E+03  0.00000000000E+00 0. -1.
          2    1    1    2  501    0  0.10365084951E+03 -0.26792772368E+02 -0.43135712954E+03  0.44444383724E+03  0.00000000000E+00 0. -1.
<scales pt_clust_3="39.27477" pt_clust_4="39.27477" pt_clust_5="32.44265" pt_clust_6="220.24497"></scales>
<clustering>
<clus scale="   32.443">  5  6 -1 -1</clus>
<clus scale="   39.275">  3  4 -1 -1</clus>
<clus scale="  220.245">  2  5  1 -1</clus>
<clus scale="  225.540">  1  3  2 -1</clus>
</clustering>
</event>
<event>
 6    0  0.1361744E+002  0.2266149E+03  0.7546771E-02  0.1129045E+00
          2   -1    0    0  505    0 -0.00000000000E+00  0.00000000000E+00  0.24169327060E+04  0.24169327060E+04  0.00000000000E+00 0.  1.
         21   -1    0    0  504  502  0.00000000000E+00 -0.00000000000E+00 -0.12827950706E+03  0.12827950706E+03  0.00000000000E+00 0.  1.
         21    1    1    2  503  502 -0.80764594362E+02 -0.43441075853E+02  0.79821113053E+02  0.12157901489E+03  0.00000000000E+00 0. -1.
         21    1    1    2  504  501  0.12431116689E+03 -0.19779637622E+03  0.39632368550E+02  0.23695442029E+03  0.00000000000E+00 0.  1.
         21    1    1    2  505  503  0.13301785213E+02  0.12326921478E+03  0.64113763665E+03  0.65301585427E+03  0.00000000000E+00 0.  1.
          2    1    1    2  501    0 -0.56848357742E+02  0.11796823730E+03  0.15280620807E+04  0.15336629236E+04  0.00000000000E+00 0.  1.
<scales pt_clust_3="91.70631" pt_clust_4="226.61493" pt_clust_5="121.18950" pt_clust_6="14000.00000"></scales>
<clustering>
<clus scale="   91.706">  2  3  1 -1</clus>
<clus scale="  121.190">  1  5  2 -1</clus>
<clus scale="  226.615">  2  4  1 -1</clus>
<clus scale="   91.706">  2  3  1 -1</clus>
</clustering>
</event>
<event>
 6    0  0.1361744E+002  0.2325466E+03  0.7546771E-02  0.1124860E+00
         21   -1    0    0  501  502  0.00000000000E+00  0.00000000000E+00  0.76877143928E+03  0.76877143928E+03  0.00000000000E+00 0.  1.
          2   -1    0    0  504    0 -0.00000000000E+00 -0.00000000000E+00 -0.23016705830E+04  0.23016705830E+04  0.00000000000E+00 0. -1.
         21    1    1    2  503  502  0.35552962036E+02 -0.15727715866E+03  0.55515282734E+03  0.57809582203E+03  0.00000000000E+00 0.  1.
         21    1    1    2  504  505 -0.15619630539E+02  0.60277921468E+02 -0.93139591424E+02  0.11203742306E+03  0.00000000000E+00 0.  1.
         21    1    1    2  505  503 -0.41916204593E+02 -0.56181536786E+02  0.18348685560E+03  0.19641985506E+03  0.00000000000E+00 0. -1.
          2    1    1    2  501    0  0.21982873096E+02  0.15318077398E+03 -0.21783992353E+04  0.21838889222E+04  0.00000000000E+00 0. -1.
<scales pt_clust_3="61.43011" pt_clust_4="62.26878" pt_clust_5="61.43011" pt_clust_6="213.06589"></scales>
<clustering>
<clus scale="   61.430">  3  5 -1 -1</clus>
<clus scale="   62.269">  2  4  1 -1</clus>
<clus scale="  213.066">  2  6  1 -1</clus>
<clus scale="  232.547">  1  3  2 -1</clus>
</clustering>
</event>
<event>
 6    0  0.1361744E+002  0.1572100E+03  0.7546771E-02  0.1191883E+00
         21   -1    0    0  505  502  0.00000000000E+00  0.00000000000E+00  0.43519726079E+03  0.43519726079E+03  0.00000000000E+00 0.  1.
          1   -1    0    0  503    0 -0.00000000000E+00 -0.00000000000E+00 -0.28337306169E+04  0.28337306169E+04  0.00000000000E+00 0.  1.
         21    1    1    2  503  504 -0.22419969774E+02  0.74083779402E+02 -0.39964698536E+03  0.40707342620E+03  0.00000000000E+00 0. -1.
         21    1    1    2  504  502  0.17286542297E+01 -0.14550943578E+03  0.37606496017E+03  0.40323794268E+03  0.00000000000E+00 0.  1.
         21    1    1    2  505  501  0.63153142393E+02  0.53661012446E+00  0.16868754704E+02  0.65369428863E+02  0.00000000000E+00 0.  1.
          1    1    1    2  501    0 -0.42461826849E+02  0.70889046255E+02 -0.23918200856E+04  0.23932470799E+04  0.00000000000E+00 0.  1.
<scales pt_clust_3="77.23653" pt_clust_4="157.21002" pt_clust_5="63.15542" pt_clust_6="14000.00000"></scales>
<clustering>
<clus scale="   63.155">  1  5  2 -1</clus>
<clus scale="   77.237">  2  3  1 -1</clus>
<clus scale="  157.210">  1  4  2 -1</clus>
<clus scale="   63.155">  1  3  2 -1</clus>
</clustering>
</event>
<event>
 6    0  0.1361744E+002  0.2511175E+03  0.7546771E-02  0.1112601E+00
         21   -1    0    0  504  502  0.00000000000E+00  0.00000000000E+00  0.15487356228E+03  0.15487356228E+03  0.00000000000E+00 0.  1.
          1   -1    0    0  503    0 -0.00000000000E+00 -0.00000000000E+00 -0.12014205503E+04  0.12014205503E+04  0.00000000000E+00 0.  1.
         21    1    1    2  503  505 -0.15264111769E+02 -0.18324990620E+03 -0.27087040842E+01  0.18390448148E+03  0.00000000000E+00 0.  1.
         21    1    1    2  504  501 -0.27274421766E+02  0.84602161661E+02 -0.53810465378E+03  0.54539713811E+03  0.00000000000E+00 0.  1.
         21    1    1    2  505  502  0.33017442497E+02 -0.51462275501E+02  0.31724838260E+02  0.68883834616E+02  0.00000000000E+00 0. -1.
          1    1    1    2  501    0  0.95210910386E+01  0.15011002004E+03 -0.53745846846E+03  0.55810865843E+03  0.00000000000E+00 0.  1.
<scales pt_clust_3="50.45161" pt_clust_4="56.92922" pt_clust_5="50.45161" pt_clust_6="246.75699"></scales>
<clustering>
<clus scale="   50.452">  3  5 -1 -1</clus>
<clus scale="   56.929">  4  6 -1 -1</clus>
<clus scale="  246.757">  2  4  1 -1</clus>
<clus scale="  251.117">  1  3  2 -1</clus>
</clustering>
</event>
<event>
 6    0  0.1361744E+002  0.1436308E+03  0.7546771E-02  0.1208525E+00
         21   -1    0    0  503  502  0.00000000000E+00  0.00000000000E+00  0.77393020021E+02  0.77393020021E+02  0.00000000000E+00 0.  1.
          1   -1    0    0  504    0 -0.00000000000E+00 -0.00000000000E+00 -0.90252882741E+03  0.90252882741E+03  0.00000000000E+00 0.  1.
         21    1    1    2  503  501 -0.27424306434E+01  0.32710438385E+02  0.14352526369E+02  0.35825810784E+02  0.00000000000E+00 0.  1.
         21    1    1    2  504  505  0.77893391799E+02  0.10827712985E+03 -0.53318679039E+03  0.54961756775E+03  0.00000000000E+00 0.  1.
         21    1    1    2  505  502  0.36266971481E+02 -0.10655504559E+02  0.59314599017E+01  0.38262451756E+02  0.00000000000E+00 0.  1.
          1    1    1    2  501    0 -0.11141793264E+03 -0.13033206368E+03 -0.31223300327E+03  0.35621601714E+03  0.00000000000E+00 0.  1.
<scales pt_clust_3="32.82520" pt_clust_4="143.63078" pt_clust_5="35.25063" pt_clust_6="14000.00000"></scales>
<clustering>
<clus scale="   32.825">  1  3  2 -1</clus>
<clus scale="   35.251">  1  5  2 -1</clus>
<clus scale="  143.631">  2  4  1 -1</clus>
<clus scale="   32.825">  1  3  2 -1</clus>
</clustering>
</event>
<event>
 6    0  0.1361744E+002  0.1926232E+03  0.7546771E-02  0.1156116E+00
          2   -1    0    0  504    0 -0.00000000000E+00  0.00000000000E+00  0.27860804397E+04  0.27860804397E+04  0.00000000000E+00 0.  1.
         21   -1    0    0  505  502  0.00000000000E+00 -0.00000000000E+00 -0.22072495179E+03  0.22072495179E+03  0.00000000000E+00 0.  1.
         21    1    1    2  503  501  0.62165190828E+02  0.43613269059E+02  0.12209882232E+03  0.14378717120E+03  0.00000000000E+00 0.  1.
         21    1    1    2  504  502  0.80559994949E+02 -0.95797143437E+02 -0.14447298347E+03  0.19115294512E+03  0.00000000000E+00 0.  1.
         21    1    1    2  505  503  0.46304494562E+02  0.59872878349E+01 -0.24274085063E+02  0.52623046642E+02  0.00000000000E+00 0.  1.
          2    1    1    2  501    0 -0.18902968034E+03  0.46196586543E+02  0.26120037341E+04  0.26192422285E+04  0.00000000000E+00 0.  1.
<scales pt_clust_3="78.40867" pt_clust_4="14000.00000" pt_clust_5="46.68998" pt_clust_6="192.62316"></scales>
<clustering>
<clus scale="   46.690">  2  5  1 -1</clus>
<clus scale="   78.409">  2  3  1 -1</clus>
<clus scale="  192.623">  1  6  2 -1</clus>
<clus scale="   46.690">  2  3  1 -1</clus>
</clustering>
</event>
<event>
 6    0  0.1361744E+002  0.1500718E+03  0.7546771E-02  0.1200385E+00
         21   -1    0    0  501  502  0.00000000000E+00  0.00000000000E+00  0.75872218404E+02  0.75872218404E+02  0.00000000000E+00 0. -1.
          2   -1    0    0  503    0 -0.00000000000E+00 -0.00000000000E+00 -0.31643308031E+04  0.31643308031E+04  0.00000000000E+00 0.  1.
         21    1    1    2  503  505  0.47390077369E+02  0.47745367475E+02 -0.15130200460E+04  0.15145148065E+04  0.00000000000E+00 0.  1.
         21    1    1    2  504  502 -0.52800791076E+02 -0.65479129246E+02  0.31872336305E+02  0.89951574342E+02  0.00000000000E+00 0. -1.
         21    1    1    2  505  504  0.74979479954E+01 -0.12643365445E+03 -0.39322547394E+03  0.41311979081E+03  0.00000000000E+00 0. -1.
          2    1    1    2  501    0 -0.20872342888E+01  0.14416741622E+03 -0.12140854011E+04  0.12226168499E+04  0.00000000000E+00 0.  1.
<scales pt_clust_3="67.27139" pt_clust_4="82.93845" pt_clust_5="14000.00000" pt_clust_6="150.07182"></scales>
<clustering>
<clus scale="   67.271">  2  3  1 -1</clus>
<clus scale="   82.938">  1  4  2 -1</clus>
<clus scale="  150.072">  2  6  1 -1</clus>
<clus scale="   82.938">  1  3  2 -1</clus>
</clustering>
</event>
<event>
 6    0  0.1361744E+002  0.1425413E+03  0.7546771E-02  0.1209950E+00
          2   -1    0    0  505    0 -0.00000000000E+00  0.00000000000E+00  0.44711364376E+03  0.44711364376E+03  0.00000000000E+00 0. -1.
         21   -1    0    0  501  502  0.00000000000E+00 -0.00000000000E+00 -0.71951735267E+03  0.71951735267E+03  0.00000000000E+00 0. -1.
         21    1    1    2  503  504  0.18831100017E+02 -0.14133082162E+03 -0.31077861565E+03  0.34192449373E+03  0.00000000000E+00 0. -1.
         21    1    1    2  504  502 -0.60910262372E+02  0.58619037171E+00 -0.34835129386E+03  0.35363685839E+03  0.00000000000E+00 0. -1.
         21    1    1    2  505  503 -0.79515798473E+02  0.66802619857E+02  0.74106323837E+02  0.12758173639E+03  0.00000000000E+00 0. -1.
          2    1    1    2  501    0  0.12159496083E+03  0.73942011390E+02  0.31261987675E+03  0.34348790792E+03  0.00000000000E+00 0. -1.
<scales pt_clust_3="14000.00000" pt_clust_4="60.91308" pt_clust_5="107.30037" pt_clust_6="142.54131"></scales>
<clustering>
<clus scale="   60.913">  2  4  1 -1</clus>
<clus scale="  107.300">  1  5  2 -1</clus>
<clus scale="  142.541">  1  6  2 -1</clus>
<clus scale="   60.913">  2  3  1 -1</clus>
</clustering>
</event>
<event>
 6    0  0.1361744E+002  0.1049941E+03  0.7546771E-02  0.1270131E+00
         21   -1    0    0  501  502  0.00000000000E+00  0.00000000000E+00  0.26748452955E+03  0.26748452955E+03  0.00000000000E+00 0. -1.
          2   -1    0    0  505    0 -0.00000000000E+00 -0.00000000000E+00 -0.71454310926E+03  0.71454310926E+03  0.00000000000E+00 0.  1.
         21    1    1    2  503  502  0.28454501954E+01  0.45965040608E+02  0.10993599107E+03  0.11919229706E+03  0.00000000000E+00 0. -1.
         21    1    1    2  504  503 -0.10625844244E+03 -0.33598747847E+02  0.11511517687E+03  0.16022245908E+03  0.00000000000E+00 0. -1.
         21    1    1    2  505  504 -0.27038311874E+02 -0.33277141923E+02 -0.46689375262E+02  0.63390348208E+02  0.00000000000E+00 0.  1.
          2    1    1    2  501    0  0.13045130412E+03  0.20910849162E+02 -0.62542037239E+03  0.63922253446E+03  0.00000000000E+00 0.  1.
<scales pt_clust_3="45.80856" pt_clust_4="104.99414" pt_clust_5="42.87702" pt_clust_6="14000.00000"></scales>
<clustering>
<clus scale="   42.877">  2  5  1 -1</clus>
<clus scale="   45.809">  1  3  2 -1</clus>
<clus scale="  104.994">  1  4  2 -1</clus>
<clus scale="   45.809">  1  3  2 -1</clus>
</clustering>
</event>
<event>
 6    0  0.1361744E+002  0.1114550E+03  0.7546771E-02  0.1257899E+00
         21   -1    0    0  504  502  0.00000000000E+00  0.00000000000E+00  0.24994859088E+03  0.24994859088E+03  0.00000000000E+00 0.  1.
          2   -1    0    0  505    0 -0.00000000000E+00 -0.00000000000E+00 -0.57284161115E+03  0.57284161115E+03  0.00000000000E+00 0.  1.
         21    1    1    2  503  501  0.64730414556E+02  0.89837285354E+01 -0.23947079153E+03  0.24822770584E+03  0.00000000000E+00 0. -1.
         21    1    1    2  504  503 -0.99860381104E+02  0.46572027893E+02  0.20126743767E+03  0.22945507395E+03  0.00000000000E+00 0.  1.
         21    1    1    2  505  502  0.90008313121E+00 -0.35927878986E+02  0.17764759917E+02  0.40090015378E+02  0.00000000000E+00 0. -1.
          2    1    1    2  501    0  0.34229883417E+02 -0.19627877442E+02 -0.30245442632E+03  0.30501740687E+03  0.00000000000E+00 0.  1.
<scales pt_clust_3="38.85616" pt_clust_4="99.65658" pt_clust_5="35.93915" pt_clust_6="38.85616"></scales>
<clustering>
<clus scale="   35.939">  1  5  2 -1</clus>
<clus scale="   38.856">  3  6 -1 -1</clus>
<clus scale="   99.657">  1  4  2 -1</clus>
<clus scale="   35.939">  1  3  2 -1</clus>
</clustering>
</event>
<event>
 6    0  0.1361744E+002  0.1161113E+03  0.7546771E-02  0.1249654E+00
          2   -1    0    0  504    0 -0.00000000000E+00  0.00000000000E+00  0.11894175136E+04  0.11894175136E+04  0.00000000000E+00 0.  1.
         21   -1    0    0  503  502  0.00000000000E+00 -0.00000000000E+00 -0.24019222625E+03  0.24019222625E+03  0.00000000000E+00 0.  1.
         21    1    1    2  503  501 -0.25484610080E+02  0.31844431727E+02  0.15564294074E+02  0.43655245194E+02  0.00000000000E+00 0.  1.
         21    1    1    2  504  505 -0.40123978732E+02  0.36183713232E+02 -0.13501663223E+03  0.14542587717E+03  0.00000000000E+00 0.  1.
         21    1    1    2  505  502  0.31243012785E+02  0.44451086097E+02 -0.74005532389E+02  0.91808734483E+02  0.00000000000E+00 0.  1.
          2    1    1    2  501    0  0.34365576027E+02 -0.11247923106E+03  0.11426831579E+04  0.11487198830E+04  0.00000000000E+00 0.  1.
<scales pt_clust_3="40.78643" pt_clust_4="14000.00000" pt_clust_5="60.24690" pt_clust_6="116.11133"></scales>
<clustering>
<clus scale="   40.786">  2  3  1 -1</clus>
<clus scale="   60.247">  2  5  1 -1</clus>
<clus scale="  116.111">  1  6  2 -1</clus>
<clus scale="   40.786">  2  3  1 -1</clus>
</clustering>
</event>
<event>
 6    0  0.1361744E+002  0.8736849E+02  0.7546771E-02  0.1309352E+00
         21   -1    0    0  505  502  0.00000000000E+00  0.00000000000E+00  0.49734544199E+02  0.49734544199E+02  0.00000000000E+00 0.  1.
          2   -1    0    0  504    0 -0.00000000000E+00 -0.00000000000E+00 -0.41180718917E+03  0.41180718917E+03  0.00000000000E+00 0. -1.
         21    1    1    2  503  501  0.25340955807E+02  0.32487561708E+02 -0.50808219518E+02  0.65414683959E+02  0.00000000000E+00 0.  1.
         21    1    1    2  504  502  0.61369742381E+02 -0.75939806629E+02 -0.15974587327E+03  0.18722137575E+03  0.00000000000E+00 0.  1.
         21    1    1    2  505  503  0.64060246375E+01  0.37850896286E+02 -0.10455119462E+02  0.39787397807E+02  0.00000000000E+00 0.  1.
          2    1    1    2  501    0 -0.93116722826E+02  0.56013486347E+01 -0.14106343272E+03  0.16911827585E+03  0.00000000000E+00 0. -1.
<scales pt_clust_3="85.52357" pt_clust_4="87.36849" pt_clust_5="35.58285" pt_clust_6="14000.00000"></scales>
<clustering>
<clus scale="   35.583">  3  5 -1 -1</clus>
<clus scale="   85.524">  1  3  2 -1</clus>
<clus scale="   87.368">  2  4  1 -1</clus>
<clus scale="   85.524">  1  3  2 -1</clus>
</clustering>
</event>
<event>
 6    0  0.1361744E+002  0.1195411E+03  0.7546771E-02  0.1243856E+00
         -1   -1    0    0    0  501 -0.00000000000E+00  0.00000000000E+00  0.46484338330E+03  0.46484338330E+03  0.00000000000E+00 0.  1.
         21   -1    0    0  504  502  0.00000000000E+00 -0.00000000000E+00 -0.20634875657E+03  0.20634875657E+03  0.00000000000E+00 0.  1.
         21    1    1    2  503  505 -0.35610319395E+02 -0.29972103816E+02  0.31205144993E+02  0.56037335131E+02  0.00000000000E+00 0.  1.
         21    1    1    2  504  503  0.37330648874E+02  0.11604463299E+03 -0.16079844265E+03  0.20178224240E+03  0.00000000000E+00 0.  1.
         21    1    1    2  505  501  0.34913522512E+02 -0.15434254406E+02  0.36228507389E+02  0.52627701934E+02  0.00000000000E+00 0.  1.
         -1    1    1    2    0  502 -0.36633851991E+02 -0.70638274764E+02  0.35185941700E+03  0.36074486040E+03  0.00000000000E+00 0.  1.
<scales pt_clust_3="44.94558" pt_clust_4="119.54112" pt_clust_5="38.17290" pt_clust_6="14000.00000"></scales>
<clustering>
<clus scale="   38.173">  1  5  2 -1</clus>
<clus scale="   44.946">  1  3  2 -1</clus>
<clus scale="  119.541">  2  4  1 -1</clus>
<clus scale="  119.541">  2  3  1 -1</clus>
</clustering>
</event>
<event>
 6    0  0.1361744E+002  0.5123343E+03  0.7546771E-02  0.1010609E+00
         21   -1    0    0  504  502  0.00000000000E+00  0.00000000000E+00  0.72370235077E+03  0.72370235077E+03  0.00000000000E+00 0.  1.
          2   -1    0    0  505    0 -0.00000000000E+00 -0.00000000000E+00 -0.13436528294E+04  0.13436528294E+04  0.00000000000E+00 0.  1.
         21    1    1    2  503  501  0.19437350706E+03  0.26829365950E+02  0.21285025513E+03  0.28949284315E+03  0.00000000000E+00 0.  1.
         21    1    1    2  504  503  0.33425276745E+03 -0.32440258006E+02  0.30265829761E+03  0.45208331975E+03  0.00000000000E+00 0.  1.
         21    1    1    2  505  502 -0.21720363504E+03  0.40869427796E+02 -0.97556330174E+02  0.24158842431E+03  0.00000000000E+00 0.  1.
          2    1    1    2  501    0 -0.31142263946E+03 -0.35258535741E+02 -0.10379027012E+04  0.10841905929E+04  0.00000000000E+00 0.  1.
<scales pt_clust_3="52.45329" pt_clust_4="52.45329" pt_clust_5="221.01522" pt_clust_6="507.71791"></scales>
<clustering>
<clus scale="   52.453">  3  4 -1 -1</clus>
<clus scale="  221.015">  2  5  1 -1</clus>
<clus scale="  507.718">  2  6  1 -1</clus>
<clus scale="  512.334">  1  3  2 -1</clus>
</clustering>
</event>
<event>
 6    0  0.1361744E+002  0.6164124E+02  0.7546771E-02  0.1391070E+00
         21   -1    0    0  503  502  0.00000000000E+00  0.00000000000E+00  0.25094345442E+03  0.25094345442E+03  0.00000000000E+00 0. -1.
         -2   -1    0    0    0  501 -0.00000000000E+00 -0.00000000000E+00 -0.78851345270E+03  0.78851345270E+03  0.00000000000E+00 0. -1.
         21    1    1    2  503  505  0.11634583643E+02 -0.87119283922E+02  0.18693793888E+03  0.20656942213E+03  0.00000000000E+00 0. -1.
         21    1    1    2  504  502 -0.12625113012E+02  0.36906959774E+02  0.25816543204E+02  0.46776180491E+02  0.00000000000E+00 0. -1.
         21    1    1    2  505  501  0.62106815633E+02  0.38854605017E+02 -0.64894993181E+02  0.97868774484E+02  0.00000000000E+00 0. -1.
         -2    1    1    2    0  504 -0.61116286264E+02  0.11357719131E+02 -0.68542948718E+03  0.68824253002E+03  0.00000000000E+00 0. -1.
<scales pt_clust_3="53.28900" pt_clust_4="39.00663" pt_clust_5="14000.00000" pt_clust_6="61.64124"></scales>
<clustering>
<clus scale="   39.007">  1  4  2 -1</clus>
<clus scale="   53.289">  1  3  2 -1</clus>
<clus scale="   61.641">  2  6  1 -1</clus>
<clus scale="   39.007">  1  3  2 -1</clus>
</clustering>
</event>
<event>
 6    0  0.1361744E+002  0.1198698E+03  0.7546771E-02  0.1243312E+00
          2   -1    0    0  505    0 -0.00000000000E+00  0.00000000000E+00  0.11495392568E+03  0.11495392568E+03  0.00000000000E+00 0. -1.
         21   -1    0    0  504  502  0.00000000000E+00 -0.00000000000E+00 -0.26995722407E+04  0.26995722407E+04  0.00000000000E+00 0.  1.
         21    1    1    2  503  501  0.39598289683E+02  0.31518045991E+02  0.10925149445E+02  0.51776159178E+02  0.00000000000E+00 0. -1.
         21    1    1    2  504  503 -0.15612846217E+02  0.28108498542E+02 -0.70616456926E+03  0.70689620705E+03  0.00000000000E+00 0.  1.
         21    1    1    2  505  502 -0.52182236438E+02 -0.11351360036E+03 -0.19592452918E+04  0.19632244998E+04  0.00000000000E+00 0.  1.
          2    1    1    2  501    0  0.28196792972E+02  0.53887055826E+02  0.69866396559E+02  0.92629300373E+02  0.00000000000E+00 0. -1.
<scales pt_clust_3="45.00587" pt_clust_4="32.15352" pt_clust_5="109.23967" pt_clust_6="45.00587"></scales>
<clustering>
<clus scale="   32.154">  2  4  1 -1</clus>
<clus scale="   45.006">  3  6 -1 -1</clus>
<clus scale="  109.240">  2  5  1 -1</clus>
<clus scale="   32.154">  2  3  1 -1</clus>
</clustering>
</event>
<event>
 6    0  0.1361744E+002  0.1426215E+03  0.7546771E-02  0.1209844E+00
         21   -1    0    0  504  502  0.00000000000E+00  0.00000000000E+00  0.26946345723E+03  0.26946345723E+03  0.00000000000E+00 0. -1.
          2   -1    0    0  502    0 -0.00000000000E+00 -0.00000000000E+00 -0.14030864913E+04  0.14030864913E+04  0.00000000000E+00 0. -1.
         21    1    1    2  503  505 -0.21911647819E+02 -0.67449360058E+02  0.83736763687E+02  0.10973323141E+03  0.00000000000E+00 0. -1.
         21    1    1    2  504  503 -0.21869465798E+02 -0.66240170404E+02  0.15866000954E+03  0.17331772078E+03  0.00000000000E+00 0. -1.
         21    1    1    2  505  501 -0.56317427204E+01  0.84631256312E+02 -0.31570306988E+03  0.32689844662E+03  0.00000000000E+00 0.  1.
          2    1    1    2  501    0  0.49412856337E+02  0.49058274150E+02 -0.10603167374E+04  0.10626005497E+04  0.00000000000E+00 0. -1.
<scales pt_clust_3="39.32184" pt_clust_4="39.32184" pt_clust_5="136.99971" pt_clust_6="69.63006"></scales>
<clustering>
<clus scale="   39.322">  3  4 -1 -1</clus>
<clus scale="   69.630">  2  6  1 -1</clus>
<clus scale="  137.000">  2  5  1 -1</clus>
<clus scale="  142.621">  1  3  2 -1</clus>
</clustering>
</event>
<event>
 6    0  0.1361744E+002  0.4978284E+03  0.7546771E-02  0.1014347E+00
          2   -1    0    0  504    0 -0.00000000000E+00  0.00000000000E+00  0.19300614142E+04  0.19300614142E+04  0.00000000000E+00 0.  1.
         21   -1    0    0  505  502  0.00000000000E+00 -0.00000000000E+00 -0.49863543770E+03  0.49863543770E+03  0.00000000000E+00 0. -1.
         21    1    1    2  503  502  0.33338422043E+02  0.35118142461E+02  0.14222914536E+02  0.50468065270E+02  0.00000000000E+00 0.  1.
         21    1    1    2  504  503  0.45243722474E+03  0.71386041952E+02 -0.32751026910E+03  0.56307937778E+03  0.00000000000E+00 0. -1.
         21    1    1    2  505  501 -0.14439023378E+03 -0.13412339072E+02  0.43848770231E+03  0.46184401644E+03  0.00000000000E+00 0.  1.
          2    1    1    2  501    0 -0.34138541300E+03 -0.93091845341E+02  0.13062256287E+04  0.13533053924E+04  0.00000000000E+00 0.  1.
<scales pt_clust_3="48.42246" pt_clust_4="494.37992" pt_clust_5="37.44636" pt_clust_6="37.44636"></scales>
<clustering>
<clus scale="   37.446">  5  6 -1 -1</clus>
<clus scale="   48.422">  2  3  1 -1</clus>
<clus scale="  494.380">  2  4  1 -1</clus>
<clus scale="   48.422">  2  3  1 -1</clus>
</clustering>
</event>
<event>
 6    0  0.1361744E+002  0.1674550E+03  0.7546771E-02  0.1180528E+00
          1   -1    0    0  504    0 -0.00000000000E+00  0.00000000000E+00  0.87054900020E+03  0.87054900020E+03  0.00000000000E+00 0.  1.
         21   -1    0    0  505  502  0.00000000000E+00 -0.00000000000E+00 -0.26613761598E+03  0.26613761598E+03  0.00000000000E+00 0.  1.
         21    1    1    2  503  502  0.43993650245E+02 -0.11128844740E+02 -0.13298216941E+03  0.14051174267E+03  0.00000000000E+00 0.  1.
         21    1    1    2  504  503  0.84196930409E+01 -0.13991607518E+03 -0.80067167203E+02  0.16142537158E+03  0.00000000000E+00 0.  1.
         21    1    1    2  505  501  0.68947402196E+01  0.45879284441E+02  0.17519032621E+03  0.18122940319E+03  0.00000000000E+00 0.  1.
          1    1    1    2  501    0 -0.59308083506E+02  0.10516563548E+03  0.64227039462E+03  0.65352009874E+03  0.00000000000E+00 0.  1.
<scales pt_clust_3="45.37943" pt_clust_4="158.23468" pt_clust_5="33.96956" pt_clust_6="33.96956"></scales>
<clustering>
<clus scale="   33.970">  5  6 -1 -1</clus>
<clus scale="   45.379">  2  3  1 -1</clus>
<clus scale="  158.235">  2  4  1 -1</clus>
<clus scale="   45.379">  2  3  1 -1</clus>
</clustering>
</event>
<event>
 6    0  0.1361744E+002  0.1336532E+03  0.7546771E-02  0.1222133E+00
         21   -1    0    0  504  502  0.00000000000E+00  0.00000000000E+00  0.27861577765E+03  0.27861577765E+03  0.00000000000E+00 0. -1.
          1   -1    0    0  505    0 -0.00000000000E+00 -0.00000000000E+00 -0.39034938821E+03  0.39034938821E+03  0.00000000000E+00 0. -1.
         21    1    1    2  503  501  0.55130615454E+01  0.37799853802E+02 -0.96367778131E+02  0.10366277759E+03  0.00000000000E+00 0. -1.
         21    1    1    2  504  503 -0.87526617127E+01 -0.73838519089E+02  0.30750155070E+02  0.80463084860E+02  0.00000000000E+00 0. -1.
         21    1    1    2  505  502 -0.86202039653E+02 -0.46327391578E+01  0.20108256230E+03  0.21882973010E+03  0.00000000000E+00 0. -1.
          1    1    1    2  501    0  0.89441639820E+02  0.40671404444E+02 -0.24719854980E+03  0.26600957332E+03  0.00000000000E+00 0. -1.
<scales pt_clust_3="36.60093" pt_clust_4="74.35547" pt_clust_5="120.07289" pt_clust_6="36.60093"></scales>
<clustering>
<clus scale="   36.601">  3  6 -1 -1</clus>
<clus scale="   74.355">  1  4  2 -1</clus>
<clus scale="  120.073">  1  5  2 -1</clus>
<clus scale="   74.355">  1  3  2 -1</clus>
</clustering>
</event>
<event>
 6    0  0.1361744E+002  0.2058294E+03  0.7546771E-02  0.1144912E+00
          2   -1    0    0  504    0 -0.00000000000E+00  0.00000000000E+00  0.37278208988E+03  0.37278208988E+03  0.00000000000E+00 0.  1.
         21   -1    0    0  501  502  0.00000000000E+00 -0.00000000000E+00 -0.15819782077E+03  0.15819782077E+03  0.00000000000E+00 0.  1.
         21    1    1    2  503  502 -0.82383513097E+02 -0.20120471159E+02 -0.33882400841E+02  0.91323018329E+02  0.00000000000E+00 0.  1.
         21    1    1    2  504  505 -0.16296204367E+02  0.31877876752E+02  0.28605591496E+02  0.45826249768E+02  0.00000000000E+00 0. -1.
         21    1    1    2  505  503 -0.67055683197E+02 -0.94686702021E+02  0.14045619659E+02  0.11687307483E+03  0.00000000000E+00 0.  1.
          2    1    1    2  501    0  0.16573540066E+03  0.82929296428E+02  0.20581545879E+03  0.27695756772E+03  0.00000000000E+00 0.  1.
<scales pt_clust_3="75.06816" pt_clust_4="35.80175" pt_clust_5="75.06816" pt_clust_6="186.88601"></scales>
<clustering>
<clus scale="   35.802">  1  4  2 -1</clus>
<clus scale="   75.068">  3  5 -1 -1</clus>
<clus scale="  186.886">  1  6  2 -1</clus>
<clus scale="  205.829">  2  3  1 -1</clus>
</clustering>
</event>
<event>
 6    0  0.1361744E+002  0.1146290E+03  0.7546771E-02  0.1252230E+00
         21   -1    0    0  504  502  0.00000000000E+00  0.00000000000E+00  0.47745167687E+03  0.47745167687E+03  0.00000000000E+00 0. -1.
         -2   -1    0    0    0  501 -0.00000000000E+00 -0.00000000000E+00 -0.24684149901E+03  0.24684149901E+03  0.00000000000E+00 0. -1.
         21    1    1    2  503  502  0.40228854314E+02  0.41103169871E+02  0.25163409537E+02  0.62777611236E+02  0.00000000000E+00 0. -1.
         21    1    1    2  504  501 -0.53107496712E+02  0.65089204038E+02  0.41429645037E+03  0.42272752391E+03  0.00000000000E+00 0. -1.
         21    1    1    2  505  503 -0.76183316074E+01 -0.53158499696E+02 -0.66316852398E+02  0.85333404821E+02  0.00000000000E+00 0. -1.
         -2    1    1    2    0  505  0.20496974005E+02 -0.53033874214E+02 -0.14253282964E+03  0.15345463591E+03  0.00000000000E+00 0. -1.
<scales pt_clust_3="57.51375" pt_clust_4="105.74000" pt_clust_5="43.01336" pt_clust_6="43.01336"></scales>
<clustering>
<clus scale="   43.013">  5  6 -1 -1</clus>
<clus scale="   57.514">  1  3  2 -1</clus>
<clus scale="  105.740">  1  4  2 -1</clus>
<clus scale="   57.514">  1  3  2 -1</clus>
</clustering>
</event>
<event>
 6    0  0.1361744E+002  0.1361816E+03  0.7546771E-02  0.1218561E+00
         21   -1    0    0  505  502  0.00000000000E+00  0.00000000000E+00  0.55725018658E+03  0.55725018658E+03  0.00000000000E+00 0.  1.
          2   -1    0    0  503    0 -0.00000000000E+00 -0.00000000000E+00 -0.62226202602E+03  0.62226202602E+03  0.00000000000E+00 0.  1.
         21    1    1    2  503  502 -0.10950465663E+02  0.73950904818E+02 -0.12437802752E+03  0.14511561856E+03  0.00000000000E+00 0.  1.
         21    1    1    2  504  501 -0.32998902542E+02 -0.60221007227E+02  0.22657671369E+03  0.23675410127E+03  0.00000000000E+00 0.  1.
         21    1    1    2  505  504  0.54450663805E+01 -0.69603767923E+02  0.30891486299E+03  0.31670605588E+03  0.00000000000E+00 0.  1.
          2    1    1    2  501    0  0.38504301825E+02  0.55873870331E+02 -0.47612538861E+03  0.48093643689E+03  0.00000000000E+00 0.  1.
<scales pt_clust_3="128.81074" pt_clust_4="43.83085" pt_clust_5="43.83085" pt_clust_6="67.85625"></scales>
<clustering>
<clus scale="   43.831">  4  5 -1 -1</clus>
<clus scale="   67.856">  2  6  1 -1</clus>
<clus scale="  128.811">  2  3  1 -1</clus>
<clus scale="  136.182">  1  3  2 -1</clus>
</clustering>
</event>
<event>
 6    0  0.1361744E+002  0.1138837E+03  0.7546771E-02  0.1253542E+00
          2   -1    0    0  505    0 -0.00000000000E+00  0.00000000000E+00  0.27915586154E+03  0.27915586154E+03  0.00000000000E+00 0. -1.
         21   -1    0    0  504  502  0.00000000000E+00 -0.00000000000E+00 -0.16321566108E+03  0.16321566108E+03  0.00000000000E+00 0. -1.
         21    1    1    2  503  502  0.41205923417E+02  0.47022313992E+02  0.24939229704E+02  0.67312638605E+02  0.00000000000E+00 0.  1.
         21    1    1    2  504  501 -0.98207250605E+02 -0.77100617207E+02 -0.88082032263E+02  0.15279925933E+03  0.00000000000E+00 0. -1.
         21    1    1    2  505  503  0.31637123305E+02 -0.40721723018E+02  0.44610590147E+02  0.68185563354E+02  0.00000000000E+00 0. -1.
          2    1    1    2  501    0  0.25364203884E+02  0.70800026233E+02  0.13447241286E+03  0.15407406133E+03  0.00000000000E+00 0. -1.
<scales pt_clust_3="61.39973" pt_clust_4="113.88372" pt_clust_5="51.56710" pt_clust_6="14000.00000"></scales>
<clustering>
<clus scale="   51.567">  1  5  2 -1</clus>
<clus scale="   61.400">  1  3  2 -1</clus>
<clus scale="  113.884">  2  4  1 -1</clus>
<clus scale="  113.884">  2  3  1 -1</clus>
</clustering>
</event>
<event>
 6    0  0.1361744E+002  0.2181856E+03  0.7546771E-02  0.1135243E+00
         21   -1    0    0  503  502  0.00000000000E+00  0.00000000000E+00  0.61528913762E+03  0.61528913762E+03  0.00000000000E+00 0.  1.
          1   -1    0    0  502    0 -0.00000000000E+00 -0.00000000000E+00 -0.32503808907E+04  0.32503808907E+04  0.00000000000E+00 0. -1.
         21    1    1    2  503  504 -0.70572069402E+02  0.26872758389E+02  0.11070193046E+03  0.13400552052E+03  0.00000000000E+00 0.  1.
         21    1    1    2  504  505 -0.12677827667E+03  0.62035759148E+01  0.47909470742E+03  0.49562380337E+03  0.00000000000E+00 0.  1.
         21    1    1    2  505  501  0.11465110099E+03  0.12482192792E+02 -0.70393624993E+03  0.71332105259E+03  0.00000000000E+00 0. -1.
          1    1    1    2  501    0  0.82699245084E+02 -0.45558527095E+02 -0.25209521410E+04  0.25227196519E+04  0.00000000000E+00 0. -1.
<scales pt_clust_3="71.24526" pt_clust_4="71.24526" pt_clust_5="197.66930" pt_clust_6="94.41792"></scales>
<clustering>
<clus scale="   71.245">  3  4 -1 -1</clus>
<clus scale="   94.418">  2  6  1 -1</clus>
<clus scale="  197.669">  2  5  1 -1</clus>
<clus scale="  218.186">  1  3  2 -1</clus>
</clustering>
</event>
<event>
 6    0  0.1361744E+002  0.7564672E+02  0.7546771E-02  0.1341880E+00
          1   -1    0    0  504    0 -0.00000000000E+00  0.00000000000E+00  0.40328998215E+03  0.40328998215E+03  0.00000000000E+00 0. -1.
         21   -1    0    0  505  502  0.00000000000E+00 -0.00000000000E+00 -0.21692816346E+03  0.21692816346E+03  0.00000000000E+00 0. -1.
         21    1    1    2  503  502  0.16328275944E+02 -0.80034777938E+02 -0.10237062112E+03  0.13096534787E+03  0.00000000000E+00 0. -1.
         21    1    1    2  504  503 -0.49334737250E+02 -0.12173485391E+02  0.76193593123E+02  0.91583697671E+02  0.00000000000E+00 0. -1.
         21    1    1    2  505  501 -0.50933074170E+02  0.14105264991E+02 -0.72912371630E+02  0.90051932137E+02  0.00000000000E+00 0. -1.
          1    1    1    2  501    0  0.83939535476E+02  0.78102998338E+02  0.28545121832E+03  0.30761716793E+03  0.00000000000E+00 0. -1.
<scales pt_clust_3="75.64672" pt_clust_4="50.81447" pt_clust_5="54.04276" pt_clust_6="14000.00000"></scales>
<clustering>
<clus scale="   50.814">  1  4  2 -1</clus>
<clus scale="   54.043">  2  5  1 -1</clus>
<clus scale="   75.647">  2  3  1 -1</clus>
<clus scale="   54.043">  2  3  1 -1</clus>
</clustering>
</event>
<event>
 6    0  0.1361744E+002  0.1103867E+03  0.7546771E-02  0.1259855E+00
         21   -1    0    0  504  502  0.00000000000E+00  0.00000000000E+00  0.33550076163E+03  0.33550076163E+03  0.00000000000E+00 0. -1.
          2   -1    0    0  503    0 -0.00000000000E+00 -0.00000000000E+00 -0.14006250815E+04  0.14006250815E+04  0.00000000000E+00 0.  1.
         21    1    1    2  503  505  0.68569569264E+02  0.14993434616E+02 -0.30063378624E+03  0.30871874309E+03  0.00000000000E+00 0. -1.
         21    1    1    2  504  501  0.12419516656E+03  0.50742813711E+02  0.29234282485E+03  0.32165758157E+03  0.00000000000E+00 0. -1.
         21    1    1    2  505  502 -0.19356373300E+02 -0.25174655471E+02  0.22139417689E+01  0.31832907558E+02  0.00000000000E+00 0.  1.
          2    1    1    2  501    0 -0.17340836253E+03 -0.40561592856E+02 -0.10590473003E+04  0.10739166109E+04  0.00000000000E+00 0.  1.
<scales pt_clust_3="69.88187" pt_clust_4="110.38671" pt_clust_5="31.75583" pt_clust_6="14000.00000"></scales>
<clustering>
<clus scale="   31.756">  1  5  2 -1</clus>
<clus scale="   69.882">  2  3  1 -1</clus>
<clus scale="  110.387">  1  4  2 -1</clus>
<clus scale="   31.756">  1  3  2 -1</clus>
</clustering>
</event>
<event>
 6    0  0.1361744E+002  0.2163225E+03  0.7546771E-02  0.1136655E+00
         21   -1    0    0  505  502  0.00000000000E+00  0.00000000000E+00  0.52385356000E+03  0.52385356000E+03  0.00000000000E+00 0.  1.
          1   -1    0    0  504    0 -0.00000000000E+00 -0.00000000000E+00 -0.16752825163E+04  0.16752825163E+04  0.00000000000E+00 0.  1.
         21    1    1    2  503  501  0.12569291267E+03 -0.73198122886E+02  0.40906513642E+02  0.15109605007E+03  0.00000000000E+00 0. -1.
         21    1    1    2  504  502 -0.36866804637E+02  0.61860926568E+02 -0.51528761572E+03  0.52029536077E+03  0.00000000000E+00 0.  1.
         21    1    1    2  505  503  0.99193107956E+02  0.16620018989E+02  0.41122045439E+03  0.42334118605E+03  0.00000000000E+00 0.  1.
          1    1    1    2  501    0 -0.18801921599E+03 -0.52828226708E+01 -0.10882683087E+04  0.11044034795E+04  0.00000000000E+00 0.  1.
<scales pt_clust_3="216.32249" pt_clust_4="72.01344" pt_clust_5="100.43959" pt_clust_6="14000.00000"></scales>
<clustering>
<clus scale="   72.013">  2  4  1 -1</clus>
<clus scale="  100.440">  1  5  2 -1</clus>
<clus scale="  216.322">  1  3  2 -1</clus>
<clus scale="  100.440">  1  3  2 -1</clus>
</clustering>
</event>
<event>
 6    0  0.1361744E+002  0.4308278E+03  0.7546771E-02  0.1033599E+00
         21   -1    0    0  505  502  0.00000000000E+00  0.00000000000E+00  0.42164295657E+03  0.42164295657E+03  0.00000000000E+00 0.  1.
          2   -1    0    0  503    0 -0.00000000000E+00 -0.00000000000E+00 -0.10384577131E+04  0.10384577131E+04  0.00000000000E+00 0.  1.
         21    1    1    2  503  504 -0.30566132264E+03  0.84599714498E+02  0.42343543589E+02  0.31996707883E+03  0.00000000000E+00 0.  1.
         21    1    1    2  504  502 -0.10318367305E+03  0.71589406995E+02  0.15845762401E+03  0.20218984194E+03  0.00000000000E+00 0.  1.
         21    1    1    2  505  501  0.23803784419E+03 -0.15616223574E+03 -0.44854284048E+03  0.53126202470E+03  0.00000000000E+00 0.  1.
          2    1    1    2  501    0  0.17080715149E+03 -0.26885757595E-01 -0.36907308362E+03  0.40668172417E+03  0.00000000000E+00 0.  1.
<scales pt_clust_3="407.33177" pt_clust_4="125.58628" pt_clust_5="108.69936" pt_clust_6="108.69936"></scales>
<clustering>
<clus scale="  108.699">  5  6 -1 -1</clus>
<clus scale="  125.586">  1  4  2 -1</clus>
<clus scale="  407.332">  1  3  2 -1</clus>
<clus scale="  125.586">  1  3  2 -1</clus>
</clustering>
</event>
<event>
 6    0  0.1361744E+002  0.1320233E+03  0.7546771E-02  0.1224484E+00
          2   -1    0    0  505    0 -0.00000000000E+00  0.00000000000E+00  0.17800712067E+04  0.17800712067E+04  0.00000000000E+00 0. -1.
         21   -1    0    0  504  502  0.00000000000E+00 -0.00000000000E+00 -0.55324986900E+03  0.55324986900E+03  0.00000000000E+00 0. -1.
         21    1    1    2  503  501  0.23883627894E+02 -0.94852933919E+02 -0.38290254317E+03  0.39519851255E+03  0.00000000000E+00 0. -1.
         21    1    1    2  504  503 -0.38035639164E+02 -0.37820790172E+02 -0.15176156166E+03  0.16096177687E+03  0.00000000000E+00 0. -1.
         21    1    1    2  505  502 -0.23039835610E+02  0.57744886039E+02  0.13614203343E+03  0.14966615902E+03  0.00000000000E+00 0. -1.
          2    1    1    2  501    0  0.37191846879E+02  0.74928838053E+02  0.16253434091E+04  0.16274946273E+04  0.00000000000E+00 0. -1.
<scales pt_clust_3="14000.00000" pt_clust_4="53.63881" pt_clust_5="61.81896" pt_clust_6="132.02333"></scales>
<clustering>
<clus scale="   53.639">  2  4  1 -1</clus>
<clus scale="   61.819">  1  5  2 -1</clus>
<clus scale="  132.023">  1  6  2 -1</clus>
<clus scale="   53.639">  2  3  1 -1</clus>
</clustering>
</event>
<event>
 6    0  0.1361744E+002  0.9100521E+02  0.7546771E-02  0.1300436E+00
          1   -1    0    0  505    0 -0.00000000000E+00  0.00000000000E+00  0.18089012877E+04  0.18089012877E+04  0.00000000000E+00 0.  1.
         21   -1    0    0  504  502  0.00000000000E+00 -0.00000000000E+00 -0.20787391323E+03  0.20787391323E+03  0.00000000000E+00 0. -1.
         21    1    1    2  503  502 -0.96965588902E+01 -0.69405268499E+02 -0.17599471980E+03  0.18943404115E+03  0.00000000000E+00 0. -1.
         21    1    1    2  504  501 -0.42696471151E+02 -0.76305610063E+01  0.54752189477E+01  0.43717183493E+02  0.00000000000E+00 0. -1.
         21    1    1    2  505  503  0.87241745246E+02 -0.24527672861E+01  0.40370528653E+03  0.41303159268E+03  0.00000000000E+00 0.  1.
          1    1    1    2  501    0 -0.34848715204E+02  0.79488596791E+02  0.13678415888E+04  0.13705923836E+04  0.00000000000E+00 0.  1.
<scales pt_clust_3="91.00521" pt_clust_4="43.37297" pt_clust_5="86.22739" pt_clust_6="14000.00000"></scales>
<clustering>
<clus scale="   43.373">  2  4  1 -1</clus>
<clus scale="   86.227">  1  5  2 -1</clus>
<clus scale="   91.005">  2  3  1 -1</clus>
<clus scale="   43.373">  2  3  1 -1</clus>
</clustering>
</event>
<event>
 6    0  0.1361744E+002  0.1091173E+03  0.7546771E-02  0.1262213E+00
          2   -1    0    0  505    0 -0.00000000000E+00  0.00000000000E+00  0.48794394012E+03  0.48794394012E+03  0.00000000000E+00 0. -1.
         21   -1    0    0  503  502  0.00000000000E+00 -0.00000000000E+00 -0.38530495095E+03  0.38530495095E+03  0.00000000000E+00 0. -1.
         21    1    1    2  503  501  0.11119898797E+03  0.27768271974E+02 -0.29220733735E+02  0.11827993547E+03  0.00000000000E+00 0.  1.
         21    1    1    2  504  502 -0.86218512514E+02  0.83054522235E+02 -0.28372379919E+03  0.30794622873E+03  0.00000000000E+00 0. -1.
         21    1    1    2  505  504 -0.18443466071E+02 -0.31444411817E+02  0.16404280440E+02  0.39975153432E+02  0.00000000000E+00 0.  1.
          2    1    1    2  501    0 -0.65370093872E+01 -0.79378382393E+02  0.39917924165E+03  0.40704757345E+03  0.00000000000E+00 0. -1.
<scales pt_clust_3="14000.00000" pt_clust_4="109.11728" pt_clust_5="36.45425" pt_clust_6="109.33313"></scales>
<clustering>
<clus scale="   36.454">  1  5  2 -1</clus>
<clus scale="  109.333">  1  6  2 -1</clus>
<clus scale="  109.117">  2  4  1 -1</clus>
<clus scale="  109.117">  2  3  1 -1</clus>
</clustering>
</event>
<event>
 6    0  0.1361744E+002  0.2547013E+03  0.7546771E-02  0.1110369E+00
          2   -1    0    0  504    0 -0.00000000000E+00  0.00000000000E+00  0.14604362277E+04  0.14604362277E+04  0.00000000000E+00 0. -1.
         21   -1    0    0  503  502  0.00000000000E+00 -0.00000000000E+00 -0.89881593474E+02  0.89881593474E+02  0.00000000000E+00 0. -1.
         21    1    1    2  503  501  0.71897125152E+02 -0.44348997277E+02  0.29184966888E+03  0.30382932608E+03  0.00000000000E+00 0. -1.
         21    1    1    2  504  505 -0.10664367979E+03  0.18591730118E+03  0.10921482179E+03  0.24055351715E+03  0.00000000000E+00 0. -1.
         21    1    1    2  505  502 -0.36773083519E+02  0.48144968569E+01  0.19165645637E+02  0.41746389355E+02  0.00000000000E+00 0.  1.
          2    1    1    2  501    0  0.71519638158E+02 -0.14638280076E+03  0.95032449795E+03  0.96418858861E+03  0.00000000000E+00 0. -1.
<scales pt_clust_3="64.10588" pt_clust_4="251.41936" pt_clust_5="32.92436" pt_clust_6="64.10588"></scales>
<clustering>
<clus scale="   32.924">  4  5 -1 -1</clus>
<clus scale="   64.106">  3  6 -1 -1</clus>
<clus scale="  251.419">  2  4  1 -1</clus>
<clus scale="  251.419">  2  3  1 -1</clus>
</clustering>
</event>
<event>
 6    0  0.1361744E+002  0.1107771E+03  0.7546771E-02  0.1259138E+00
          2   -1    0    0  504    0 -0.00000000000E+00  0.00000000000E+00  0.37423652610E+04  0.37423652610E+04  0.00000000000E+00 0.  1.
         21   -1    0    0  505  502  0.00000000000E+00 -0.00000000000E+00 -0.79003013999E+02  0.79003013999E+02  0.00000000000E+00 0.  1.
         21    1    1    2  503  501 -0.65750581306E+02 -0.25919809357E+02  0.23527204102E+03  0.24565811353E+03  0.00000000000E+00 0. -1.
         21    1    1    2  504  502  0.30527963546E+02  0.10686295134E+02 -0.53695531621E+02  0.62684635901E+02  0.00000000000E+00 0.  1.
         21    1    1    2  505  503 -0.70329970815E+02 -0.39514333399E+02  0.97041158249E+02  0.12619300192E+03  0.00000000000E+00 0.  1.
          2    1    1    2  501    0  0.10555258858E+03  0.54747847621E+02  0.33847445793E+04  0.33868325236E+04  0.00000000000E+00 0.  1.
<scales pt_clust_3="14000.00000" pt_clust_4="32.34430" pt_clust_5="58.49855" pt_clust_6="110.77710"></scales>
<clustering>
<clus scale="   32.344">  2  4  1 -1</clus>
<clus scale="   58.499">  2  5  1 -1</clus>
<clus scale="  110.777">  1  6  2 -1</clus>
<clus scale="   32.344">  2  3  1 -1</clus>
</clustering>
</event>
<event>
 6    0  0.1361744E+002  0.2092071E+03  0.7546771E-02  0.1142195E+00
         21   -1    0    0  505  502  0.00000000000E+00  0.00000000000E+00  0.13684443812E+03  0.13684443812E+03  0.00000000000E+00 0.  1.
          1   -1    0    0  504    0 -0.00000000000E+00 -0.00000000000E+00 -0.97508429557E+03  0.97508429557E+03  0.00000000000E+00 0.  1.
         21    1    1    2  503  502  0.12129596746E+03  0.45611194571E+00 -0.13592578557E+03  0.18217776742E+03  0.00000000000E+00 0.  1.
         21    1    1    2  504  503 -0.58124082165E+02  0.17971288280E+02 -0.70782477367E+02  0.93335605383E+02  0.00000000000E+00 0.  1.
         21    1    1    2  505  501 -0.57542637080E+02  0.20073122433E+03 -0.49696584665E+02  0.21464838698E+03  0.00000000000E+00 0.  1.
          1    1    1    2  501    0 -0.56292482134E+01 -0.21915862456E+03 -0.58183500985E+03  0.62176697391E+03  0.00000000000E+00 0.  1.
<scales pt_clust_3="111.00406" pt_clust_4="60.83894" pt_clust_5="209.20709" pt_clust_6="14000.00000"></scales>
<clustering>
<clus scale="   60.839">  2  4  1 -1</clus>
<clus scale="  111.004">  2  3  1 -1</clus>
<clus scale="  209.207">  1  5  2 -1</clus>
<clus scale="  209.207">  1  3  2 -1</clus>
</clustering>
</event>
<event>
 6    0  0.1361744E+002  0.9081007E+02  0.7546771E-02  0.1300902E+00
         -1   -1    0    0    0  501 -0.00000000000E+00  0.00000000000E+00  0.22369395341E+04  0.22369395341E+04  0.00000000000E+00 0. -1.
         21   -1    0    0  505  502  0.00000000000E+00 -0.00000000000E+00 -0.80712804248E+02  0.80712804248E+02  0.00000000000E+00 0. -1.
         21    1    1    2  503  504 -0.40423714887E+02 -0.44278851051E+01 -0.29511367225E+01  0.40772442897E+02  0.00000000000E+00 0. -1.
         21    1    1    2  504  502 -0.18923425067E+02  0.30087905358E+02 -0.48018590060E+02  0.59742472802E+02  0.00000000000E+00 0. -1.
         21    1    1    2  505  501  0.16820709467E+00 -0.98764968273E+02  0.69052843354E+03  0.69755577897E+03  0.00000000000E+00 0.  1.
         -1    1    1    2    0  503  0.59178932860E+02  0.73104948020E+02  0.15166680231E+04  0.15195816437E+04  0.00000000000E+00 0. -1.
<scales pt_clust_3="59.34444" pt_clust_4="35.54403" pt_clust_5="14000.00000" pt_clust_6="90.81007"></scales>
<clustering>
<clus scale="   35.544">  2  4  1 -1</clus>
<clus scale="   59.344">  2  3  1 -1</clus>
<clus scale="   90.810">  1  6  2 -1</clus>
<clus scale="   35.544">  2  3  1 -1</clus>
</clustering>
</event>
<event>
 6    0  0.1361744E+002  0.2336785E+03  0.7546771E-02  0.1124077E+00
          2   -1    0    0  504    0 -0.00000000000E+00  0.00000000000E+00  0.10053782244E+04  0.10053782244E+04  0.00000000000E+00 0.  1.
         21   -1    0    0  503  502  0.00000000000E+00 -0.00000000000E+00 -0.96892589539E+02  0.96892589539E+02  0.00000000000E+00 0. -1.
         21    1    1    2  503  505  0.25379270188E+02  0.14409546254E+03  0.77173369889E+02  0.16541867700E+03  0.00000000000E+00 0. -1.
         21    1    1    2  504  502  0.11335780701E+03 -0.34272077158E+01  0.10472537527E+03  0.15436690833E+03  0.00000000000E+00 0. -1.
         21    1    1    2  505  501 -0.17086414074E+00  0.51367091518E+02  0.95627442779E+02  0.10855051864E+03  0.00000000000E+00 0.  1.
          2    1    1    2  501    0 -0.13856621305E+03 -0.19203534634E+03  0.63095944697E+03  0.67393471001E+03  0.00000000000E+00 0.  1.
<scales pt_clust_3="47.24538" pt_clust_4="113.40960" pt_clust_5="47.24538" pt_clust_6="219.65361"></scales>
<clustering>
<clus scale="   47.245">  3  5 -1 -1</clus>
<clus scale="  113.410">  2  4  1 -1</clus>
<clus scale="  219.654">  1  6  2 -1</clus>
<clus scale="  113.410">  2  3  1 -1</clus>
</clustering>
</event>
<event>
 6    0  0.1361744E+002  0.1689848E+03  0.7546771E-02  0.1178911E+00
         -1   -1    0    0    0  501 -0.00000000000E+00  0.00000000000E+00  0.13451200740E+04  0.13451200740E+04  0.00000000000E+00 0.  1.
         21   -1    0    0  505  502  0.00000000000E+00 -0.00000000000E+00 -0.54588567973E+02  0.54588567973E+02  0.00000000000E+00 0. -1.
         21    1    1    2  503  502  0.66907173890E+02 -0.39257146648E+02  0.49983255218E+02  0.92282280439E+02  0.00000000000E+00 0. -1.
         21    1    1    2  504  503  0.96856671187E+02 -0.50495374305E+02  0.13422591308E+03  0.17305372958E+03  0.00000000000E+00 0. -1.
         21    1    1    2  505  501 -0.65070405856E+01  0.52691729338E+02  0.84066183116E+02  0.99427778118E+02  0.00000000000E+00 0.  1.
         -1    1    1    2    0  504 -0.15725680449E+03  0.37060791615E+02  0.10222561546E+04  0.10349448538E+04  0.00000000000E+00 0.  1.
<scales pt_clust_3="33.66775" pt_clust_4="33.66775" pt_clust_5="53.09199" pt_clust_6="164.19441"></scales>
<clustering>
<clus scale="   33.668">  3  4 -1 -1</clus>
<clus scale="   53.092">  2  5  1 -1</clus>
<clus scale="  164.194">  1  6  2 -1</clus>
<clus scale="   53.092">  2  3  1 -1</clus>
</clustering>
</event>
<event>
 6    0  0.1361744E+002  0.7317267E+02  0.7546771E-02  0.1349625E+00
         21   -1    0    0  505  502  0.00000000000E+00  0.00000000000E+00  0.52005862514E+02  0.52005862514E+02  0.00000000000E+00 0. -1.
          2   -1    0    0  504    0 -0.00000000000E+00 -0.00000000000E+00 -0.14206357101E+04  0.14206357101E+04  0.00000000000E+00 0. -1.
         21    1    1    2  503  502 -0.62870446949E+02 -0.63110750031E+01 -0.51149570803E+02  0.81294534630E+02  0.00000000000E+00 0. -1.
         21    1    1    2  504  503  0.56548780918E+02 -0.51749313522E+02 -0.40013930010E+03  0.40741528636E+03  0.00000000000E+00 0.  1.
         21    1    1    2  505  501  0.83284584273E+02  0.53276989426E+02 -0.45755575678E+02  0.10894187572E+03  0.00000000000E+00 0. -1.
          2    1    1    2  501    0 -0.76962918242E+02  0.47833990991E+01 -0.87158540096E+03  0.87498987586E+03  0.00000000000E+00 0. -1.
<scales pt_clust_3="63.18641" pt_clust_4="14000.00000" pt_clust_5="56.23938" pt_clust_6="73.17267"></scales>
<clustering>
<clus scale="   63.186">  1  3  2 -1</clus>
<clus scale="   56.239">  1  5  2 -1</clus>
<clus scale="   73.173">  2  6  1 -1</clus>
<clus scale="   63.186">  1  3  2 -1</clus>
</clustering>
</event>
<event>
 6    0  0.1361744E+002  0.1814431E+03  0.7546771E-02  0.1166414E+00
         21   -1    0    0  504  502  0.00000000000E+00  0.00000000000E+00  0.25286929674E+03  0.25286929674E+03  0.00000000000E+00 0.  1.
          2   -1    0    0  503    0 -0.00000000000E+00 -0.00000000000E+00 -0.16653357085E+04  0.16653357085E+04  0.00000000000E+00 0. -1.
         21    1    1    2  503  505  0.96058888732E+02 -0.63205739409E+02 -0.40689237966E+03  0.42282819706E+03  0.00000000000E+00 0. -1.
         21    1    1    2  504  501  0.60294890042E+02 -0.14710929593E+03  0.17327253806E+03  0.23515950153E+03  0.00000000000E+00 0.  1.
         21    1    1    2  505  502  0.63348229504E+02  0.20768048253E+02 -0.26234550661E+02  0.71641898759E+02  0.00000000000E+00 0. -1.
          2    1    1    2  501    0 -0.21970200828E+03  0.18954698709E+03 -0.11526120195E+04  0.11885754079E+04  0.00000000000E+00 0. -1.
<scales pt_clust_3="116.43896" pt_clust_4="14000.00000" pt_clust_5="66.66566" pt_clust_6="181.44307"></scales>
<clustering>
<clus scale="   66.666">  1  5  2 -1</clus>
<clus scale="  116.439">  2  3  1 -1</clus>
<clus scale="  181.443">  2  6  1 -1</clus>
<clus scale="   66.666">  1  3  2 -1</clus>
</clustering>
</event>
<event>
 6    0  0.1361744E+002  0.9974076E+02  0.7546771E-02  0.1280842E+00
         21   -1    0    0  503  502  0.00000000000E+00  0.00000000000E+00  0.63130776268E+03  0.63130776268E+03  0.00000000000E+00 0. -1.
         -3   -1    0    0    0  501 -0.00000000000E+00 -0.00000000000E+00 -0.16915567696E+03  0.16915567696E+03  0.00000000000E+00 0. -1.
         21    1    1    2  503  505  0.84063340976E+02 -0.52628726114E+02  0.30512546275E+03  0.32083948655E+03  0.00000000000E+00 0. -1.
         21    1    1    2  504  502 -0.30870128970E+02 -0.22444762780E+02 -0.23101154241E+02  0.44613849488E+02  0.00000000000E+00 0. -1.
         21    1    1    2  505  501 -0.57406923289E+01  0.10128874076E+03  0.29285218710E+03  0.30992703664E+03  0.00000000000E+00 0. -1.
         -3    1    1    2    0  504 -0.47452519677E+02 -0.26215251863E+02 -0.11272440989E+03  0.12508306696E+03  0.00000000000E+00 0. -1.
<scales pt_clust_3="99.17877" pt_clust_4="36.05272" pt_clust_5="90.01108" pt_clust_6="36.05272"></scales>
<clustering>
<clus scale="   36.053">  4  6 -1 -1</clus>
<clus scale="   99.179">  1  3  2 -1</clus>
<clus scale="   90.011">  1  5  2 -1</clus>
<clus scale="   99.179">  1  3  2 -1</clus>
</clustering>
</event>
<event>
 6    0  0.1361744E+002  0.1349809E+03  0.7546771E-02  0.1220247E+00
          2   -1    0    0  505    0 -0.00000000000E+00  0.00000000000E+00  0.23886501077E+04  0.23886501077E+04  0.00000000000E+00 0.  1.
         21   -1    0    0  504  502  0.00000000000E+00 -0.00000000000E+00 -0.24588938939E+02  0.24588938939E+02  0.00000000000E+00 0.  1.
         21    1    1    2  503  501  0.24653972637E+02 -0.83694691268E+02  0.17474937314E+03  0.19532015546E+03  0.00000000000E+00 0.  1.
         21    1    1    2  504  503  0.17286535364E+02 -0.39240390449E+02  0.31229186171E+02  0.53046155529E+02  0.00000000000E+00 0.  1.
         21    1    1    2  505  502 -0.58483679029E+02  0.14471722374E+02  0.63948797321E+03  0.64231973295E+03  0.00000000000E+00 0.  1.
          2    1    1    2  501    0  0.16543171028E+02  0.10846335934E+03  0.15185946362E+04  0.15225530027E+04  0.00000000000E+00 0.  1.
<scales pt_clust_3="34.24771" pt_clust_4="34.24771" pt_clust_5="60.24758" pt_clust_6="125.83018"></scales>
<clustering>
<clus scale="   34.248">  3  4 -1 -1</clus>
<clus scale="   60.248">  1  5  2 -1</clus>
<clus scale="  125.830">  1  6  2 -1</clus>
<clus scale="  134.981">  2  3  1 -1</clus>
</clustering>
</event>
<event>
 6    0  0.1361744E+002  0.1301665E+03  0.7546771E-02  0.1227209E+00
         21   -1    0    0  503  502  0.00000000000E+00  0.00000000000E+00  0.90720262272E+02  0.90720262272E+02  0.00000000000E+00 0.  1.
          1   -1    0    0  505    0 -0.00000000000E+00 -0.00000000000E+00 -0.12750303754E+04  0.12750303754E+04  0.00000000000E+00 0. -1.
         21    1    1    2  503  501  0.13443282123E+02  0.14399979379E+03 -0.18164900442E+02  0.14576222437E+03  0.00000000000E+00 0.  1.
         21    1    1    2  504  502  0.93589010774E+01 -0.10924079594E+03 -0.98475987554E+02  0.14737252340E+03  0.00000000000E+00 0.  1.
         21    1    1    2  505  504  0.33117112257E+02  0.60493189946E+01 -0.34546263670E+03  0.34709907914E+03  0.00000000000E+00 0. -1.
          1    1    1    2  501    0 -0.55919295458E+02 -0.40808316843E+02 -0.72220658839E+03  0.72551681072E+03  0.00000000000E+00 0. -1.
<scales pt_clust_3="130.16652" pt_clust_4="14000.00000" pt_clust_5="33.66508" pt_clust_6="47.00250"></scales>
<clustering>
<clus scale="   33.665">  2  5  1 -1</clus>
<clus scale="   47.002">  2  6  1 -1</clus>
<clus scale="  130.167">  1  3  2 -1</clus>
<clus scale="  130.167">  1  3  2 -1</clus>
</clustering>
</event>
<event>
 6    0  0.1361744E+002  0.1720323E+03  0.7546771E-02  0.1175745E+00
         -1   -1    0    0    0  501 -0.00000000000E+00  0.00000000000E+00  0.65951348766E+02  0.65951348766E+02  0.00000000000E+00 0.  1.
         21   -1    0    0  503  502  0.00000000000E+00 -0.00000000000E+00 -0.14856021263E+04  0.14856021263E+04  0.00000000000E+00 0.  1.
         21    1    1    2  503  505 -0.48396707698E+02 -0.54638928356E+02 -0.65930824975E+03  0.66333628124E+03  0.00000000000E+00 0.  1.
         21    1    1    2  504  501  0.14548643072E+03  0.10295485984E+03 -0.27780751825E+03  0.33006517823E+03  0.00000000000E+00 0.  1.
         21    1    1    2  505  504 -0.65635797246E+02 -0.64678791323E+02 -0.50685095418E+03  0.51515948374E+03  0.00000000000E+00 0.  1.
         -1    1    1    2    0  502 -0.31453925774E+02  0.16362859840E+02  0.24315944673E+02  0.42992531841E+02  0.00000000000E+00 0.  1.
<scales pt_clust_3="36.37767" pt_clust_4="167.06368" pt_clust_5="36.37767" pt_clust_6="35.45550"></scales>
<clustering>
<clus scale="   35.456">  1  6  2 -1</clus>
<clus scale="   36.378">  3  5 -1 -1</clus>
<clus scale="  167.064">  1  4  2 -1</clus>
<clus scale="  172.032">  2  3  1 -1</clus>
</clustering>
</event>
<event>
 6    0  0.1361744E+002  0.1879203E+03  0.7546771E-02  0.1160351E+00
         21   -1    0    0  505  502  0.00000000000E+00  0.00000000000E+00  0.85398014585E+02  0.85398014585E+02  0.00000000000E+00 0.  1.
          2   -1    0    0  504    0 -0.00000000000E+00 -0.00000000000E+00 -0.50614105807E+04  0.50614105807E+04  0.00000000000E+00 0.  1.
         21    1    1    2  503  501  0.48330767397E+02 -0.22050773481E+02 -0.11785922201E+04  0.11797888459E+04  0.00000000000E+00 0. -1.
         21    1    1    2  504  502 -0.27401686119E+02 -0.27428648651E+02 -0.33751974965E+02  0.51404075549E+02  0.00000000000E+00 0.  1.
         21    1    1    2  505  503 -0.14246638352E+03 -0.80158675266E+01  0.67018094073E+01  0.14284900705E+03  0.00000000000E+00 0.  1.
          2    1    1    2  501    0  0.12153730224E+03  0.57495289659E+02 -0.37703701805E+04  0.37727666668E+04  0.00000000000E+00 0.  1.
<scales pt_clust_3="46.52454" pt_clust_4="38.77091" pt_clust_5="172.76650" pt_clust_6="46.52454"></scales>
<clustering>
<clus scale="   38.771">  1  4  2 -1</clus>
<clus scale="   46.525">  3  6 -1 -1</clus>
<clus scale="  172.767">  1  5  2 -1</clus>
<clus scale="   38.771">  1  3  2 -1</clus>
</clustering>
</event>
<event>
 6    0  0.1361744E+002  0.1709324E+03  0.7546771E-02  0.1176879E+00
         21   -1    0    0  504  502  0.00000000000E+00  0.00000000000E+00  0.10829821466E+04  0.10829821466E+04  0.00000000000E+00 0. -1.
          4   -1    0    0  502    0 -0.00000000000E+00 -0.00000000000E+00 -0.21680563304E+03  0.21680563304E+03  0.00000000000E+00 0. -1.
         21    1    1    2  503  505 -0.12605072352E+03  0.25272674757E+00  0.47216584973E+03  0.48870178885E+03  0.00000000000E+00 0. -1.
         21    1    1    2  504  503 -0.36447711994E+02 -0.12888997311E+02  0.56573478654E+03  0.56705415144E+03  0.00000000000E+00 0. -1.
         21    1    1    2  505  501  0.50228271410E+02  0.30290479553E+02 -0.45899757694E+02  0.74479394176E+02  0.00000000000E+00 0. -1.
          4    1    1    2  501    0  0.11227016410E+03 -0.17654208990E+02 -0.12582436500E+03  0.16955244519E+03  0.00000000000E+00 0. -1.
<scales pt_clust_3="160.37746" pt_clust_4="38.65956" pt_clust_5="42.37044" pt_clust_6="42.37044"></scales>
<clustering>
<clus scale="   38.660">  1  4  2 -1</clus>
<clus scale="   42.370">  5  6 -1 -1</clus>
<clus scale="  160.377">  1  3  2 -1</clus>
<clus scale="   38.660">  1  3  2 -1</clus>
</clustering>
</event>
<event>
 6    0  0.1361744E+002  0.9263888E+02  0.7546771E-02  0.1296584E+00
          3   -1    0    0  504    0 -0.00000000000E+00  0.00000000000E+00  0.12551027096E+04  0.12551027096E+04  0.00000000000E+00 0.  1.
         21   -1    0    0  501  502  0.00000000000E+00 -0.00000000000E+00 -0.33195126273E+02  0.33195126273E+02  0.00000000000E+00 0.  1.
         21    1    1    2  503  505  0.32252401617E+02  0.22129222498E+02  0.30406583485E+02  0.49542711045E+02  0.00000000000E+00 0.  1.
         21    1    1    2  504  503  0.50466597686E+02 -0.85821626523E+02  0.91852217096E+03  0.92390216343E+03  0.00000000000E+00 0.  1.
         21    1    1    2  505  502  0.83388669388E+01  0.42125350387E+02  0.24733944273E+02  0.49556531823E+02  0.00000000000E+00 0.  1.
          3    1    1    2  501    0 -0.91057866242E+02  0.21567053638E+02  0.24824488465E+03  0.26529642961E+03  0.00000000000E+00 0.  1.
<scales pt_clust_3="30.23871" pt_clust_4="92.63888" pt_clust_5="82.34186" pt_clust_6="14000.00000"></scales>
<clustering>
<clus scale="   30.239">  3  5 -1 -1</clus>
<clus scale="   82.342">  2  3  1 -1</clus>
<clus scale="   92.639">  1  4  2 -1</clus>
<clus scale="   82.342">  2  3  1 -1</clus>
</clustering>
</event>
<event>
 6    0  0.1361744E+002  0.1063583E+03  0.7546771E-02  0.1267466E+00
         -2   -1    0    0    0  501 -0.00000000000E+00  0.00000000000E+00  0.42074680992E+02  0.42074680992E+02  0.00000000000E+00 0.  1.
         21   -1    0    0  503  502  0.00000000000E+00 -0.00000000000E+00 -0.10285320444E+04  0.10285320444E+04  0.00000000000E+00 0. -1.
         21    1    1    2  503  504 -0.60478887511E+02  0.58224297812E+02 -0.59506045879E+03  0.60095317148E+03  0.00000000000E+00 0. -1.
         21    1    1    2  504  501  0.35832871221E+02 -0.46832603365E+02 -0.91635868544E+02  0.10896981142E+03  0.00000000000E+00 0.  1.
         21    1    1    2  505  502  0.76664835767E+01  0.61260061444E+02 -0.27534371527E+03  0.28218031759E+03  0.00000000000E+00 0.  1.
         -2    1    1    2    0  505  0.16979532714E+02 -0.72651755891E+02 -0.24417320799E+02  0.78503424895E+02  0.00000000000E+00 0.  1.
<scales pt_clust_3="106.35827" pt_clust_4="58.96853" pt_clust_5="57.59413" pt_clust_6="14000.00000"></scales>
<clustering>
<clus scale="   58.969">  1  4  2 -1</clus>
<clus scale="   57.594">  2  5  1 -1</clus>
<clus scale="  106.358">  2  3  1 -1</clus>
<clus scale="   57.594">  2  3  1 -1</clus>
</clustering>
</event>
<event>
 6    0  0.1361744E+002  0.1881834E+03  0.7546771E-02  0.1160110E+00
         21   -1    0    0  504  502  0.00000000000E+00  0.00000000000E+00  0.54355246553E+03  0.54355246553E+03  0.00000000000E+00 0.  1.
          2   -1    0    0  503    0 -0.00000000000E+00 -0.00000000000E+00 -0.91876599031E+03  0.91876599031E+03  0.00000000000E+00 0.  1.
         21    1    1    2  503  505  0.29652512010E+02 -0.11850186185E+02 -0.57198019535E+02  0.65508104993E+02  0.00000000000E+00 0. -1.
         21    1    1    2  504  501 -0.15930880088E+03 -0.13646462698E+02  0.48447005275E+03  0.51017325684E+03  0.00000000000E+00 0.  1.
         21    1    1    2  505  502 -0.30096712053E+02  0.28445122921E+01  0.27648580863E+02  0.40967637842E+02  0.00000000000E+00 0.  1.
          2    1    1    2  501    0  0.15975300093E+03  0.22652136591E+02 -0.83013413885E+03  0.84566945616E+03  0.00000000000E+00 0.  1.
<scales pt_clust_3="31.69615" pt_clust_4="14000.00000" pt_clust_5="30.23083" pt_clust_6="188.18343"></scales>
<clustering>
<clus scale="   30.231">  1  5  2 -1</clus>
<clus scale="   31.696">  2  3  1 -1</clus>
<clus scale="  188.183">  2  6  1 -1</clus>
<clus scale="   30.231">  1  3  2 -1</clus>
</clustering>
</event>
<event>
 6    0  0.1361744E+002  0.1756153E+03  0.7546771E-02  0.1172115E+00
         21   -1    0    0  504  502  0.00000000000E+00  0.00000000000E+00  0.28820983500E+03  0.28820983500E+03  0.00000000000E+00 0. -1.
         -3   -1    0    0    0  501 -0.00000000000E+00 -0.00000000000E+00 -0.18531289159E+03  0.18531289159E+03  0.00000000000E+00 0. -1.
         21    1    1    2  503  502 -0.38704113498E+02 -0.26151677417E+02  0.10910245707E+03  0.11868135815E+03  0.00000000000E+00 0. -1.
         21    1    1    2  504  501  0.95886084352E+01  0.35938763644E+02 -0.60198769742E+01  0.37679902637E+02  0.00000000000E+00 0. -1.
         21    1    1    2  505  503 -0.10918922218E+03 -0.48884085101E+02  0.88023972158E+02  0.14852662957E+03  0.00000000000E+00 0. -1.
         -3    1    1    2    0  505  0.13830472725E+03  0.39096998875E+02 -0.88209608841E+02  0.16863483623E+03  0.00000000000E+00 0. -1.
<scales pt_clust_3="44.76000" pt_clust_4="37.19592" pt_clust_5="44.76000" pt_clust_6="160.63078"></scales>
<clustering>
<clus scale="   37.196">  2  4  1 -1</clus>
<clus scale="   44.760">  3  5 -1 -1</clus>
<clus scale="  160.631">  2  6  1 -1</clus>
<clus scale="  175.615">  1  3  2 -1</clus>
</clustering>
</event>
<event>
 6    0  0.1361744E+002  0.1258507E+03  0.7546771E-02  0.1233746E+00
         21   -1    0    0  505  502  0.00000000000E+00  0.00000000000E+00  0.24514897516E+04  0.24514897516E+04  0.00000000000E+00 0. -1.
         -1   -1    0    0    0  501 -0.00000000000E+00 -0.00000000000E+00 -0.30341306394E+04  0.30341306394E+04  0.00000000000E+00 0. -1.
         21    1    1    2  503  502  0.59805494224E+02 -0.20518503042E+02  0.34661783042E+03  0.35233737593E+03  0.00000000000E+00 0. -1.
         21    1    1    2  504  501  0.30030158372E+02 -0.94118736943E+02 -0.45035194377E+03  0.46106075555E+03  0.00000000000E+00 0.  1.
         21    1    1    2  505  504 -0.14590253604E+03  0.11267379635E+03  0.20922991321E+04  0.21004043879E+04  0.00000000000E+00 0. -1.
         -1    1    1    2    0  503  0.56066883448E+02  0.19634436335E+01 -0.25712059066E+04  0.25718178716E+04  0.00000000000E+00 0. -1.
<scales pt_clust_3="63.55143" pt_clust_4="14000.00000" pt_clust_5="125.85069" pt_clust_6="56.10125"></scales>
<clustering>
<clus scale="   56.101">  2  6  1 -1</clus>
<clus scale="   63.551">  1  3  2 -1</clus>
<clus scale="  125.851">  1  5  2 -1</clus>
<clus scale="   63.551">  1  3  2 -1</clus>
</clustering>
</event>
<event>
 6    0  0.1361744E+002  0.2275086E+03  0.7546771E-02  0.1128406E+00
         -4   -1    0    0    0  501 -0.00000000000E+00  0.00000000000E+00  0.12007959055E+04  0.12007959055E+04  0.00000000000E+00 0. -1.
         21   -1    0    0  503  502  0.00000000000E+00 -0.00000000000E+00 -0.16829673088E+03  0.16829673088E+03  0.00000000000E+00 0. -1.
         21    1    1    2  503  501  0.42799702141E+02 -0.64774807423E+00  0.48923341909E+02  0.65005595639E+02  0.00000000000E+00 0.  1.
         21    1    1    2  504  502 -0.70958023883E+02 -0.42622945076E+02 -0.69824163669E+01  0.83069312858E+02  0.00000000000E+00 0. -1.
         21    1    1    2  505  504 -0.61592308179E+02 -0.15032774749E+03 -0.41056624572E+02  0.16756398931E+03  0.00000000000E+00 0. -1.
         -4    1    1    2    0  505  0.89750629921E+02  0.19359844064E+03  0.10316148736E+04  0.10534537386E+04  0.00000000000E+00 0. -1.
<scales pt_clust_3="42.80460" pt_clust_4="51.88644" pt_clust_5="51.88644" pt_clust_6="214.59362"></scales>
<clustering>
<clus scale="   42.805">  2  3  1 -1</clus>
<clus scale="   51.886">  4  5 -1 -1</clus>
<clus scale="  214.594">  1  6  2 -1</clus>
<clus scale="   42.805">  2  3  1 -1</clus>
</clustering>
</event>
<event>
 6    0  0.1361744E+002  0.7787737E+02  0.7546771E-02  0.1335185E+00
          2   -1    0    0  505    0 -0.00000000000E+00  0.00000000000E+00  0.21866094927E+04  0.21866094927E+04  0.00000000000E+00 0.  1.
         21   -1    0    0  504  502  0.00000000000E+00 -0.00000000000E+00 -0.72758237795E+02  0.72758237795E+02  0.00000000000E+00 0. -1.
         21    1    1    2  503  502 -0.28354958069E+02 -0.59626863089E+02  0.21001900833E+03  0.22015301568E+03  0.00000000000E+00 0. -1.
         21    1    1    2  504  501  0.68204730881E+02 -0.36985049648E+02 -0.41661054998E+02  0.88064877878E+02  0.00000000000E+00 0. -1.
         21    1    1    2  505  503  0.29607046421E+02  0.16879191681E+02  0.24331302339E+03  0.24568824078E+03  0.00000000000E+00 0. -1.
          2    1    1    2  501    0 -0.69456819233E+02  0.79732721056E+02  0.17021802782E+04  0.17054615962E+04  0.00000000000E+00 0.  1.
<scales pt_clust_3="62.96616" pt_clust_4="77.87737" pt_clust_5="34.08056" pt_clust_6="14000.00000"></scales>
<clustering>
<clus scale="   34.081">  1  5  2 -1</clus>
<clus scale="   62.966">  1  3  2 -1</clus>
<clus scale="   77.877">  2  4  1 -1</clus>
<clus scale="   77.877">  2  3  1 -1</clus>
</clustering>
</event>
<event>
 6    0  0.1361744E+002  0.1348175E+03  0.7546771E-02  0.1220478E+00
         21   -1    0    0  503  502  0.00000000000E+00  0.00000000000E+00  0.67535166900E+03  0.67535166900E+03  0.00000000000E+00 0. -1.
          2   -1    0    0  505    0 -0.00000000000E+00 -0.00000000000E+00 -0.29935008965E+03  0.29935008965E+03  0.00000000000E+00 0. -1.
         21    1    1    2  503  504 -0.33166111271E+02  0.53426174774E+01  0.18728511160E+03  0.19027413783E+03  0.00000000000E+00 0. -1.
         21    1    1    2  504  501  0.30055044630E+02 -0.13705261016E+03  0.41747727644E+03  0.44042479495E+03  0.00000000000E+00 0. -1.
         21    1    1    2  505  502  0.27110134029E+02 -0.53227558268E+02 -0.17580585208E+02  0.62267241006E+02  0.00000000000E+00 0.  1.
          2    1    1    2  501    0 -0.23999067388E+02  0.18493755095E+03 -0.21118022349E+03  0.28173558486E+03  0.00000000000E+00 0. -1.
<scales pt_clust_3="33.59367" pt_clust_4="134.81750" pt_clust_5="58.83722" pt_clust_6="14000.00000"></scales>
<clustering>
<clus scale="   33.594">  1  3  2 -1</clus>
<clus scale="   58.837">  2  5  1 -1</clus>
<clus scale="  134.818">  1  4  2 -1</clus>
<clus scale="   33.594">  1  3  2 -1</clus>
</clustering>
</event>
<event>
 6    0  0.1361744E+002  0.1455434E+03  0.7546771E-02  0.1206059E+00
          2   -1    0    0  504    0 -0.00000000000E+00  0.00000000000E+00  0.36425971926E+03  0.36425971926E+03  0.00000000000E+00 0.  1.
         21   -1    0    0  505  502  0.00000000000E+00 -0.00000000000E+00 -0.58173890537E+03  0.58173890537E+03  0.00000000000E+00 0.  1.
         21    1    1    2  503  501 -0.38143484108E+02 -0.34469899506E+02  0.11541964664E+03  0.12635186656E+03  0.00000000000E+00 0.  1.
         21    1    1    2  504  502  0.31916234372E+02 -0.21800115152E+02 -0.92864822706E+02  0.10058710819E+03  0.00000000000E+00 0. -1.
         21    1    1    2  505  503  0.98887277728E+02  0.35686169490E+02 -0.46402608453E+03  0.47578609008E+03  0.00000000000E+00 0.  1.
          2    1    1    2  501    0 -0.92660027991E+02  0.20583845168E+02  0.22399207449E+03  0.24327355981E+03  0.00000000000E+00 0.  1.
<scales pt_clust_3="47.37258" pt_clust_4="38.65089" pt_clust_5="130.62398" pt_clust_6="47.37258"></scales>
<clustering>
<clus scale="   38.651">  2  4  1 -1</clus>
<clus scale="   47.373">  3  6 -1 -1</clus>
<clus scale="  130.624">  2  5  1 -1</clus>
<clus scale="   38.651">  2  3  1 -1</clus>
</clustering>
</event>
<event>
 6    0  0.1361744E+002  0.2131022E+03  0.7546771E-02  0.1139133E+00
         21   -1    0    0  503  502  0.00000000000E+00  0.00000000000E+00  0.66299346853E+02  0.66299346853E+02  0.00000000000E+00 0.  1.
          2   -1    0    0  505    0 -0.00000000000E+00 -0.00000000000E+00 -0.23644376121E+04  0.23644376121E+04  0.00000000000E+00 0. -1.
         21    1    1    2  503  501 -0.44779585766E+02  0.61742522261E+02 -0.20090443277E+03  0.21489518715E+03  0.00000000000E+00 0. -1.
         21    1    1    2  504  502 -0.12045591074E+03  0.98663113840E+02 -0.69091909770E+02  0.17034590826E+03  0.00000000000E+00 0.  1.
         21    1    1    2  505  504  0.97087267526E+01 -0.43788300828E+02 -0.13192482604E+03  0.13934071332E+03  0.00000000000E+00 0. -1.
          2    1    1    2  501    0  0.15552676975E+03 -0.11661733527E+03 -0.18962170967E+04  0.19061551502E+04  0.00000000000E+00 0. -1.
<scales pt_clust_3="72.45255" pt_clust_4="213.10222" pt_clust_5="44.85170" pt_clust_6="14000.00000"></scales>
<clustering>
<clus scale="   44.852">  2  5  1 -1</clus>
<clus scale="   72.453">  1  3  2 -1</clus>
<clus scale="  213.102">  1  4  2 -1</clus>
<clus scale="   72.453">  1  3  2 -1</clus>
</clustering>
</event>
<event>
 6    0  0.1361744E+002  0.8177281E+02  0.7546771E-02  0.1324094E+00
          2   -1    0    0  505    0 -0.00000000000E+00  0.00000000000E+00  0.19454523377E+04  0.19454523377E+04  0.00000000000E+00 0. -1.
         21   -1    0    0  503  502  0.00000000000E+00 -0.00000000000E+00 -0.25484649149E+03  0.25484649149E+03  0.00000000000E+00 0. -1.
         21    1    1    2  503  501  0.38129966202E+02 -0.21937048168E+02 -0.22765289340E+03  0.23186411598E+03  0.00000000000E+00 0. -1.
         21    1    1    2  504  502 -0.25122909456E+02 -0.60813173304E+02  0.27398184042E+02  0.71274561490E+02  0.00000000000E+00 0. -1.
         21    1    1    2  505  504  0.25572812429E+02 -0.20881828930E+02  0.20172784855E+03  0.20441170317E+03  0.00000000000E+00 0. -1.
          2    1    1    2  501    0 -0.38579869176E+02  0.10363205040E+03  0.16891327070E+04  0.16927484486E+04  0.00000000000E+00 0. -1.
<scales pt_clust_3="44.02947" pt_clust_4="81.77281" pt_clust_5="33.01544" pt_clust_6="14000.00000"></scales>
<clustering>
<clus scale="   33.015">  1  5  2 -1</clus>
<clus scale="   44.029">  2  3  1 -1</clus>
<clus scale="   81.773">  2  4  1 -1</clus>
<clus scale="   44.029">  2  3  1 -1</clus>
</clustering>
</event>
<event>
 6    0  0.1361744E+002  0.1147567E+03  0.7546771E-02  0.1252006E+00
          2   -1    0    0  503    0 -0.00000000000E+00  0.00000000000E+00  0.11834406458E+04  0.11834406458E+04  0.00000000000E+00 0.  1.
         21   -1    0    0  505  502  0.00000000000E+00 -0.00000000000E+00 -0.11147021537E+03  0.11147021537E+03  0.00000000000E+00 0. -1.
         21    1    1    2  503  504 -0.28540535695E+02 -0.15696722469E+02  0.13221759252E+03  0.13617063210E+03  0.00000000000E+00 0. -1.
         21    1    1    2  504  502 -0.12449936361E+03 -0.86034024827E+00 -0.32428082544E+02  0.12865617848E+03  0.00000000000E+00 0. -1.
         21    1    1    2  505  501  0.92699471432E+02 -0.42933288662E+02  0.69786237391E+02  0.12371975674E+03  0.00000000000E+00 0. -1.
          2    1    1    2  501    0  0.60340427869E+02  0.59490351380E+02  0.90239468306E+03  0.90636429384E+03  0.00000000000E+00 0.  1.
<scales pt_clust_3="32.57222" pt_clust_4="14000.00000" pt_clust_5="114.75667" pt_clust_6="58.22178"></scales>
<clustering>
<clus scale="   32.572">  1  3  2 -1</clus>
<clus scale="   58.222">  1  6  2 -1</clus>
<clus scale="  114.757">  1  5  2 -1</clus>
<clus scale="  114.757">  2  3  1 -1</clus>
</clustering>
</event>
<event>
 6    0  0.1361744E+002  0.1395838E+03  0.7546771E-02  0.1213890E+00
         -2   -1    0    0    0  501 -0.00000000000E+00  0.00000000000E+00  0.51753899109E+03  0.51753899109E+03  0.00000000000E+00 0.  1.
         21   -1    0    0  504  502  0.00000000000E+00 -0.00000000000E+00 -0.13273585532E+03  0.13273585532E+03  0.00000000000E+00 0.  1.
         21    1    1    2  503  502 -0.25838407276E+02 -0.34103187583E+02  0.79640993365E+02  0.90406518117E+02  0.00000000000E+00 0.  1.
         21    1    1    2  504  505  0.47099438682E+02  0.39886049049E+02 -0.61906443988E+02  0.87416599340E+02  0.00000000000E+00 0.  1.
         21    1    1    2  505  501  0.43283986749E+02  0.52093939918E+02 -0.24025269526E+02  0.71864425559E+02  0.00000000000E+00 0.  1.
         -2    1    1    2    0  503 -0.64545018155E+02 -0.57876801384E+02  0.39109385592E+03  0.40058730340E+03  0.00000000000E+00 0.  1.
<scales pt_clust_3="37.53154" pt_clust_4="35.16119" pt_clust_5="134.11259" pt_clust_6="37.53154"></scales>
<clustering>
<clus scale="   35.161">  4  5 -1 -1</clus>
<clus scale="   37.532">  3  6 -1 -1</clus>
<clus scale="  134.113">  2  4  1 -1</clus>
<clus scale="  134.113">  2  3  1 -1</clus>
</clustering>
</event>
<event>
 6    0  0.1361744E+002  0.1800272E+03  0.7546771E-02  0.1167777E+00
         21   -1    0    0  503  502  0.00000000000E+00  0.00000000000E+00  0.22927049269E+03  0.22927049269E+03  0.00000000000E+00 0. -1.
          2   -1    0    0  504    0 -0.00000000000E+00 -0.00000000000E+00 -0.89635288928E+03  0.89635288928E+03  0.00000000000E+00 0.  1.
         21    1    1    2  503  501 -0.35873788165E+01  0.10638092783E+03  0.17783016107E+03  0.20725186918E+03  0.00000000000E+00 0. -1.
         21    1    1    2  504  505  0.26723990997E+02  0.42706239167E+02 -0.30891762920E+02  0.59095647682E+02  0.00000000000E+00 0. -1.
         21    1    1    2  505  502 -0.10952651737E+02  0.34561911124E+02 -0.14840614944E+02  0.39175631872E+02  0.00000000000E+00 0. -1.
          2    1    1    2  501    0 -0.12183960444E+02 -0.18364907812E+03 -0.79918017979E+03  0.82010023324E+03  0.00000000000E+00 0.  1.
<scales pt_clust_3="180.02718" pt_clust_4="86.98157" pt_clust_5="31.13153" pt_clust_6="14000.00000"></scales>
<clustering>
<clus scale="   31.132">  4  5 -1 -1</clus>
<clus scale="   86.982">  1  4  2 -1</clus>
<clus scale="  180.027">  1  3  2 -1</clus>
<clus scale="   86.982">  1  3  2 -1</clus>
</clustering>
</event>
<event>
 6    0  0.1361744E+002  0.1139435E+03  0.7546771E-02  0.1253437E+00
         21   -1    0    0  505  502  0.00000000000E+00  0.00000000000E+00  0.95176265472E+02  0.95176265472E+02  0.00000000000E+00 0.  1.
          2   -1    0    0  503    0 -0.00000000000E+00 -0.00000000000E+00 -0.47939732877E+03  0.47939732877E+03  0.00000000000E+00 0.  1.
         21    1    1    2  503  504  0.85087021142E+02  0.12797912418E+03 -0.26368424880E+03  0.30520131137E+03  0.00000000000E+00 0.  1.
         21    1    1    2  504  502  0.41239840338E+02 -0.14854996555E+02 -0.20601510366E+02  0.48433641027E+02  0.00000000000E+00 0.  1.
         21    1    1    2  505  501 -0.80146372286E+02 -0.42607915230E+02 -0.74681191116E+00  0.90771323440E+02  0.00000000000E+00 0.  1.
          2    1    1    2  501    0 -0.46180489194E+02 -0.70516212397E+02 -0.99188492214E+02  0.13016731840E+03  0.00000000000E+00 0.  1.
<scales pt_clust_3="14000.00000" pt_clust_4="43.83372" pt_clust_5="76.60239" pt_clust_6="113.94348"></scales>
<clustering>
<clus scale="   43.834">  1  4  2 -1</clus>
<clus scale="   76.602">  1  5  2 -1</clus>
<clus scale="  113.943">  2  6  1 -1</clus>
<clus scale="   43.834">  1  3  2 -1</clus>
</clustering>
</event>
<event>
 6    0  0.1361744E+002  0.1425534E+03  0.7546771E-02  0.1209934E+00
         21   -1    0    0  504  502  0.00000000000E+00  0.00000000000E+00  0.45079788438E+03  0.45079788438E+03  0.00000000000E+00 0. -1.
         -2   -1    0    0    0  501 -0.00000000000E+00 -0.00000000000E+00 -0.38978651260E+03  0.38978651260E+03  0.00000000000E+00 0. -1.
         21    1    1    2  503  505 -0.60014632967E+02 -0.17400806420E+02 -0.18287563612E+03  0.19325641650E+03  0.00000000000E+00 0. -1.
         21    1    1    2  504  501  0.66868127049E+02 -0.80384839169E+02 -0.32326024858E+01  0.10461127330E+03  0.00000000000E+00 0. -1.
         21    1    1    2  505  502  0.91157400201E+01  0.13754254946E+03  0.37940314810E+03  0.40366793087E+03  0.00000000000E+00 0. -1.
         -2    1    1    2    0  503 -0.15969234101E+02 -0.39756903867E+02 -0.13228353771E+03  0.13904877631E+03  0.00000000000E+00 0. -1.
<scales pt_clust_3="37.59070" pt_clust_4="104.56132" pt_clust_5="135.13171" pt_clust_6="37.59070"></scales>
<clustering>
<clus scale="   37.591">  3  6 -1 -1</clus>
<clus scale="  104.561">  2  4  1 -1</clus>
<clus scale="  135.132">  1  5  2 -1</clus>
<clus scale="  135.132">  1  3  2 -1</clus>
</clustering>
</event>
<event>
 6    0  0.1361744E+002  0.2314638E+03  0.7546771E-02  0.1125614E+00
         21   -1    0    0  505  502  0.00000000000E+00  0.00000000000E+00  0.20169597283E+03  0.20169597283E+03  0.00000000000E+00 0. -1.
         -4   -1    0    0    0  501 -0.00000000000E+00 -0.00000000000E+00 -0.36181050118E+03  0.36181050118E+03  0.00000000000E+00 0. -1.
         21    1    1    2  503  502  0.29536674900E+02 -0.86450643072E+02 -0.62198772362E+02  0.11052065931E+03  0.00000000000E+00 0.  1.
         21    1    1    2  504  501 -0.43350620271E+02  0.76110096279E+02  0.13071602414E+01  0.87599838478E+02  0.00000000000E+00 0.  1.
         21    1    1    2  505  504 -0.51856034753E+02  0.12874651684E+03  0.64397148931E+02  0.15300884527E+03  0.00000000000E+00 0. -1.
         -4    1    1    2    0  503  0.65669980124E+02 -0.11840597005E+03 -0.16362006516E+03  0.21237713096E+03  0.00000000000E+00 0. -1.
<scales pt_clust_3="38.86195" pt_clust_4="40.07522" pt_clust_5="40.07522" pt_clust_6="230.80042"></scales>
<clustering>
<clus scale="   38.862">  3  6 -1 -1</clus>
<clus scale="   40.075">  4  5 -1 -1</clus>
<clus scale="  230.800">  2  3  1 -1</clus>
<clus scale="  231.464">  1  3  2 -1</clus>
</clustering>
</event>
<event>
 6    0  0.1361744E+002  0.1027778E+03  0.7546771E-02  0.1274561E+00
         21   -1    0    0  504  502  0.00000000000E+00  0.00000000000E+00  0.57952424675E+03  0.57952424675E+03  0.00000000000E+00 0.  1.
          2   -1    0    0  505    0 -0.00000000000E+00 -0.00000000000E+00 -0.10997840192E+04  0.10997840192E+04  0.00000000000E+00 0. -1.
         21    1    1    2  503  502  0.38345709054E+02 -0.28194776742E+02  0.87458591343E+02  0.99570799124E+02  0.00000000000E+00 0.  1.
         21    1    1    2  504  501 -0.93347167360E+02  0.11679588620E+03  0.47024212891E+03  0.49343959356E+03  0.00000000000E+00 0.  1.
         21    1    1    2  505  503  0.55583424070E+02 -0.28086721275E+02 -0.32524650708E+03  0.33115505629E+03  0.00000000000E+00 0.  1.
          2    1    1    2  501    0 -0.58196576445E+00 -0.60514388181E+02 -0.75271398565E+03  0.75514281699E+03  0.00000000000E+00 0. -1.
<scales pt_clust_3="47.59558" pt_clust_4="102.77776" pt_clust_5="14000.00000" pt_clust_6="60.58679"></scales>
<clustering>
<clus scale="   47.596">  1  3  2 -1</clus>
<clus scale="   60.587">  2  6  1 -1</clus>
<clus scale="  102.778">  1  4  2 -1</clus>
<clus scale="   47.596">  1  3  2 -1</clus>
</clustering>
</event>
<event>
 6    0  0.1361744E+002  0.1689099E+03  0.7546771E-02  0.1178989E+00
          1   -1    0    0  503    0 -0.00000000000E+00  0.00000000000E+00  0.38584464825E+03  0.38584464825E+03  0.00000000000E+00 0. -1.
         21   -1    0    0  505  502  0.00000000000E+00 -0.00000000000E+00 -0.28203672369E+03  0.28203672369E+03  0.00000000000E+00 0. -1.
         21    1    1    2  503  504  0.14712610085E+02 -0.41486116033E+02  0.34558692993E+02  0.55963041200E+02  0.00000000000E+00 0. -1.
         21    1    1    2  504  502  0.23080097382E+02  0.14042712250E+03 -0.17714816113E+03  0.22723102478E+03  0.00000000000E+00 0. -1.
         21    1    1    2  505  501  0.88388676301E+02  0.40649061917E+01 -0.99351599821E+00  0.88487675043E+02  0.00000000000E+00 0. -1.
          1    1    1    2  501    0 -0.12618138377E+03 -0.10300591266E+03  0.24739090870E+03  0.29619963092E+03  0.00000000000E+00 0. -1.
<scales pt_clust_3="44.01771" pt_clust_4="168.90989" pt_clust_5="90.28732" pt_clust_6="14000.00000"></scales>
<clustering>
<clus scale="   44.018">  1  3  2 -1</clus>
<clus scale="   90.287">  2  5  1 -1</clus>
<clus scale="  168.910">  2  4  1 -1</clus>
<clus scale="   90.287">  2  3  1 -1</clus>
</clustering>
</event>
<event>
 6    0  0.1361744E+002  0.1870794E+03  0.7546771E-02  0.1161122E+00
          1   -1    0    0  505    0 -0.00000000000E+00  0.00000000000E+00  0.29469812332E+03  0.29469812332E+03  0.00000000000E+00 0.  1.
         21   -1    0    0  504  502  0.00000000000E+00 -0.00000000000E+00 -0.88454766121E+03  0.88454766121E+03  0.00000000000E+00 0.  1.
         21    1    1    2  503  502  0.13911077704E+03  0.58402990041E+02 -0.78103649798E+03  0.79547515907E+03  0.00000000000E+00 0.  1.
         21    1    1    2  504  501  0.29273957323E+02  0.34561991088E+02 -0.45476897023E+02  0.64184452698E+02  0.00000000000E+00 0. -1.
         21    1    1    2  505  503 -0.34781966818E+02  0.24206641515E+01  0.10026834537E+03  0.10615736392E+03  0.00000000000E+00 0.  1.
          1    1    1    2  501    0 -0.13360276755E+03 -0.95385645280E+02  0.13639551174E+03  0.21342880885E+03  0.00000000000E+00 0.  1.
<scales pt_clust_3="187.07944" pt_clust_4="44.30682" pt_clust_5="34.86610" pt_clust_6="14000.00000"></scales>
<clustering>
<clus scale="   34.866">  1  5  2 -1</clus>
<clus scale="   44.307">  2  4  1 -1</clus>
<clus scale="  187.079">  2  3  1 -1</clus>
<clus scale="   44.307">  2  3  1 -1</clus>
</clustering>
</event>
<event>
 6    0  0.1361744E+002  0.1112757E+03  0.7546771E-02  0.1258226E+00
         -1   -1    0    0    0  501 -0.00000000000E+00  0.00000000000E+00  0.50977517372E+03  0.50977517372E+03  0.00000000000E+00 0. -1.
         21   -1    0    0  505  502  0.00000000000E+00 -0.00000000000E+00 -0.63409692677E+02  0.63409692677E+02  0.00000000000E+00 0. -1.
         21    1    1    2  503  504  0.91123429606E+02  0.50015817636E+01  0.26690672695E+03  0.28207746477E+03  0.00000000000E+00 0. -1.
         21    1    1    2  504  501  0.78779237383E+01  0.52004581181E+02  0.68611837570E+02  0.86453006894E+02  0.00000000000E+00 0.  1.
         21    1    1    2  505  503 -0.11402295550E+03 -0.28059978761E+02  0.35692910996E+02  0.12272970579E+03  0.00000000000E+00 0. -1.
         -1    1    1    2    0  502  0.15021602155E+02 -0.28946184183E+02  0.75154005532E+02  0.81924688938E+02  0.00000000000E+00 0. -1.
<scales pt_clust_3="111.27567" pt_clust_4="47.98101" pt_clust_5="14000.00000" pt_clust_6="32.61181"></scales>
<clustering>
<clus scale="   32.612">  1  6  2 -1</clus>
<clus scale="   47.981">  1  4  2 -1</clus>
<clus scale="  111.276">  1  3  2 -1</clus>
<clus scale="  111.276">  2  3  1 -1</clus>
</clustering>
</event>
<event>
 6    0  0.1361744E+002  0.1105157E+03  0.7546771E-02  0.1259618E+00
         21   -1    0    0  503  502  0.00000000000E+00  0.00000000000E+00  0.25534278723E+02  0.25534278723E+02  0.00000000000E+00 0.  1.
          2   -1    0    0  505    0 -0.00000000000E+00 -0.00000000000E+00 -0.25940818642E+04  0.25940818642E+04  0.00000000000E+00 0. -1.
         21    1    1    2  503  504  0.73780763576E+02  0.32717206951E+01 -0.96119872401E+02  0.12121606783E+03  0.00000000000E+00 0.  1.
         21    1    1    2  504  501  0.77023959705E+02 -0.21777471991E+02 -0.17637773425E+03  0.19369061359E+03  0.00000000000E+00 0.  1.
         21    1    1    2  505  502 -0.51697774345E+02  0.15666018697E+02 -0.22908252747E+03  0.23536543588E+03  0.00000000000E+00 0.  1.
          2    1    1    2  501    0 -0.99106948936E+02  0.28397325981E+01 -0.20669674513E+04  0.20693440256E+04  0.00000000000E+00 0. -1.
<scales pt_clust_3="41.05452" pt_clust_4="41.05452" pt_clust_5="54.01929" pt_clust_6="101.91646"></scales>
<clustering>
<clus scale="   41.055">  3  4 -1 -1</clus>
<clus scale="   54.019">  1  5  2 -1</clus>
<clus scale="  101.916">  2  6  1 -1</clus>
<clus scale="   54.019">  1  3  2 -1</clus>
</clustering>
</event>
<event>
 6    0  0.1361744E+002  0.1737421E+03  0.7546771E-02  0.1174001E+00
          2   -1    0    0  503    0 -0.00000000000E+00  0.00000000000E+00  0.10881281700E+04  0.10881281700E+04  0.00000000000E+00 0.  1.
         21   -1    0    0  501  502  0.00000000000E+00 -0.00000000000E+00 -0.71371515854E+02  0.71371515854E+02  0.00000000000E+00 0.  1.
         21    1    1    2  503  504  0.36957165129E+01  0.46893954841E+02  0.89330894312E+02  0.10095895205E+03  0.00000000000E+00 0.  1.
         21    1    1    2  504  505 -0.21441436908E+02 -0.83532499840E+02  0.37577553532E+02  0.94071708157E+02  0.00000000000E+00 0. -1.
         21    1    1    2  505  502  0.24371163083E+02 -0.90219690837E+02  0.34311907060E+02  0.99553268007E+02  0.00000000000E+00 0.  1.
          2    1    1    2  501    0 -0.66254426882E+01  0.12685823584E+03  0.85553629928E+03  0.86491575768E+03  0.00000000000E+00 0.  1.
<scales pt_clust_3="47.03936" pt_clust_4="44.27396" pt_clust_5="44.27396" pt_clust_6="167.51768"></scales>
<clustering>
<clus scale="   44.274">  4  5 -1 -1</clus>
<clus scale="   47.039">  1  3  2 -1</clus>
<clus scale="  167.518">  1  6  2 -1</clus>
<clus scale="  173.742">  2  3  1 -1</clus>
</clustering>
</event>
<event>
 6    0  0.1361744E+002  0.1535494E+03  0.7546771E-02  0.1196178E+00
         21   -1    0    0  504  502  0.00000000000E+00  0.00000000000E+00  0.36366455853E+02  0.36366455853E+02  0.00000000000E+00 0. -1.
          2   -1    0    0  502    0 -0.00000000000E+00 -0.00000000000E+00 -0.17311438981E+04  0.17311438981E+04  0.00000000000E+00 0. -1.
         21    1    1    2  503  505  0.51505541981E+02  0.15203482974E+02 -0.78385210416E+02  0.95016882506E+02  0.00000000000E+00 0. -1.
         21    1    1    2  504  503  0.87526887798E+02 -0.26327708978E+02 -0.61791689466E+02  0.11032822501E+03  0.00000000000E+00 0. -1.
         21    1    1    2  505  501 -0.79255031242E+02  0.17584165069E+02 -0.57266859360E+03  0.57839422623E+03  0.00000000000E+00 0. -1.
          2    1    1    2  501    0 -0.59777398536E+02 -0.64599390640E+01 -0.98193194876E+03  0.98377102020E+03  0.00000000000E+00 0. -1.
<scales pt_clust_3="42.42446" pt_clust_4="150.05682" pt_clust_5="55.26360" pt_clust_6="55.26360"></scales>
<clustering>
<clus scale="   42.424">  3  4 -1 -1</clus>
<clus scale="   55.264">  5  6 -1 -1</clus>
<clus scale="  150.057">  1  3  2 -1</clus>
<clus scale="  150.057">  1  3  2 -1</clus>
</clustering>
</event>
<event>
 6    0  0.1361744E+002  0.7695237E+02  0.7546771E-02  0.1337930E+00
         21   -1    0    0  503  502  0.00000000000E+00  0.00000000000E+00  0.10203446198E+03  0.10203446198E+03  0.00000000000E+00 0.  1.
         -2   -1    0    0    0  501 -0.00000000000E+00 -0.00000000000E+00 -0.22265074739E+03  0.22265074739E+03  0.00000000000E+00 0.  1.
         21    1    1    2  503  505  0.10311768789E+03  0.27532632595E+02  0.66082495215E+01  0.10693443026E+03  0.00000000000E+00 0.  1.
         21    1    1    2  504  502 -0.58065193094E+02  0.28764342402E+02 -0.60909935904E+01  0.65084977113E+02  0.00000000000E+00 0.  1.
         21    1    1    2  505  501  0.12041297646E+01 -0.37768437600E+02 -0.27968693944E+02  0.47012260615E+02  0.00000000000E+00 0.  1.
         -2    1    1    2    0  504 -0.46256624561E+02 -0.18528537397E+02 -0.93164847398E+02  0.10565354137E+03  0.00000000000E+00 0.  1.
<scales pt_clust_3="14000.00000" pt_clust_4="76.95237" pt_clust_5="37.78763" pt_clust_6="59.88464"></scales>
<clustering>
<clus scale="   37.788">  2  5  1 -1</clus>
<clus scale="   59.885">  2  6  1 -1</clus>
<clus scale="   76.952">  1  4  2 -1</clus>
<clus scale="   76.952">  1  3  2 -1</clus>
</clustering>
</event>
<event>
 6    0  0.1361744E+002  0.1235071E+03  0.7546771E-02  0.1237421E+00
         21   -1    0    0  504  502  0.00000000000E+00  0.00000000000E+00  0.17243354354E+03  0.17243354354E+03  0.00000000000E+00 0.  1.
         -3   -1    0    0    0  501 -0.00000000000E+00 -0.00000000000E+00 -0.13963124260E+04  0.13963124260E+04  0.00000000000E+00 0.  1.
         21    1    1    2  503  505 -0.34320916334E+02 -0.62230137207E+02 -0.74106033420E+03  0.74446016294E+03  0.00000000000E+00 0.  1.
         21    1    1    2  504  501  0.59820789025E+02  0.17999989696E+02  0.28010647476E+02  0.68462564958E+02  0.00000000000E+00 0.  1.
         21    1    1    2  505  502  0.26124579580E+02  0.58039649567E+02  0.11300910527E+03  0.12970024077E+03  0.00000000000E+00 0.  1.
         -3    1    1    2    0  503 -0.51624452271E+02 -0.13809502056E+02 -0.62383830106E+03  0.62612300093E+03  0.00000000000E+00 0.  1.
<scales pt_clust_3="42.31592" pt_clust_4="62.47020" pt_clust_5="113.45797" pt_clust_6="42.31592"></scales>
<clustering>
<clus scale="   42.316">  3  6 -1 -1</clus>
<clus scale="   62.470">  1  4  2 -1</clus>
<clus scale="  113.458">  1  5  2 -1</clus>
<clus scale="   62.470">  1  3  2 -1</clus>
</clustering>
</event>
<event>
 6    0  0.1361744E+002  0.2411043E+03  0.7546771E-02  0.1119059E+00
          2   -1    0    0  503    0 -0.00000000000E+00  0.00000000000E+00  0.16104279972E+04  0.16104279972E+04  0.00000000000E+00 0. -1.
         21   -1    0    0  501  502  0.00000000000E+00 -0.00000000000E+00 -0.45522657975E+03  0.45522657975E+03  0.00000000000E+00 0.  1.
         21    1    1    2  503  504  0.29683776210E+02  0.18051517247E+02  0.12390107803E+03  0.12867968364E+03  0.00000000000E+00 0.  1.
         21    1    1    2  504  505 -0.10653269298E+03 -0.21010907783E+01 -0.18010158373E+03  0.20926110417E+03  0.00000000000E+00 0.  1.
         21    1    1    2  505  502 -0.12442518315E+03  0.52603300731E+02 -0.23214622814E+03  0.26859003088E+03  0.00000000000E+00 0.  1.
          2    1    1    2  501    0  0.20127409992E+03 -0.68553727200E+02  0.14435481513E+04  0.14591237583E+04  0.00000000000E+00 0. -1.
<scales pt_clust_3="34.74167" pt_clust_4="44.39855" pt_clust_5="44.39855" pt_clust_6="235.85983"></scales>
<clustering>
<clus scale="   34.742">  1  3  2 -1</clus>
<clus scale="   44.399">  4  5 -1 -1</clus>
<clus scale="  235.860">  1  6  2 -1</clus>
<clus scale="  241.104">  2  3  1 -1</clus>
</clustering>
</event>
<event>
 6    0  0.1361744E+002  0.1027056E+03  0.7546771E-02  0.1274707E+00
          2   -1    0    0  503    0 -0.00000000000E+00  0.00000000000E+00  0.51401528679E+03  0.51401528679E+03  0.00000000000E+00 0. -1.
         21   -1    0    0  505  502  0.00000000000E+00 -0.00000000000E+00 -0.17119474764E+04  0.17119474764E+04  0.00000000000E+00 0. -1.
         21    1    1    2  503  502 -0.39456445102E+02  0.23850765946E+02  0.65508634694E+02  0.80106499834E+02  0.00000000000E+00 0. -1.
         21    1    1    2  504  501  0.11739310089E+02 -0.14348146867E+03 -0.11951574931E+04  0.12037965678E+04  0.00000000000E+00 0. -1.
         21    1    1    2  505  504  0.27118563015E+02  0.48330756577E+02 -0.50072330969E+03  0.50378081678E+03  0.00000000000E+00 0. -1.
          2    1    1    2  501    0  0.59857199797E+00  0.71299946151E+02  0.43243997849E+03  0.43827887880E+03  0.00000000000E+00 0. -1.
<scales pt_clust_3="46.10499" pt_clust_4="102.70564" pt_clust_5="55.42452" pt_clust_6="14000.00000"></scales>
<clustering>
<clus scale="   46.105">  1  3  2 -1</clus>
<clus scale="   55.425">  2  5  1 -1</clus>
<clus scale="  102.706">  2  4  1 -1</clus>
<clus scale="   55.425">  2  3  1 -1</clus>
</clustering>
</event>
<event>
 6    0  0.1361744E+002  0.1049710E+03  0.7546771E-02  0.1270177E+00
          2   -1    0    0  505    0 -0.00000000000E+00  0.00000000000E+00  0.34344001172E+04  0.34344001172E+04  0.00000000000E+00 0.  1.
         21   -1    0    0  504  502  0.00000000000E+00 -0.00000000000E+00 -0.33131647673E+02  0.33131647673E+02  0.00000000000E+00 0. -1.
         21    1    1    2  503  502 -0.78916111091E+02  0.31440459943E+02  0.38826199025E+02  0.93400903860E+02  0.00000000000E+00 0. -1.
         21    1    1    2  504  501 -0.10482386952E+02  0.40895747306E+02  0.10113398690E+03  0.10959208863E+03  0.00000000000E+00 0. -1.
         21    1    1    2  505  503  0.60760986233E+02 -0.43372332241E+01  0.21035273293E+04  0.21044091651E+04  0.00000000000E+00 0.  1.
          2    1    1    2  501    0  0.28637511810E+02 -0.67998974025E+02  0.11577809543E+04  0.11601296073E+04  0.00000000000E+00 0.  1.
<scales pt_clust_3="14000.00000" pt_clust_4="42.21780" pt_clust_5="60.71474" pt_clust_6="104.97103"></scales>
<clustering>
<clus scale="   42.218">  2  4  1 -1</clus>
<clus scale="   60.715">  1  5  2 -1</clus>
<clus scale="  104.971">  1  6  2 -1</clus>
<clus scale="   42.218">  2  3  1 -1</clus>
</clustering>
</event>
<event>
 6    0  0.1361744E+002  0.1132184E+03  0.7546771E-02  0.1254723E+00
          2   -1    0    0  505    0 -0.00000000000E+00  0.00000000000E+00  0.19797710096E+03  0.19797710096E+03  0.00000000000E+00 0. -1.
         21   -1    0    0  504  502  0.00000000000E+00 -0.00000000000E+00 -0.47000259485E+04  0.47000259485E+04  0.00000000000E+00 0. -1.
         21    1    1    2  503  501  0.10949177484E+03 -0.57412150980E+01 -0.60807999184E+02  0.12537552821E+03  0.00000000000E+00 0. -1.
         21    1    1    2  504  503 -0.11288448336E+03  0.96998423869E+01 -0.44015425355E+04  0.44030005320E+04  0.00000000000E+00 0. -1.
         21    1    1    2  505  502 -0.44514987334E+02 -0.55360122697E+02 -0.19047000421E+03  0.20328588192E+03  0.00000000000E+00 0.  1.
          2    1    1    2  501    0  0.47907695856E+02  0.51401495408E+02  0.15077169136E+03  0.16634110727E+03  0.00000000000E+00 0. -1.
<scales pt_clust_3="113.21836" pt_clust_4="14000.00000" pt_clust_5="59.65187" pt_clust_6="70.26565"></scales>
<clustering>
<clus scale="   70.266">  1  6  2 -1</clus>
<clus scale="   59.652">  1  5  2 -1</clus>
<clus scale="  113.218">  1  3  2 -1</clus>
<clus scale="  113.218">  2  3  1 -1</clus>
</clustering>
</event>
<event>
 6    0  0.1361744E+002  0.1288125E+03  0.7546771E-02  0.1229229E+00
         21   -1    0    0  505  502  0.00000000000E+00  0.00000000000E+00  0.85157236658E+02  0.85157236658E+02  0.00000000000E+00 0.  1.
         -3   -1    0    0    0  501 -0.00000000000E+00 -0.00000000000E+00 -0.11098919111E+04  0.11098919111E+04  0.00000000000E+00 0.  1.
         21    1    1    2  503  504  0.52747456588E+02  0.44702277554E+02  0.59335383642E+01  0.69395926916E+02  0.00000000000E+00 0.  1.
         21    1    1    2  504  502  0.61249632244E+02  0.93602146404E+01  0.19487558307E+02  0.64953029159E+02  0.00000000000E+00 0.  1.
         21    1    1    2  505  501 -0.53121943699E+02 -0.14465483824E+02 -0.19972624759E+03  0.20717568656E+03  0.00000000000E+00 0.  1.
         -3    1    1    2    0  503 -0.60875145132E+02 -0.39597008371E+02 -0.85042952353E+03  0.85352450513E+03  0.00000000000E+00 0.  1.
<scales pt_clust_3="36.48363" pt_clust_4="36.48363" pt_clust_5="55.05625" pt_clust_6="122.91188"></scales>
<clustering>
<clus scale="   36.484">  3  4 -1 -1</clus>
<clus scale="   55.056">  2  5  1 -1</clus>
<clus scale="  122.912">  2  6  1 -1</clus>
<clus scale="  128.812">  1  3  2 -1</clus>
</clustering>
</event>
<event>
 6    0  0.1361744E+002  0.6659337E+02  0.7546771E-02  0.1372076E+00
         21   -1    0    0  501  502  0.00000000000E+00  0.00000000000E+00  0.30906978143E+03  0.30906978143E+03  0.00000000000E+00 0. -1.
          1   -1    0    0  504    0 -0.00000000000E+00 -0.00000000000E+00 -0.46878528629E+03  0.46878528629E+03  0.00000000000E+00 0. -1.
         21    1    1    2  503  505  0.17824140252E+02  0.75000057632E+02  0.23664297626E+03  0.24888271702E+03  0.00000000000E+00 0. -1.
         21    1    1    2  504  503  0.18467684285E+02  0.45592528265E+02 -0.10654382524E+03  0.11735127052E+03  0.00000000000E+00 0. -1.
         21    1    1    2  505  502 -0.32574646380E+02 -0.34836992192E+02  0.45245398438E+02  0.65740928588E+02  0.00000000000E+00 0.  1.
          1    1    1    2  501    0 -0.37171781560E+01 -0.85755593705E+02 -0.33506005431E+03  0.34588015159E+03  0.00000000000E+00 0. -1.
<scales pt_clust_3="43.73945" pt_clust_4="66.59337" pt_clust_5="47.69406" pt_clust_6="14000.00000"></scales>
<clustering>
<clus scale="   47.694">  1  5  2 -1</clus>
<clus scale="   43.739">  1  3  2 -1</clus>
<clus scale="   66.593">  2  4  1 -1</clus>
<clus scale="   47.694">  1  3  2 -1</clus>
</clustering>
</event>
<event>
 6    0  0.1361744E+002  0.1335630E+03  0.7546771E-02  0.1222263E+00
          2   -1    0    0  503    0 -0.00000000000E+00  0.00000000000E+00  0.10301935102E+04  0.10301935102E+04  0.00000000000E+00 0.  1.
         21   -1    0    0  505  502  0.00000000000E+00 -0.00000000000E+00 -0.49034931905E+02  0.49034931905E+02  0.00000000000E+00 0.  1.
         21    1    1    2  503  502 -0.29941523109E+02  0.73231877869E+02  0.37160970049E+02  0.87409040936E+02  0.00000000000E+00 0.  1.
         21    1    1    2  504  501  0.69915664557E+02 -0.45893417182E+01  0.44484116009E+03  0.45032534896E+03  0.00000000000E+00 0.  1.
         21    1    1    2  505  504 -0.87313601104E+02 -0.79186637641E+01  0.91856397872E+02  0.12698018745E+03  0.00000000000E+00 0.  1.
          2    1    1    2  501    0  0.47339459657E+02 -0.60723872387E+02  0.40730005032E+03  0.41451386480E+03  0.00000000000E+00 0.  1.
<scales pt_clust_3="79.11639" pt_clust_4="58.70890" pt_clust_5="118.53873" pt_clust_6="58.70890"></scales>
<clustering>
<clus scale="   58.709">  4  6 -1 -1</clus>
<clus scale="   79.116">  2  3  1 -1</clus>
<clus scale="  118.539">  2  5  1 -1</clus>
<clus scale="   79.116">  2  3  1 -1</clus>
</clustering>
</event>
<event>
 6    0  0.1361744E+002  0.3870820E+03  0.7546771E-02  0.1048347E+00
         -1   -1    0    0    0  501 -0.00000000000E+00  0.00000000000E+00  0.26472948076E+03  0.26472948076E+03  0.00000000000E+00 0.  1.
         21   -1    0    0  503  502  0.00000000000E+00 -0.00000000000E+00 -0.81827511570E+03  0.81827511570E+03  0.00000000000E+00 0.  1.
         21    1    1    2  503  504 -0.23780940216E+03 -0.11014086091E+03 -0.41706750248E+02  0.26537478029E+03  0.00000000000E+00 0.  1.
         21    1    1    2  504  501 -0.11328890152E+03  0.12574110345E+02  0.58231025064E+02  0.12799740520E+03  0.00000000000E+00 0.  1.
         21    1    1    2  505  502  0.33690172565E+02 -0.28063624441E+02 -0.95041048287E+02  0.10466802570E+03  0.00000000000E+00 0.  1.
         -1    1    1    2    0  505  0.31740813111E+03  0.12563037501E+03 -0.47502886146E+03  0.58496438527E+03  0.00000000000E+00 0.  1.
<scales pt_clust_3="97.06596" pt_clust_4="97.06596" pt_clust_5="43.84740" pt_clust_6="357.98481"></scales>
<clustering>
<clus scale="   43.847">  2  5  1 -1</clus>
<clus scale="   97.066">  3  4 -1 -1</clus>
<clus scale="  357.985">  2  6  1 -1</clus>
<clus scale="   43.847">  2  3  1 -1</clus>
</clustering>
</event>
<event>
 6    0  0.1361744E+002  0.1447541E+03  0.7546771E-02  0.1207071E+00
          2   -1    0    0  504    0 -0.00000000000E+00  0.00000000000E+00  0.30328867625E+04  0.30328867625E+04  0.00000000000E+00 0.  1.
         21   -1    0    0  505  502  0.00000000000E+00 -0.00000000000E+00 -0.19419742018E+03  0.19419742018E+03  0.00000000000E+00 0. -1.
         21    1    1    2  503  502 -0.68644365711E+02  0.13070456820E+02  0.52968382599E+01  0.70078115563E+02  0.00000000000E+00 0. -1.
         21    1    1    2  504  503  0.41041466077E+02 -0.88390873135E+02 -0.13310319208E+03  0.16496608176E+03  0.00000000000E+00 0. -1.
         21    1    1    2  505  501 -0.11661018490E+02 -0.64911890551E+02  0.88544521595E+02  0.11040681678E+03  0.00000000000E+00 0.  1.
          2    1    1    2  501    0  0.39263918124E+02  0.14023230687E+03  0.28779511746E+04  0.28816331686E+04  0.00000000000E+00 0.  1.
<scales pt_clust_3="70.72340" pt_clust_4="14000.00000" pt_clust_5="65.95099" pt_clust_6="144.75411"></scales>
<clustering>
<clus scale="   65.951">  2  5  1 -1</clus>
<clus scale="   70.723">  2  3  1 -1</clus>
<clus scale="  144.754">  1  6  2 -1</clus>
<clus scale="   65.951">  2  3  1 -1</clus>
</clustering>
</event>
<event>
 6    0  0.1361744E+002  0.1262690E+03  0.7546771E-02  0.1233099E+00
         21   -1    0    0  505  502  0.00000000000E+00  0.00000000000E+00  0.14778950357E+03  0.14778950357E+03  0.00000000000E+00 0. -1.
          1   -1    0    0  504    0 -0.00000000000E+00 -0.00000000000E+00 -0.19427078918E+03  0.19427078918E+03  0.00000000000E+00 0. -1.
         21    1    1    2  503  502 -0.62754133183E+02  0.93449582164E+02  0.70087087447E+02  0.13260130265E+03  0.00000000000E+00 0. -1.
         21    1    1    2  504  503  0.10291253739E+02  0.29480593385E+02 -0.16712104154E+02  0.35416235191E+02  0.00000000000E+00 0.  1.
         21    1    1    2  505  501  0.17681799611E+01 -0.40162054150E+02 -0.92210246034E+01  0.41244931187E+02  0.00000000000E+00 0.  1.
          1    1    1    2  501    0  0.50694699484E+02 -0.82768121399E+02 -0.90635244302E+02  0.13279782372E+03  0.00000000000E+00 0. -1.
<scales pt_clust_3="116.13972" pt_clust_4="31.22523" pt_clust_5="32.11440" pt_clust_6="32.11440"></scales>
<clustering>
<clus scale="   31.225">  2  4  1 -1</clus>
<clus scale="   32.114">  5  6 -1 -1</clus>
<clus scale="  116.140">  1  3  2 -1</clus>
<clus scale="  116.140">  1  3  2 -1</clus>
</clustering>
</event>
<event>
 6    0  0.1361744E+002  0.1329975E+03  0.7546771E-02  0.1223075E+00
          1   -1    0    0  503    0 -0.00000000000E+00  0.00000000000E+00  0.30776426913E+04  0.30776426913E+04  0.00000000000E+00 0.  1.
         21   -1    0    0  505  502  0.00000000000E+00 -0.00000000000E+00 -0.55109163774E+02  0.55109163774E+02  0.00000000000E+00 0.  1.
         21    1    1    2  503  504  0.40485316541E+02  0.41639477962E+02 -0.12251783458E+01  0.58089655210E+02  0.00000000000E+00 0.  1.
         21    1    1    2  504  502 -0.15154943819E+02  0.44875265623E+02  0.56298396494E+01  0.47698604606E+02  0.00000000000E+00 0.  1.
         21    1    1    2  505  501  0.32042675059E+02  0.20963289723E+02  0.11358196709E+03  0.11986265385E+03  0.00000000000E+00 0.  1.
          1    1    1    2  501    0 -0.57373047781E+02 -0.10747803331E+03  0.29045468992E+04  0.29071009414E+04  0.00000000000E+00 0.  1.
<scales pt_clust_3="45.21707" pt_clust_4="45.21707" pt_clust_5="38.29089" pt_clust_6="121.00827"></scales>
<clustering>
<clus scale="   38.291">  2  5  1 -1</clus>
<clus scale="   45.217">  3  4 -1 -1</clus>
<clus scale="  121.008">  1  6  2 -1</clus>
<clus scale="   38.291">  2  3  1 -1</clus>
</clustering>
</event>
<event>
 6    0  0.1361744E+002  0.1089550E+03  0.7546771E-02  0.1262517E+00
         21   -1    0    0  505  502  0.00000000000E+00  0.00000000000E+00  0.16590886618E+04  0.16590886618E+04  0.00000000000E+00 0.  1.
         -4   -1    0    0    0  501 -0.00000000000E+00 -0.00000000000E+00 -0.43106672578E+02  0.43106672578E+02  0.00000000000E+00 0. -1.
         21    1    1    2  503  501  0.40094772306E+02 -0.17706212793E+02  0.71471998753E+02  0.83841203137E+02  0.00000000000E+00 0.  1.
         21    1    1    2  504  503  0.31534932538E+02 -0.16351657192E+02  0.40407124719E+03  0.40562963583E+03  0.00000000000E+00 0.  1.
         21    1    1    2  505  504  0.64590137401E+02  0.29051613776E+02  0.10424364899E+04  0.10448395655E+04  0.00000000000E+00 0.  1.
         -4    1    1    2    0  502 -0.13621984225E+03  0.50062562093E+01  0.98002253333E+02  0.16788492988E+03  0.00000000000E+00 0. -1.
<scales pt_clust_3="43.83036" pt_clust_4="32.26022" pt_clust_5="32.26022" pt_clust_6="98.97595"></scales>
<clustering>
<clus scale="   32.260">  4  5 -1 -1</clus>
<clus scale="   43.830">  2  3  1 -1</clus>
<clus scale="   98.976">  2  6  1 -1</clus>
<clus scale="  108.955">  1  3  2 -1</clus>
</clustering>
</event>
<event>
 6    0  0.1361744E+002  0.2463543E+03  0.7546771E-02  0.1115631E+00
         21   -1    0    0  505  502  0.00000000000E+00  0.00000000000E+00  0.16631253052E+04  0.16631253052E+04  0.00000000000E+00 0.  1.
          2   -1    0    0  503    0 -0.00000000000E+00 -0.00000000000E+00 -0.34111114668E+03  0.34111114668E+03  0.00000000000E+00 0. -1.
         21    1    1    2  503  504  0.14685206655E+02 -0.11253109569E+03 -0.20511334712E+02  0.11532396821E+03  0.00000000000E+00 0. -1.
         21    1    1    2  504  502 -0.16536904490E+03  0.22949653253E+02  0.14156379762E+04  0.14254488722E+04  0.00000000000E+00 0.  1.
         21    1    1    2  505  501 -0.88492689567E+02 -0.45751456633E+01  0.11482736008E+03  0.14504209971E+03  0.00000000000E+00 0. -1.
          2    1    1    2  501    0  0.23917652782E+03  0.94156588102E+02 -0.18793984305E+03  0.31842151175E+03  0.00000000000E+00 0. -1.
<scales pt_clust_3="113.30439" pt_clust_4="14000.00000" pt_clust_5="88.61088" pt_clust_6="246.35425"></scales>
<clustering>
<clus scale="   88.611">  1  5  2 -1</clus>
<clus scale="  113.304">  2  3  1 -1</clus>
<clus scale="  246.354">  2  6  1 -1</clus>
<clus scale="   88.611">  1  3  2 -1</clus>
</clustering>
</event>
<event>
 6    0  0.1361744E+002  0.1938316E+03  0.7546771E-02  0.1155050E+00
          1   -1    0    0  503    0 -0.00000000000E+00  0.00000000000E+00  0.16302361451E+04  0.16302361451E+04  0.00000000000E+00 0. -1.
         21   -1    0    0  504  502  0.00000000000E+00 -0.00000000000E+00 -0.21324706309E+03  0.21324706309E+03  0.00000000000E+00 0.  1.
         21    1    1    2  503  505 -0.95391209144E+02  0.27565644136E+01 -0.52702316743E+02  0.10901658415E+03  0.00000000000E+00 0.  1.
         21    1    1    2  504  501  0.12196599394E+03 -0.25585294650E+02  0.51031229524E+03  0.52530843288E+03  0.00000000000E+00 0.  1.
         21    1    1    2  505  502 -0.91509644282E+02  0.41643619157E+02 -0.10340568128E+03  0.14422531308E+03  0.00000000000E+00 0.  1.
          1    1    1    2  501    0  0.64934859482E+02 -0.18814888921E+02  0.10627847847E+04  0.10649328780E+04  0.00000000000E+00 0. -1.
<scales pt_clust_3="52.08843" pt_clust_4="186.31224" pt_clust_5="52.08843" pt_clust_6="67.60574"></scales>
<clustering>
<clus scale="   52.088">  3  5 -1 -1</clus>
<clus scale="   67.606">  1  6  2 -1</clus>
<clus scale="  186.312">  1  4  2 -1</clus>
<clus scale="  193.832">  2  3  1 -1</clus>
</clustering>
</event>
<event>
 6    0  0.1361744E+002  0.1347641E+03  0.7546771E-02  0.1220553E+00
         21   -1    0    0  503  502  0.00000000000E+00  0.00000000000E+00  0.18688481718E+04  0.18688481718E+04  0.00000000000E+00 0.  1.
          3   -1    0    0  505    0 -0.00000000000E+00 -0.00000000000E+00 -0.34430453426E+03  0.34430453426E+03  0.00000000000E+00 0. -1.
         21    1    1    2  503  501  0.73804184064E+02 -0.14876523219E+03  0.16708404259E+04  0.16790729230E+04  0.00000000000E+00 0.  1.
         21    1    1    2  504  502 -0.34674382911E+02  0.87898804563E+01  0.12427648713E+03  0.12932215620E+03  0.00000000000E+00 0.  1.
         21    1    1    2  505  504  0.19996306320E+01  0.82257072135E+02  0.36208263069E+02  0.89895843916E+02  0.00000000000E+00 0.  1.
          3    1    1    2  501    0 -0.41129431785E+02  0.57718279596E+02 -0.30678153856E+03  0.31486178295E+03  0.00000000000E+00 0. -1.
<scales pt_clust_3="134.76411" pt_clust_4="35.77115" pt_clust_5="14000.00000" pt_clust_6="70.93663"></scales>
<clustering>
<clus scale="   35.771">  1  4  2 -1</clus>
<clus scale="   70.937">  2  6  1 -1</clus>
<clus scale="  134.764">  1  3  2 -1</clus>
<clus scale="   35.771">  1  3  2 -1</clus>
</clustering>
</event>
<event>
 6    0  0.1361744E+002  0.6411950E+02  0.7546771E-02  0.1381315E+00
         21   -1    0    0  505  502  0.00000000000E+00  0.00000000000E+00  0.60771818393E+02  0.60771818393E+02  0.00000000000E+00 0. -1.
          2   -1    0    0  504    0 -0.00000000000E+00 -0.00000000000E+00 -0.87198951661E+03  0.87198951661E+03  0.00000000000E+00 0. -1.
         21    1    1    2  503  502  0.56456531939E+02 -0.16458266174E+02  0.20489967816E+02  0.62274017898E+02  0.00000000000E+00 0. -1.
         21    1    1    2  504  503  0.36153189167E+02  0.12265208374E+01 -0.15217423513E+03  0.15641469010E+03  0.00000000000E+00 0. -1.
         21    1    1    2  505  501 -0.12920563022E+03  0.29431454534E+02 -0.25179273906E+03  0.28453451256E+03  0.00000000000E+00 0. -1.
          2    1    1    2  501    0  0.36595909111E+02 -0.14199709198E+02 -0.42774069185E+03  0.42953811445E+03  0.00000000000E+00 0. -1.
<scales pt_clust_3="14000.00000" pt_clust_4="36.17399" pt_clust_5="64.11950" pt_clust_6="59.72631"></scales>
<clustering>
<clus scale="   36.174">  2  4  1 -1</clus>
<clus scale="   59.726">  2  6  1 -1</clus>
<clus scale="   64.120">  2  5  1 -1</clus>
<clus scale="   64.120">  1  3  2 -1</clus>
</clustering>
</event>
<event>
 6    0  0.1361744E+002  0.2228100E+03  0.7546771E-02  0.1131805E+00
         21   -1    0    0  503  502  0.00000000000E+00  0.00000000000E+00  0.10708987056E+03  0.10708987056E+03  0.00000000000E+00 0.  1.
          2   -1    0    0  504    0 -0.00000000000E+00 -0.00000000000E+00 -0.95006170422E+03  0.95006170422E+03  0.00000000000E+00 0.  1.
         21    1    1    2  503  501 -0.62654469229E+01 -0.78292684122E+02  0.16531881118E+02  0.80263960190E+02  0.00000000000E+00 0.  1.
         21    1    1    2  504  505  0.30211327228E+01 -0.70714860228E+02 -0.27400613760E+03  0.28300014512E+03  0.00000000000E+00 0.  1.
         21    1    1    2  505  502  0.65904817770E+02 -0.97303789590E+02 -0.20543954066E+03  0.23667884853E+03  0.00000000000E+00 0.  1.
          2    1    1    2  501    0 -0.62660503570E+02  0.24631133394E+03 -0.38005803652E+03  0.45720862094E+03  0.00000000000E+00 0.  1.
<scales pt_clust_3="78.54298" pt_clust_4="65.92848" pt_clust_5="65.92848" pt_clust_6="205.97872"></scales>
<clustering>
<clus scale="   65.928">  4  5 -1 -1</clus>
<clus scale="   78.543">  1  3  2 -1</clus>
<clus scale="  205.979">  1  6  2 -1</clus>
<clus scale="   78.543">  1  3  2 -1</clus>
</clustering>
</event>
<event>
 6    0  0.1361744E+002  0.1206261E+03  0.7546771E-02  0.1242068E+00
         -2   -1    0    0    0  501 -0.00000000000E+00  0.00000000000E+00  0.84451749713E+03  0.84451749713E+03  0.00000000000E+00 0. -1.
         21   -1    0    0  505  502  0.00000000000E+00 -0.00000000000E+00 -0.13060886180E+03  0.13060886180E+03  0.00000000000E+00 0. -1.
         21    1    1    2  503  501  0.13942371118E+02 -0.43533401457E+02  0.10013333700E+03  0.11007375678E+03  0.00000000000E+00 0.  1.
         21    1    1    2  504  502  0.37388213576E+02  0.33343376866E+01  0.11266673060E+02  0.39190996977E+02  0.00000000000E+00 0.  1.
         21    1    1    2  505  503 -0.26577905261E+02  0.12070801499E+03 -0.74047409703E+02  0.14408271518E+03  0.00000000000E+00 0. -1.
         -2    1    1    2    0  504 -0.24752679433E+02 -0.80508951217E+02  0.67655603498E+03  0.68177888999E+03  0.00000000000E+00 0. -1.
<scales pt_clust_3="46.08858" pt_clust_4="37.53660" pt_clust_5="14000.00000" pt_clust_6="120.62612"></scales>
<clustering>
<clus scale="   37.537">  2  4  1 -1</clus>
<clus scale="   46.089">  1  3  2 -1</clus>
<clus scale="  120.626">  1  6  2 -1</clus>
<clus scale="   37.537">  2  3  1 -1</clus>
</clustering>
</event>
<event>
 6    0  0.1361744E+002  0.1623395E+03  0.7546771E-02  0.1186080E+00
         21   -1    0    0  505  502  0.00000000000E+00  0.00000000000E+00  0.72384185870E+02  0.72384185870E+02  0.00000000000E+00 0.  1.
          2   -1    0    0  504    0 -0.00000000000E+00 -0.00000000000E+00 -0.11594143051E+04  0.11594143051E+04  0.00000000000E+00 0. -1.
         21    1    1    2  503  502  0.91726701632E+02  0.62769320101E+02  0.90950711286E+00  0.11115125974E+03  0.00000000000E+00 0.  1.
         21    1    1    2  504  503  0.41360718680E+02  0.59023114057E+01 -0.32866205374E+02  0.53157631488E+02  0.00000000000E+00 0.  1.
         21    1    1    2  505  501 -0.55958842865E+02 -0.19266288231E+02 -0.23587245361E+03  0.24318387349E+03  0.00000000000E+00 0. -1.
          2    1    1    2  501    0 -0.77128577447E+02 -0.49405343275E+02 -0.81920096741E+03  0.82430572629E+03  0.00000000000E+00 0. -1.
<scales pt_clust_3="161.17128" pt_clust_4="36.52014" pt_clust_5="50.36621" pt_clust_6="50.36621"></scales>
<clustering>
<clus scale="   36.520">  3  4 -1 -1</clus>
<clus scale="   50.366">  5  6 -1 -1</clus>
<clus scale="  161.171">  1  3  2 -1</clus>
<clus scale="  161.171">  1  3  2 -1</clus>
</clustering>
</event>
<event>
 6    0  0.1361744E+002  0.1191530E+03  0.7546771E-02  0.1244501E+00
         21   -1    0    0  501  502  0.00000000000E+00  0.00000000000E+00  0.50463702052E+03  0.50463702052E+03  0.00000000000E+00 0.  1.
          1   -1    0    0  503    0 -0.00000000000E+00 -0.00000000000E+00 -0.11803330453E+04  0.11803330453E+04  0.00000000000E+00 0.  1.
         21    1    1    2  503  504 -0.25176848932E+02 -0.34922810785E+02 -0.85306590818E+02  0.95554648617E+02  0.00000000000E+00 0.  1.
         21    1    1    2  504  505  0.75621806833E+02 -0.12429453834E+02  0.17199507165E+03  0.18829618600E+03  0.00000000000E+00 0.  1.
         21    1    1    2  505  502  0.42335544847E+02 -0.16300281890E+02  0.31481126624E+03  0.31806309264E+03  0.00000000000E+00 0.  1.
          1    1    1    2  501    0 -0.92780502748E+02  0.63652546509E+02 -0.10771957719E+04  0.10830561386E+04  0.00000000000E+00 0.  1.
<scales pt_clust_3="43.05202" pt_clust_4="14000.00000" pt_clust_5="45.34887" pt_clust_6="119.15303"></scales>
<clustering>
<clus scale="   43.052">  2  3  1 -1</clus>
<clus scale="   45.349">  1  5  2 -1</clus>
<clus scale="  119.153">  2  6  1 -1</clus>
<clus scale="   45.349">  1  3  2 -1</clus>
</clustering>
</event>
<event>
 6    0  0.1361744E+002  0.1058535E+03  0.7546771E-02  0.1268447E+00
         21   -1    0    0  503  502  0.00000000000E+00  0.00000000000E+00  0.14225072373E+04  0.14225072373E+04  0.00000000000E+00 0. -1.
          2   -1    0    0  504    0 -0.00000000000E+00 -0.00000000000E+00 -0.28923873669E+03  0.28923873669E+03  0.00000000000E+00 0.  1.
         21    1    1    2  503  501 -0.41095078399E+01 -0.55073155050E+02  0.12595687001E+03  0.13753208194E+03  0.00000000000E+00 0.  1.
         21    1    1    2  504  505  0.52295436127E+02  0.80916759097E+02 -0.11479247651E+03  0.14986543032E+03  0.00000000000E+00 0.  1.
         21    1    1    2  505  502 -0.84623912821E+02 -0.56515403574E+01  0.12689125971E+04  0.12717438129E+04  0.00000000000E+00 0. -1.
          2    1    1    2  501    0  0.36437984534E+02 -0.20192063690E+02 -0.14680848993E+03  0.15260464891E+03  0.00000000000E+00 0.  1.
<scales pt_clust_3="55.97103" pt_clust_4="105.85353" pt_clust_5="14000.00000" pt_clust_6="41.65869"></scales>
<clustering>
<clus scale="   41.659">  2  6  1 -1</clus>
<clus scale="   55.971">  1  3  2 -1</clus>
<clus scale="  105.854">  2  4  1 -1</clus>
<clus scale="   55.971">  1  3  2 -1</clus>
</clustering>
</event>
<event>
 6    0  0.1974320E+002  0.2266221E+03  0.7546771E-02  0.1129040E+00
          2   -1    0    0  503    0 -0.00000000000E+00  0.00000000000E+00  0.20334124866E+04  0.20334124866E+04  0.00000000000E+00 0.  1.
         21   -1    0    0  505  502  0.00000000000E+00 -0.00000000000E+00 -0.61422104014E+03  0.61422104014E+03  0.00000000000E+00 0. -1.
         21    1    1    2  503  504 -0.61827243913E+02  0.54108187803E+02  0.23502448460E+02  0.85455656108E+02  0.00000000000E+00 0. -1.
         21    1    1    2  504  502 -0.45172227371E+02 -0.60533200329E+01 -0.24911187689E+02  0.51939773596E+02  0.00000000000E+00 0. -1.
         21    1    1    2  505  501 -0.84447727296E+02  0.75829680552E+02 -0.53220066347E+03  0.54416826928E+03  0.00000000000E+00 0. -1.
          2    1    1    2  501    0  0.19144719858E+03 -0.12388454832E+03  0.19528008491E+04  0.19660698277E+04  0.00000000000E+00 0.  1.
<scales pt_clust_3="83.79485" pt_clust_4="45.57601" pt_clust_5="14000.00000" pt_clust_6="226.62206"></scales>
<clustering>
<clus scale="   45.576">  2  4  1 -1</clus>
<clus scale="   83.795">  2  3  1 -1</clus>
<clus scale="  226.622">  1  6  2 -1</clus>
<clus scale="   45.576">  2  3  1 -1</clus>
</clustering>
</event>
<event>
 6    0  0.1361744E+002  0.9779054E+02  0.7546771E-02  0.1285012E+00
          2   -1    0    0  503    0 -0.00000000000E+00  0.00000000000E+00  0.17295332869E+04  0.17295332869E+04  0.00000000000E+00 0.  1.
         21   -1    0    0  505  502  0.00000000000E+00 -0.00000000000E+00 -0.59004594524E+02  0.59004594524E+02  0.00000000000E+00 0.  1.
         21    1    1    2  503  504 -0.16493961038E+01  0.62524044488E+02  0.31394758357E+03  0.32011726269E+03  0.00000000000E+00 0. -1.
         21    1    1    2  504  502 -0.10671263688E+03  0.48558153538E+02  0.37033407023E+02  0.12295102432E+03  0.00000000000E+00 0.  1.
         21    1    1    2  505  501  0.10192538532E+02 -0.62825370006E+02  0.85529126810E+02  0.10661213107E+03  0.00000000000E+00 0.  1.
          2    1    1    2  501    0  0.98169494454E+02 -0.48256828020E+02  0.12340185750E+04  0.12388574633E+04  0.00000000000E+00 0.  1.
<scales pt_clust_3="62.54580" pt_clust_4="14000.00000" pt_clust_5="59.43391" pt_clust_6="97.79054"></scales>
<clustering>
<clus scale="   62.546">  1  3  2 -1</clus>
<clus scale="   59.434">  2  5  1 -1</clus>
<clus scale="   97.791">  1  6  2 -1</clus>
<clus scale="   59.434">  2  3  1 -1</clus>
</clustering>
</event>
<event>
 6    0  0.1361744E+002  0.8252384E+02  0.7546771E-02  0.1322038E+00
         21   -1    0    0  505  502  0.00000000000E+00  0.00000000000E+00  0.21476802588E+02  0.21476802588E+02  0.00000000000E+00 0.  1.
          2   -1    0    0  504    0 -0.00000000000E+00 -0.00000000000E+00 -0.11568738296E+04  0.11568738296E+04  0.00000000000E+00 0.  1.
         21    1    1    2  503  502  0.78765648522E+02  0.50045286236E+02 -0.15280129323E+03  0.17904410986E+03  0.00000000000E+00 0.  1.
         21    1    1    2  504  503  0.37843844534E+02 -0.97405614220E+01 -0.17798591839E+03  0.18222519654E+03  0.00000000000E+00 0. -1.
         21    1    1    2  505  501 -0.31240363444E+02  0.66018614948E+01 -0.83053457262E+02  0.88979894620E+02  0.00000000000E+00 0.  1.
          2    1    1    2  501    0 -0.85369129611E+02 -0.46906586309E+02 -0.72155635809E+03  0.72810143114E+03  0.00000000000E+00 0.  1.
<scales pt_clust_3="14000.00000" pt_clust_4="35.42541" pt_clust_5="31.93031" pt_clust_6="82.52384"></scales>
<clustering>
<clus scale="   31.930">  1  5  2 -1</clus>
<clus scale="   35.425">  2  4  1 -1</clus>
<clus scale="   82.524">  2  6  1 -1</clus>
<clus scale="   31.930">  1  3  2 -1</clus>
</clustering>
</event>
<event>
 6    0  0.1361744E+002  0.1176708E+03  0.7546771E-02  0.1246990E+00
         21   -1    0    0  503  502  0.00000000000E+00  0.00000000000E+00  0.29443250256E+03  0.29443250256E+03  0.00000000000E+00 0.  1.
          2   -1    0    0  504    0 -0.00000000000E+00 -0.00000000000E+00 -0.27271025140E+03  0.27271025140E+03  0.00000000000E+00 0.  1.
         21    1    1    2  503  501  0.90095596665E+02 -0.92092808855E+01  0.22223604367E+03  0.23998101279E+03  0.00000000000E+00 0.  1.
         21    1    1    2  504  505 -0.67308803666E+02  0.19520079605E+02 -0.68802659125E+02  0.98210561863E+02  0.00000000000E+00 0.  1.
         21    1    1    2  505  502  0.40135991680E+02  0.42682499811E+02  0.15241356513E+02  0.60539182078E+02  0.00000000000E+00 0.  1.
          2    1    1    2  501    0 -0.62922784679E+02 -0.52993298531E+02 -0.14695248991E+03  0.16841199723E+03  0.00000000000E+00 0.  1.
<scales pt_clust_3="117.67082" pt_clust_4="68.61934" pt_clust_5="58.58919" pt_clust_6="14000.00000"></scales>
<clustering>
<clus scale="   58.589">  1  5  2 -1</clus>
<clus scale="   68.619">  2  4  1 -1</clus>
<clus scale="  117.671">  1  3  2 -1</clus>
<clus scale="   58.589">  1  3  2 -1</clus>
</clustering>
</event>
<event>
 6    0  0.1361744E+002  0.1282222E+03  0.7546771E-02  0.1230118E+00
          1   -1    0    0  504    0 -0.00000000000E+00  0.00000000000E+00  0.19341295374E+04  0.19341295374E+04  0.00000000000E+00 0.  1.
         21   -1    0    0  505  502  0.00000000000E+00 -0.00000000000E+00 -0.49666450719E+02  0.49666450719E+02  0.00000000000E+00 0. -1.
         21    1    1    2  503  501 -0.49677175340E+02  0.98096064313E+02  0.92798747624E+02  0.14388282435E+03  0.00000000000E+00 0. -1.
         21    1    1    2  504  502 -0.20171809643E+02 -0.56176950122E+02  0.41064768282E+03  0.41496297550E+03  0.00000000000E+00 0. -1.
         21    1    1    2  505  503  0.10467726498E+01  0.30067393285E+02 -0.89753648913E+01  0.31395876271E+02  0.00000000000E+00 0. -1.
          1    1    1    2  501    0  0.68802212333E+02 -0.71986507475E+02  0.13899920212E+04  0.13935543120E+04  0.00000000000E+00 0.  1.
<scales pt_clust_3="128.22218" pt_clust_4="57.59571" pt_clust_5="30.08561" pt_clust_6="14000.00000"></scales>
<clustering>
<clus scale="   30.086">  2  5  1 -1</clus>
<clus scale="   57.596">  1  4  2 -1</clus>
<clus scale="  128.222">  2  3  1 -1</clus>
<clus scale="   30.086">  2  3  1 -1</clus>
</clustering>
</event>
<event>
 6    0  0.1361744E+002  0.2780100E+03  0.7546771E-02  0.1096781E+00
          2   -1    0    0  503    0 -0.00000000000E+00  0.00000000000E+00  0.20025304570E+04  0.20025304570E+04  0.00000000000E+00 0.  1.
         21   -1    0    0  505  502  0.00000000000E+00 -0.00000000000E+00 -0.39619736206E+02  0.39619736206E+02  0.00000000000E+00 0.  1.
         21    1    1    2  503  504  0.40272262656E+02  0.14860960667E+03  0.49516318458E+03  0.51854917770E+03  0.00000000000E+00 0.  1.
         21    1    1    2  504  502 -0.54064480301E+02  0.99184455482E+02  0.19267475981E+03  0.22334745870E+03  0.00000000000E+00 0.  1.
         21    1    1    2  505  501  0.25439408902E+02 -0.13243607800E+03  0.57182393934E+03  0.58751093257E+03  0.00000000000E+00 0.  1.
          2    1    1    2  501    0 -0.11647191256E+02 -0.11535798415E+03  0.70324883703E+03  0.71274262421E+03  0.00000000000E+00 0.  1.
<scales pt_clust_3="107.31592" pt_clust_4="107.31592" pt_clust_5="52.91397" pt_clust_6="254.65413"></scales>
<clustering>
<clus scale="   52.914">  5  6 -1 -1</clus>
<clus scale="  107.316">  3  4 -1 -1</clus>
<clus scale="  254.654">  1  5  2 -1</clus>
<clus scale="  278.010">  2  3  1 -1</clus>
</clustering>
</event>
<event>
 6    0  0.1361744E+002  0.2991766E+03  0.7546771E-02  0.1085653E+00
          1   -1    0    0  502    0 -0.00000000000E+00  0.00000000000E+00  0.54227977888E+03  0.54227977888E+03  0.00000000000E+00 0. -1.
         21   -1    0    0  503  502  0.00000000000E+00 -0.00000000000E+00 -0.19626779919E+03  0.19626779919E+03  0.00000000000E+00 0.  1.
         21    1    1    2  503  504  0.36935620411E+02 -0.51567098936E+02 -0.27832210789E+02  0.69267869212E+02  0.00000000000E+00 0.  1.
         21    1    1    2  504  505  0.19201297222E+03 -0.11903069708E+03  0.45349603783E+02  0.23042108174E+03  0.00000000000E+00 0.  1.
         21    1    1    2  505  501 -0.10744803722E+03  0.54431735128E+02  0.10946312741E+03  0.16275770567E+03  0.00000000000E+00 0.  1.
          1    1    1    2  501    0 -0.12150055541E+03  0.11616606088E+03  0.21903145929E+03  0.27610092145E+03  0.00000000000E+00 0. -1.
<scales pt_clust_3="47.35096" pt_clust_4="47.35096" pt_clust_5="47.63796" pt_clust_6="291.01237"></scales>
<clustering>
<clus scale="   47.351">  3  4 -1 -1</clus>
<clus scale="   47.638">  5  6 -1 -1</clus>
<clus scale="  291.012">  1  5  2 -1</clus>
<clus scale="  299.177">  2  3  1 -1</clus>
</clustering>
</event>
<event>
 6    0  0.1361744E+002  0.6343632E+03  0.7546771E-02  0.9836571E-01
         21   -1    0    0  505  502  0.00000000000E+00  0.00000000000E+00  0.38217042728E+03  0.38217042728E+03  0.00000000000E+00 0.  1.
          1   -1    0    0  503    0 -0.00000000000E+00 -0.00000000000E+00 -0.17183070172E+04  0.17183070172E+04  0.00000000000E+00 0.  1.
         21    1    1    2  503  502  0.42648757999E+03  0.27353560571E+03 -0.19279609227E+03  0.54211042848E+03  0.00000000000E+00 0.  1.
         21    1    1    2  504  501 -0.69802502798E+02 -0.13063759674E+03 -0.31501215107E+03  0.34809657626E+03  0.00000000000E+00 0. -1.
         21    1    1    2  505  504  0.14851931990E+03  0.57875158108E+01  0.73595040537E+02  0.16585449561E+03  0.00000000000E+00 0.  1.
          1    1    1    2  501    0 -0.50520439709E+03 -0.14868552478E+03 -0.90192338712E+03  0.10444159441E+04  0.00000000000E+00 0.  1.
<scales pt_clust_3="594.06402" pt_clust_4="117.99742" pt_clust_5="148.63204" pt_clust_6="117.99742"></scales>
<clustering>
<clus scale="  117.997">  4  6 -1 -1</clus>
<clus scale="  148.632">  1  5  2 -1</clus>
<clus scale="  594.064">  1  3  2 -1</clus>
<clus scale="  148.632">  1  3  2 -1</clus>
</clustering>
</event>
<event>
 6    0  0.1361744E+002  0.7377147E+02  0.7546771E-02  0.1347718E+00
         21   -1    0    0  505  502  0.00000000000E+00  0.00000000000E+00  0.69477408898E+03  0.69477408898E+03  0.00000000000E+00 0. -1.
          2   -1    0    0  504    0 -0.00000000000E+00 -0.00000000000E+00 -0.99611174043E+03  0.99611174043E+03  0.00000000000E+00 0. -1.
         21    1    1    2  503  502 -0.85991803431E+01 -0.28995672275E+02  0.46130893158E+01  0.30593716778E+02  0.00000000000E+00 0.  1.
         21    1    1    2  504  503 -0.58925767796E+01 -0.89497805873E+02 -0.47661617859E+03  0.48498202174E+03  0.00000000000E+00 0.  1.
         21    1    1    2  505  501  0.53420131251E+02  0.59552804253E+02  0.66810633715E+03  0.67287913079E+03  0.00000000000E+00 0. -1.
          2    1    1    2  501    0 -0.38928374128E+02  0.58940673896E+02 -0.49744089932E+03  0.50243096011E+03  0.00000000000E+00 0. -1.
<scales pt_clust_3="30.24392" pt_clust_4="73.77147" pt_clust_5="54.47772" pt_clust_6="14000.00000"></scales>
<clustering>
<clus scale="   30.244">  1  3  2 -1</clus>
<clus scale="   54.478">  1  5  2 -1</clus>
<clus scale="   73.771">  1  4  2 -1</clus>
<clus scale="   30.244">  1  3  2 -1</clus>
</clustering>
</event>
<event>
 6    0  0.1361744E+002  0.9578751E+02  0.7546771E-02  0.1289412E+00
         21   -1    0    0  503  502  0.00000000000E+00  0.00000000000E+00  0.12556138646E+04  0.12556138646E+04  0.00000000000E+00 0. -1.
         -2   -1    0    0    0  501 -0.00000000000E+00 -0.00000000000E+00 -0.11072445542E+04  0.11072445542E+04  0.00000000000E+00 0. -1.
         21    1    1    2  503  501 -0.35623598870E+02 -0.92883878142E+02  0.11747462948E+04  0.11789509374E+04  0.00000000000E+00 0. -1.
         21    1    1    2  504  502 -0.15334946430E+02  0.71994462140E+02  0.52732172461E+02  0.90548579080E+02  0.00000000000E+00 0. -1.
         21    1    1    2  505  504  0.72990131500E+02 -0.27065794902E-01 -0.18710890671E+03  0.20084148724E+03  0.00000000000E+00 0. -1.
         -2    1    1    2    0  505 -0.22031586199E+02  0.20916481797E+02 -0.89200025018E+03  0.89251741514E+03  0.00000000000E+00 0. -1.
<scales pt_clust_3="14000.00000" pt_clust_4="95.78751" pt_clust_5="56.35597" pt_clust_6="30.37910"></scales>
<clustering>
<clus scale="   30.379">  2  6  1 -1</clus>
<clus scale="   56.356">  2  5  1 -1</clus>
<clus scale="   95.788">  2  4  1 -1</clus>
<clus scale="   95.788">  1  3  2 -1</clus>
</clustering>
</event>
<event>
 6    0  0.1361744E+002  0.1084700E+03  0.7546771E-02  0.1263430E+00
         -3   -1    0    0    0  501 -0.00000000000E+00  0.00000000000E+00  0.65735692555E+02  0.65735692555E+02  0.00000000000E+00 0. -1.
         21   -1    0    0  505  502  0.00000000000E+00 -0.00000000000E+00 -0.66459222649E+03  0.66459222649E+03  0.00000000000E+00 0. -1.
         21    1    1    2  503  501  0.11926955634E+02  0.35779639908E+02 -0.46832201816E+02  0.60130608092E+02  0.00000000000E+00 0. -1.
         21    1    1    2  504  502  0.45137876283E+02 -0.69549222315E+02 -0.23203380260E+03  0.24640253194E+03  0.00000000000E+00 0.  1.
         21    1    1    2  505  503 -0.12539041352E+01 -0.50937037685E+02 -0.31828799363E+03  0.32234050470E+03  0.00000000000E+00 0. -1.
         -3    1    1    2    0  504 -0.55810927782E+02  0.84706620093E+02 -0.17025358970E+01  0.10145427431E+03  0.00000000000E+00 0. -1.
<scales pt_clust_3="37.71518" pt_clust_4="14000.00000" pt_clust_5="49.71722" pt_clust_6="108.47003"></scales>
<clustering>
<clus scale="   37.715">  1  3  2 -1</clus>
<clus scale="   49.717">  2  5  1 -1</clus>
<clus scale="  108.470">  1  6  2 -1</clus>
<clus scale="   49.717">  2  3  1 -1</clus>
</clustering>
</event>
<event>
 6    0  0.1361744E+002  0.7445647E+02  0.7546771E-02  0.1345562E+00
          2   -1    0    0  503    0 -0.00000000000E+00  0.00000000000E+00  0.18879147465E+04  0.18879147465E+04  0.00000000000E+00 0.  1.
         21   -1    0    0  505  502  0.00000000000E+00 -0.00000000000E+00 -0.44568283055E+03  0.44568283055E+03  0.00000000000E+00 0. -1.
         21    1    1    2  503  504  0.15698659430E+02 -0.50416148432E+02  0.16533661372E+03  0.17356391263E+03  0.00000000000E+00 0.  1.
         21    1    1    2  504  502 -0.91866200630E+02 -0.26719220264E+02  0.48428756548E+02  0.10723180503E+03  0.00000000000E+00 0. -1.
         21    1    1    2  505  501  0.72829617292E+02 -0.12816061314E+02 -0.40760366074E+03  0.41425734614E+03  0.00000000000E+00 0. -1.
          2    1    1    2  501    0  0.33379239081E+01  0.89951430010E+02  0.16360702064E+04  0.16385445132E+04  0.00000000000E+00 0.  1.
<scales pt_clust_3="52.80375" pt_clust_4="14000.00000" pt_clust_5="74.45647" pt_clust_6="45.73496"></scales>
<clustering>
<clus scale="   52.804">  1  3  2 -1</clus>
<clus scale="   45.735">  1  6  2 -1</clus>
<clus scale="   74.456">  2  5  1 -1</clus>
<clus scale="   74.456">  2  3  1 -1</clus>
</clustering>
</event>
<event>
 6    0  0.1361744E+002  0.1425670E+03  0.7546771E-02  0.1209916E+00
          1   -1    0    0  502    0 -0.00000000000E+00  0.00000000000E+00  0.10039812396E+04  0.10039812396E+04  0.00000000000E+00 0. -1.
         21   -1    0    0  503  502  0.00000000000E+00 -0.00000000000E+00 -0.19815774294E+04  0.19815774294E+04  0.00000000000E+00 0. -1.
         21    1    1    2  503  505 -0.80467010640E+01 -0.43864198248E+02 -0.11259256651E+04  0.11268085111E+04  0.00000000000E+00 0. -1.
         21    1    1    2  504  501 -0.23018139423E+01  0.57885012834E+02  0.31311561289E+03  0.31842952140E+03  0.00000000000E+00 0. -1.
         21    1    1    2  505  504  0.43951997634E+02 -0.88507351353E+02 -0.84724423013E+03  0.85298775772E+03  0.00000000000E+00 0. -1.
          1    1    1    2  501    0 -0.33603482628E+02  0.74486536768E+02  0.68245809256E+03  0.68733287882E+03  0.00000000000E+00 0. -1.
<scales pt_clust_3="44.59616" pt_clust_4="33.46368" pt_clust_5="136.91514" pt_clust_6="33.46368"></scales>
<clustering>
<clus scale="   33.464">  4  6 -1 -1</clus>
<clus scale="   44.596">  2  3  1 -1</clus>
<clus scale="  136.915">  2  5  1 -1</clus>
<clus scale="   44.596">  2  3  1 -1</clus>
</clustering>
</event>
<event>
 6    0  0.1361744E+002  0.1171470E+03  0.7546771E-02  0.1247879E+00
         21   -1    0    0  503  502  0.00000000000E+00  0.00000000000E+00  0.32350163261E+03  0.32350163261E+03  0.00000000000E+00 0.  1.
         -1   -1    0    0    0  501 -0.00000000000E+00 -0.00000000000E+00 -0.12941382272E+04  0.12941382272E+04  0.00000000000E+00 0.  1.
         21    1    1    2  503  504  0.49485864357E+02 -0.11963385284E+03 -0.30210847551E+03  0.32868014923E+03  0.00000000000E+00 0.  1.
         21    1    1    2  504  501 -0.10458481362E+02  0.29011063546E+02 -0.71933804778E+02  0.78265534626E+02  0.00000000000E+00 0. -1.
         21    1    1    2  505  502  0.70782167319E+02  0.95586840194E+02  0.29201658671E+03  0.31531039650E+03  0.00000000000E+00 0.  1.
         -1    1    1    2    0  505 -0.10980955031E+03 -0.49640508972E+01 -0.88861090105E+03  0.89538377951E+03  0.00000000000E+00 0.  1.
<scales pt_clust_3="14000.00000" pt_clust_4="30.83864" pt_clust_5="117.14701" pt_clust_6="118.58287"></scales>
<clustering>
<clus scale="   30.839">  2  4  1 -1</clus>
<clus scale="  118.583">  2  6  1 -1</clus>
<clus scale="  117.147">  1  5  2 -1</clus>
<clus scale="  117.147">  1  3  2 -1</clus>
</clustering>
</event>
<event>
 6    0  0.1361744E+002  0.1041349E+03  0.7546771E-02  0.1271833E+00
         21   -1    0    0  504  502  0.00000000000E+00  0.00000000000E+00  0.21316760611E+03  0.21316760611E+03  0.00000000000E+00 0. -1.
         -3   -1    0    0    0  501 -0.00000000000E+00 -0.00000000000E+00 -0.47577369118E+03  0.47577369118E+03  0.00000000000E+00 0.  1.
         21    1    1    2  503  505  0.65039112949E+02 -0.52618483560E+02  0.14330229638E+03  0.16593474372E+03  0.00000000000E+00 0. -1.
         21    1    1    2  504  501  0.28078919197E+02  0.24097079924E+02 -0.12058795092E+02  0.38916699542E+02  0.00000000000E+00 0. -1.
         21    1    1    2  505  502 -0.19615071619E+02 -0.46491487438E+02  0.22099528330E+02  0.55087190809E+02  0.00000000000E+00 0. -1.
         -3    1    1    2    0  503 -0.73502960528E+02  0.75012891074E+02 -0.41594911470E+03  0.42900266322E+03  0.00000000000E+00 0.  1.
<scales pt_clust_3="104.13495" pt_clust_4="37.00128" pt_clust_5="44.17639" pt_clust_6="14000.00000"></scales>
<clustering>
<clus scale="   37.001">  1  4  2 -1</clus>
<clus scale="   44.176">  1  5  2 -1</clus>
<clus scale="  104.135">  1  3  2 -1</clus>
<clus scale="   37.001">  1  3  2 -1</clus>
</clustering>
</event>
<event>
 6    0  0.1361744E+002  0.1204211E+03  0.7546771E-02  0.1242404E+00
         21   -1    0    0  504  502  0.00000000000E+00  0.00000000000E+00  0.26827459205E+03  0.26827459205E+03  0.00000000000E+00 0. -1.
          2   -1    0    0  503    0 -0.00000000000E+00 -0.00000000000E+00 -0.38186219046E+04  0.38186219046E+04  0.00000000000E+00 0. -1.
         21    1    1    2  503  502 -0.16303222585E+02  0.28346230276E+02 -0.24298842756E+03  0.24517887300E+03  0.00000000000E+00 0.  1.
         21    1    1    2  504  505  0.90835702564E+02 -0.48616342000E+01  0.13495324585E+03  0.16274869865E+03  0.00000000000E+00 0. -1.
         21    1    1    2  505  501 -0.11482952757E+02  0.96642962213E+02  0.96794940681E+02  0.13726245259E+03  0.00000000000E+00 0.  1.
          2    1    1    2  501    0 -0.63049527222E+02 -0.12012755829E+03 -0.35391070716E+04  0.35417064725E+04  0.00000000000E+00 0. -1.
<scales pt_clust_3="32.70021" pt_clust_4="90.89659" pt_clust_5="14000.00000" pt_clust_6="120.42108"></scales>
<clustering>
<clus scale="   32.700">  2  3  1 -1</clus>
<clus scale="   90.897">  1  4  2 -1</clus>
<clus scale="  120.421">  2  6  1 -1</clus>
<clus scale="   90.897">  1  3  2 -1</clus>
</clustering>
</event>
<event>
 6    0  0.1361744E+002  0.8936459E+02  0.7546771E-02  0.1304398E+00
          2   -1    0    0  504    0 -0.00000000000E+00  0.00000000000E+00  0.73156854312E+03  0.73156854312E+03  0.00000000000E+00 0. -1.
         21   -1    0    0  503  502  0.00000000000E+00 -0.00000000000E+00 -0.31040623688E+02  0.31040623688E+02  0.00000000000E+00 0.  1.
         21    1    1    2  503  501  0.91112954770E+02 -0.41312719261E+02  0.22487169643E+03  0.24612109043E+03  0.00000000000E+00 0. -1.
         21    1    1    2  504  505 -0.41642512566E+02 -0.30391526225E+02  0.19762890902E+03  0.20424233009E+03  0.00000000000E+00 0.  1.
         21    1    1    2  505  502 -0.69760894779E+02  0.48021480682E+02  0.97945281192E+02  0.12948329296E+03  0.00000000000E+00 0.  1.
          2    1    1    2  501    0  0.20290452575E+02  0.23682764804E+02  0.18008203279E+03  0.18276245333E+03  0.00000000000E+00 0. -1.
<scales pt_clust_3="14000.00000" pt_clust_4="40.55246" pt_clust_5="89.36459" pt_clust_6="31.18615"></scales>
<clustering>
<clus scale="   31.186">  1  6  2 -1</clus>
<clus scale="   40.552">  1  4  2 -1</clus>
<clus scale="   89.365">  2  5  1 -1</clus>
<clus scale="   89.365">  2  3  1 -1</clus>
</clustering>
</event>
<event>
 6    0  0.1361744E+002  0.1655786E+03  0.7546771E-02  0.1182539E+00
         -4   -1    0    0    0  501 -0.00000000000E+00  0.00000000000E+00  0.24907061666E+03  0.24907061666E+03  0.00000000000E+00 0.  1.
         21   -1    0    0  504  502  0.00000000000E+00 -0.00000000000E+00 -0.10752984327E+03  0.10752984327E+03  0.00000000000E+00 0. -1.
         21    1    1    2  503  501  0.57555928577E+02 -0.17624525919E+01 -0.51131991595E+01  0.57809479838E+02  0.00000000000E+00 0. -1.
         21    1    1    2  504  503  0.94307656676E+02 -0.64948150313E+01  0.47497776771E+02  0.10579298430E+03  0.00000000000E+00 0. -1.
         21    1    1    2  505  502 -0.21467617389E+02  0.26268654302E+02  0.21525263068E+02  0.40177577644E+02  0.00000000000E+00 0. -1.
         -4    1    1    2    0  505 -0.13039596786E+03 -0.18011386679E+02  0.77630932710E+02  0.15282041813E+03  0.00000000000E+00 0.  1.
<scales pt_clust_3="33.46580" pt_clust_4="158.01682" pt_clust_5="33.23368" pt_clust_6="33.23368"></scales>
<clustering>
<clus scale="   33.234">  5  6 -1 -1</clus>
<clus scale="   33.466">  3  4 -1 -1</clus>
<clus scale="  158.017">  2  3  1 -1</clus>
<clus scale="  158.017">  2  3  1 -1</clus>
</clustering>
</event>
<event>
 6    0  0.1361744E+002  0.1115783E+03  0.7546771E-02  0.1257675E+00
          1   -1    0    0  503    0 -0.00000000000E+00  0.00000000000E+00  0.43992379266E+03  0.43992379266E+03  0.00000000000E+00 0.  1.
         21   -1    0    0  505  502  0.00000000000E+00 -0.00000000000E+00 -0.24958735100E+04  0.24958735100E+04  0.00000000000E+00 0. -1.
         21    1    1    2  503  504  0.13045639902E+03 -0.87257722278E+02  0.27577585932E+03  0.31730916584E+03  0.00000000000E+00 0.  1.
         21    1    1    2  504  502 -0.42802087962E+02  0.18885367595E+02 -0.22645591500E+04  0.22650423439E+04  0.00000000000E+00 0. -1.
         21    1    1    2  505  501 -0.42441451600E+01  0.48355869921E+02 -0.19419375998E+03  0.20016872718E+03  0.00000000000E+00 0. -1.
          1    1    1    2  501    0 -0.83410165901E+02  0.20016484762E+02  0.12702733338E+03  0.15327706568E+03  0.00000000000E+00 0.  1.
<scales pt_clust_3="14000.00000" pt_clust_4="46.78329" pt_clust_5="76.27985" pt_clust_6="111.57829"></scales>
<clustering>
<clus scale="   46.783">  2  4  1 -1</clus>
<clus scale="   76.280">  2  5  1 -1</clus>
<clus scale="  111.578">  1  6  2 -1</clus>
<clus scale="   46.783">  2  3  1 -1</clus>
</clustering>
</event>
<event>
 6    0  0.1361744E+002  0.1570716E+03  0.7546771E-02  0.1192043E+00
         21   -1    0    0  505  502  0.00000000000E+00  0.00000000000E+00  0.11185404799E+03  0.11185404799E+03  0.00000000000E+00 0. -1.
          1   -1    0    0  502    0 -0.00000000000E+00 -0.00000000000E+00 -0.19122733635E+04  0.19122733635E+04  0.00000000000E+00 0.  1.
         21    1    1    2  503  501  0.15795718728E+03 -0.14983486363E+03 -0.98471396721E+03  0.10084951941E+04  0.00000000000E+00 0.  1.
         21    1    1    2  504  503  0.12113071229E+02  0.36481069813E+02  0.19018124105E+02  0.42886874376E+02  0.00000000000E+00 0. -1.
         21    1    1    2  505  504 -0.43669514848E+02  0.65800655336E+02  0.39396529356E+02  0.88254400996E+02  0.00000000000E+00 0. -1.
          1    1    1    2  501    0 -0.12640074366E+03  0.47553138481E+02 -0.87412000181E+03  0.88449094203E+03  0.00000000000E+00 0.  1.
<scales pt_clust_3="14000.00000" pt_clust_4="33.66497" pt_clust_5="117.41279" pt_clust_6="157.07158"></scales>
<clustering>
<clus scale="   33.665">  4  5 -1 -1</clus>
<clus scale="  117.413">  1  4  2 -1</clus>
<clus scale="  157.072">  2  6  1 -1</clus>
<clus scale="  117.413">  1  3  2 -1</clus>
</clustering>
</event>
<event>
 6    0  0.1361744E+002  0.1700448E+03  0.7546771E-02  0.1177801E+00
         21   -1    0    0  504  502  0.00000000000E+00  0.00000000000E+00  0.48642334798E+03  0.48642334798E+03  0.00000000000E+00 0. -1.
          2   -1    0    0  503    0 -0.00000000000E+00 -0.00000000000E+00 -0.83385054595E+03  0.83385054595E+03  0.00000000000E+00 0.  1.
         21    1    1    2  503  502 -0.27696571571E+02  0.25078925374E+02 -0.34543604240E+02  0.50885294227E+02  0.00000000000E+00 0. -1.
         21    1    1    2  504  505  0.16682532606E+02 -0.67911659425E+02  0.27097526815E+03  0.27985334790E+03  0.00000000000E+00 0. -1.
         21    1    1    2  505  501  0.18636024559E+02 -0.91069913952E+02  0.18607760927E+03  0.20800458483E+03  0.00000000000E+00 0. -1.
          2    1    1    2  501    0 -0.76219855935E+01  0.13390264800E+03 -0.76993647116E+03  0.78153066697E+03  0.00000000000E+00 0.  1.
<scales pt_clust_3="37.36379" pt_clust_4="44.14689" pt_clust_5="44.14689" pt_clust_6="162.26439"></scales>
<clustering>
<clus scale="   37.364">  2  3  1 -1</clus>
<clus scale="   44.147">  4  5 -1 -1</clus>
<clus scale="  162.264">  2  6  1 -1</clus>
<clus scale="  170.045">  1  3  2 -1</clus>
</clustering>
</event>
<event>
 6    0  0.1361744E+002  0.1153713E+03  0.7546771E-02  0.1250934E+00
          2   -1    0    0  504    0 -0.00000000000E+00  0.00000000000E+00  0.97567855177E+03  0.97567855177E+03  0.00000000000E+00 0.  1.
         21   -1    0    0  503  502  0.00000000000E+00 -0.00000000000E+00 -0.47680666294E+03  0.47680666294E+03  0.00000000000E+00 0. -1.
         21    1    1    2  503  505 -0.10029671553E+02  0.51306505767E+02 -0.34385730074E+03  0.34780856102E+03  0.00000000000E+00 0. -1.
         21    1    1    2  504  502  0.40654468355E+02 -0.65411644009E+01  0.10475569303E+02  0.42488941869E+02  0.00000000000E+00 0. -1.
         21    1    1    2  505  501  0.80147167594E+02 -0.79207478796E+01 -0.96746454387E+02  0.12588162359E+03  0.00000000000E+00 0. -1.
          2    1    1    2  501    0 -0.11077196440E+03 -0.36844593487E+02  0.92900007465E+03  0.93630608824E+03  0.00000000000E+00 0.  1.
<scales pt_clust_3="50.71699" pt_clust_4="41.17733" pt_clust_5="115.37126" pt_clust_6="14000.00000"></scales>
<clustering>
<clus scale="   41.177">  2  4  1 -1</clus>
<clus scale="   50.717">  2  3  1 -1</clus>
<clus scale="  115.371">  2  5  1 -1</clus>
<clus scale="   41.177">  2  3  1 -1</clus>
</clustering>
</event>
<event>
 6    0  0.1361744E+002  0.1595630E+03  0.7546771E-02  0.1189191E+00
          2   -1    0    0  502    0 -0.00000000000E+00  0.00000000000E+00  0.61105123851E+03  0.61105123851E+03  0.00000000000E+00 0.  1.
         21   -1    0    0  505  502  0.00000000000E+00 -0.00000000000E+00 -0.12584391354E+03  0.12584391354E+03  0.00000000000E+00 0.  1.
         21    1    1    2  503  501 -0.72672954072E+01 -0.88910178661E+02  0.27323815878E+03  0.28743160033E+03  0.00000000000E+00 0.  1.
         21    1    1    2  504  503  0.41985246514E+01  0.54034279433E+02  0.10849231986E+02  0.55272387299E+02  0.00000000000E+00 0. -1.
         21    1    1    2  505  504  0.27938686823E+02  0.86136020560E+02 -0.71689266254E+02  0.11549603957E+03  0.00000000000E+00 0.  1.
          2    1    1    2  501    0 -0.24869916068E+02 -0.51260121331E+02  0.27280920046E+03  0.27869512486E+03  0.00000000000E+00 0.  1.
<scales pt_clust_3="32.47483" pt_clust_4="53.48615" pt_clust_5="53.48615" pt_clust_6="149.43812"></scales>
<clustering>
<clus scale="   32.475">  3  6 -1 -1</clus>
<clus scale="   53.486">  4  5 -1 -1</clus>
<clus scale="  149.438">  1  3  2 -1</clus>
<clus scale="  159.563">  2  3  1 -1</clus>
</clustering>
</event>
<event>
 6    0  0.1361744E+002  0.8476970E+02  0.7546771E-02  0.1316036E+00
          2   -1    0    0  503    0 -0.00000000000E+00  0.00000000000E+00  0.80671932463E+03  0.80671932463E+03  0.00000000000E+00 0.  1.
         21   -1    0    0  504  502  0.00000000000E+00 -0.00000000000E+00 -0.36854494991E+03  0.36854494991E+03  0.00000000000E+00 0.  1.
         21    1    1    2  503  505 -0.33189712861E+02  0.14377096022E+01  0.22711440609E+03  0.22953121248E+03  0.00000000000E+00 0.  1.
         21    1    1    2  504  501  0.80796230547E+01  0.10921038260E+03 -0.27774917478E+03  0.29855785380E+03  0.00000000000E+00 0.  1.
         21    1    1    2  505  502  0.16720744209E+01 -0.58634135715E+02 -0.66654457856E+02  0.88789495190E+02  0.00000000000E+00 0.  1.
          2    1    1    2  501    0  0.23438015386E+02 -0.52013956484E+02  0.55546360126E+03  0.55838571307E+03  0.00000000000E+00 0.  1.
<scales pt_clust_3="33.22084" pt_clust_4="14000.00000" pt_clust_5="84.76970" pt_clust_6="51.34142"></scales>
<clustering>
<clus scale="   33.221">  1  3  2 -1</clus>
<clus scale="   51.341">  1  6  2 -1</clus>
<clus scale="   84.770">  1  5  2 -1</clus>
<clus scale="   84.770">  2  3  1 -1</clus>
</clustering>
</event>
<event>
 6    0  0.1361744E+002  0.2064963E+03  0.7546771E-02  0.1144371E+00
          2   -1    0    0  504    0 -0.00000000000E+00  0.00000000000E+00  0.22118858511E+04  0.22118858511E+04  0.00000000000E+00 0.  1.
         21   -1    0    0  503  502  0.00000000000E+00 -0.00000000000E+00 -0.37331304288E+02  0.37331304288E+02  0.00000000000E+00 0.  1.
         21    1    1    2  503  505 -0.38356758163E+02 -0.25761938076E+02  0.15401228793E+03  0.16079397745E+03  0.00000000000E+00 0. -1.
         21    1    1    2  504  502 -0.93158519107E+02  0.16692927176E+03  0.30218846618E+03  0.35757762869E+03  0.00000000000E+00 0.  1.
         21    1    1    2  505  501  0.62723542237E+02 -0.10940969782E+03  0.12570958049E+04  0.12634059472E+04  0.00000000000E+00 0.  1.
          2    1    1    2  501    0  0.68791735034E+02 -0.31757635865E+02  0.46125798781E+03  0.46743960205E+03  0.00000000000E+00 0.  1.
<scales pt_clust_3="46.20518" pt_clust_4="191.77763" pt_clust_5="58.43001" pt_clust_6="58.43001"></scales>
<clustering>
<clus scale="   46.205">  2  3  1 -1</clus>
<clus scale="   58.430">  5  6 -1 -1</clus>
<clus scale="  191.778">  2  4  1 -1</clus>
<clus scale="   46.205">  2  3  1 -1</clus>
</clustering>
</event>
<event>
 6    0  0.1361744E+002  0.1072762E+03  0.7546771E-02  0.1265699E+00
         21   -1    0    0  505  502  0.00000000000E+00  0.00000000000E+00  0.97285264846E+02  0.97285264846E+02  0.00000000000E+00 0. -1.
         -1   -1    0    0    0  501 -0.00000000000E+00 -0.00000000000E+00 -0.11304202070E+04  0.11304202070E+04  0.00000000000E+00 0.  1.
         21    1    1    2  503  501  0.72211940936E+02 -0.35164190147E+02 -0.56675507752E+02  0.98301565915E+02  0.00000000000E+00 0. -1.
         21    1    1    2  504  502 -0.12667242922E+02  0.36710636107E+02  0.44172004570E+02  0.58815778788E+02  0.00000000000E+00 0. -1.
         21    1    1    2  505  503  0.34366929326E+02 -0.23133402667E+02  0.38305816705E+01  0.41604248655E+02  0.00000000000E+00 0. -1.
         -1    1    1    2    0  504 -0.93911627339E+02  0.21586956706E+02 -0.10244620206E+04  0.10289838785E+04  0.00000000000E+00 0.  1.
<scales pt_clust_3="32.30544" pt_clust_4="38.83465" pt_clust_5="32.30544" pt_clust_6="97.38991"></scales>
<clustering>
<clus scale="   32.305">  3  5 -1 -1</clus>
<clus scale="   38.835">  1  4  2 -1</clus>
<clus scale="   97.390">  2  6  1 -1</clus>
<clus scale="   38.835">  1  3  2 -1</clus>
</clustering>
</event>
<event>
 6    0  0.1361744E+002  0.1126266E+03  0.7546771E-02  0.1255782E+00
          2   -1    0    0  503    0 -0.00000000000E+00  0.00000000000E+00  0.72806698505E+03  0.72806698505E+03  0.00000000000E+00 0. -1.
         21   -1    0    0  504  502  0.00000000000E+00 -0.00000000000E+00 -0.30518610571E+03  0.30518610571E+03  0.00000000000E+00 0.  1.
         21    1    1    2  503  505 -0.32153534206E+02 -0.11391038059E+02  0.30811495215E+02  0.45966876633E+02  0.00000000000E+00 0.  1.
         21    1    1    2  504  501  0.86055584173E+02  0.72726668845E+02 -0.27039940540E+03  0.29293441309E+03  0.00000000000E+00 0.  1.
         21    1    1    2  505  502  0.45947591274E+02 -0.89001577459E+01  0.39458458991E+02  0.61215716428E+02  0.00000000000E+00 0. -1.
          2    1    1    2  501    0 -0.99849641241E+02 -0.52435473040E+02  0.62301033053E+03  0.63313608461E+03  0.00000000000E+00 0. -1.
<scales pt_clust_3="34.11166" pt_clust_4="112.62657" pt_clust_5="44.67365" pt_clust_6="14000.00000"></scales>
<clustering>
<clus scale="   34.112">  1  3  2 -1</clus>
<clus scale="   44.674">  1  5  2 -1</clus>
<clus scale="  112.627">  2  4  1 -1</clus>
<clus scale="  112.627">  2  3  1 -1</clus>
</clustering>
</event>
<event>
 6    0  0.1361744E+002  0.1124351E+03  0.7546771E-02  0.1256126E+00
         -4   -1    0    0    0  501 -0.00000000000E+00  0.00000000000E+00  0.62816172650E+03  0.62816172650E+03  0.00000000000E+00 0. -1.
         21   -1    0    0  503  502  0.00000000000E+00 -0.00000000000E+00 -0.16279656363E+03  0.16279656363E+03  0.00000000000E+00 0.  1.
         21    1    1    2  503  501  0.59606839600E+02 -0.87995872041E+01 -0.78843337758E+02  0.99230438732E+02  0.00000000000E+00 0.  1.
         21    1    1    2  504  505  0.67535168639E+02  0.25321184974E+02  0.81813416152E+02  0.10906693575E+03  0.00000000000E+00 0. -1.
         21    1    1    2  505  502  0.45500679706E+01  0.33274409014E+02 -0.44968201467E+02  0.56125115206E+02  0.00000000000E+00 0.  1.
         -4    1    1    2    0  504 -0.13169207621E+03 -0.49796006784E+02  0.50736328594E+03  0.52653580044E+03  0.00000000000E+00 0. -1.
<scales pt_clust_3="65.61858" pt_clust_4="14000.00000" pt_clust_5="33.58406" pt_clust_6="112.43511"></scales>
<clustering>
<clus scale="   33.584">  2  5  1 -1</clus>
<clus scale="   65.619">  2  3  1 -1</clus>
<clus scale="  112.435">  1  6  2 -1</clus>
<clus scale="   33.584">  2  3  1 -1</clus>
</clustering>
</event>
<event>
 6    0  0.1361744E+002  0.1019595E+03  0.7546771E-02  0.1276229E+00
          1   -1    0    0  503    0 -0.00000000000E+00  0.00000000000E+00  0.79300707365E+03  0.79300707365E+03  0.00000000000E+00 0. -1.
         21   -1    0    0  501  502  0.00000000000E+00 -0.00000000000E+00 -0.19781356496E+03  0.19781356496E+03  0.00000000000E+00 0. -1.
         21    1    1    2  503  505 -0.11051758910E+03  0.26830405897E+02  0.28909409809E+03  0.31065963003E+03  0.00000000000E+00 0. -1.
         21    1    1    2  504  502  0.48171498360E+02  0.14071010888E+02 -0.11390003848E+03  0.12446567947E+03  0.00000000000E+00 0. -1.
         21    1    1    2  505  504  0.23728948493E+02  0.41974498556E+02 -0.54326202316E+02  0.72637853656E+02  0.00000000000E+00 0. -1.
          1    1    1    2  501    0  0.38617142249E+02 -0.82875915340E+02  0.47432565139E+03  0.48305747545E+03  0.00000000000E+00 0. -1.
<scales pt_clust_3="90.31485" pt_clust_4="46.38104" pt_clust_5="46.38104" pt_clust_6="91.43140"></scales>
<clustering>
<clus scale="   46.381">  4  5 -1 -1</clus>
<clus scale="   91.431">  1  6  2 -1</clus>
<clus scale="   90.315">  1  3  2 -1</clus>
<clus scale="  101.959">  2  3  1 -1</clus>
</clustering>
</event>
<event>
 6    0  0.1361744E+002  0.2934789E+03  0.7546771E-02  0.1088547E+00
         21   -1    0    0  505  502  0.00000000000E+00  0.00000000000E+00  0.96381150439E+03  0.96381150439E+03  0.00000000000E+00 0.  1.
          1   -1    0    0  504    0 -0.00000000000E+00 -0.00000000000E+00 -0.44401851171E+03  0.44401851171E+03  0.00000000000E+00 0. -1.
         21    1    1    2  503  502  0.37017759382E+02  0.62683212070E+02  0.36051254330E+03  0.36778906110E+03  0.00000000000E+00 0. -1.
         21    1    1    2  504  503  0.17094519047E+03  0.12080453713E+03  0.53008489757E+03  0.56991753172E+03  0.00000000000E+00 0.  1.
         21    1    1    2  505  501 -0.32885443934E+02 -0.11764859023E+02 -0.15045566171E+02  0.38029375382E+02  0.00000000000E+00 0. -1.
          1    1    1    2  501    0 -0.17507750592E+03 -0.17172289017E+03 -0.35575888202E+03  0.43209404789E+03  0.00000000000E+00 0. -1.
<scales pt_clust_3="56.60608" pt_clust_4="56.60608" pt_clust_5="30.66767" pt_clust_6="288.99843"></scales>
<clustering>
<clus scale="   30.668">  5  6 -1 -1</clus>
<clus scale="   56.606">  3  4 -1 -1</clus>
<clus scale="  288.998">  2  5  1 -1</clus>
<clus scale="  293.479">  1  3  2 -1</clus>
</clustering>
</event>
<event>
 6    0  0.1361744E+002  0.8855503E+02  0.7546771E-02  0.1306389E+00
          1   -1    0    0  504    0 -0.00000000000E+00  0.00000000000E+00  0.21058596432E+03  0.21058596432E+03  0.00000000000E+00 0. -1.
         21   -1    0    0  503  502  0.00000000000E+00 -0.00000000000E+00 -0.28052462789E+03  0.28052462789E+03  0.00000000000E+00 0.  1.
         21    1    1    2  503  501  0.36883381789E+02  0.13314832768E+01 -0.91961366689E+02  0.99091117984E+02  0.00000000000E+00 0.  1.
         21    1    1    2  504  505 -0.25596674023E+01 -0.47439355708E+02  0.74951347849E+02  0.88739782012E+02  0.00000000000E+00 0.  1.
         21    1    1    2  505  502 -0.81038405218E+01 -0.81183763586E+02 -0.12904006324E+03  0.15266896745E+03  0.00000000000E+00 0.  1.
          1    1    1    2  501    0 -0.26219873865E+02  0.12729163602E+03  0.76111418515E+02  0.15061072476E+03  0.00000000000E+00 0. -1.
<scales pt_clust_3="36.90741" pt_clust_4="47.40455" pt_clust_5="14000.00000" pt_clust_6="88.55503"></scales>
<clustering>
<clus scale="   36.907">  2  3  1 -1</clus>
<clus scale="   47.405">  1  4  2 -1</clus>
<clus scale="   88.555">  1  6  2 -1</clus>
<clus scale="   36.907">  2  3  1 -1</clus>
</clustering>
</event>
<event>
 6    0  0.1361744E+002  0.7812845E+02  0.7546771E-02  0.1334448E+00
         21   -1    0    0  504  502  0.00000000000E+00  0.00000000000E+00  0.29504903403E+03  0.29504903403E+03  0.00000000000E+00 0.  1.
         -4   -1    0    0    0  501 -0.00000000000E+00 -0.00000000000E+00 -0.25341889414E+03  0.25341889414E+03  0.00000000000E+00 0. -1.
         21    1    1    2  503  502  0.78905556755E+01  0.53092691929E+02  0.30359412868E+02  0.61666755670E+02  0.00000000000E+00 0. -1.
         21    1    1    2  504  505  0.22560892046E+02 -0.61882997002E+02  0.11534480886E+02  0.66869600097E+02  0.00000000000E+00 0. -1.
         21    1    1    2  505  501  0.38184640593E+02  0.47752692995E+02  0.19763434059E+03  0.20687609588E+03  0.00000000000E+00 0.  1.
         -4    1    1    2    0  503 -0.68636088315E+02 -0.38962387922E+02 -0.19789809445E+03  0.21305547653E+03  0.00000000000E+00 0. -1.
<scales pt_clust_3="53.67583" pt_clust_4="58.57944" pt_clust_5="78.12845" pt_clust_6="14000.00000"></scales>
<clustering>
<clus scale="   53.676">  1  3  2 -1</clus>
<clus scale="   58.579">  1  4  2 -1</clus>
<clus scale="   78.128">  1  5  2 -1</clus>
<clus scale="   53.676">  1  3  2 -1</clus>
</clustering>
</event>
<event>
 6    0  0.1361744E+002  0.6489612E+02  0.7546771E-02  0.1378363E+00
         -1   -1    0    0    0  501 -0.00000000000E+00  0.00000000000E+00  0.37386791662E+03  0.37386791662E+03  0.00000000000E+00 0.  1.
         21   -1    0    0  505  502  0.00000000000E+00 -0.00000000000E+00 -0.14620081920E+03  0.14620081920E+03  0.00000000000E+00 0.  1.
         21    1    1    2  503  502  0.60323815990E+02  0.47773563286E+02 -0.86844926312E+02  0.11603153602E+03  0.00000000000E+00 0.  1.
         21    1    1    2  504  501 -0.73078130872E+01  0.33428868970E+02  0.80658557683E+02  0.87616758330E+02  0.00000000000E+00 0.  1.
         21    1    1    2  505  504 -0.50968961153E+02  0.12951098085E+02 -0.11309950387E+02  0.53791085882E+02  0.00000000000E+00 0.  1.
         -1    1    1    2    0  503 -0.20470417498E+01 -0.94153530341E+02  0.24516341644E+03  0.26262935559E+03  0.00000000000E+00 0.  1.
<scales pt_clust_3="64.89612" pt_clust_4="34.21832" pt_clust_5="53.75826" pt_clust_6="14000.00000"></scales>
<clustering>
<clus scale="   34.218">  1  4  2 -1</clus>
<clus scale="   53.758">  2  5  1 -1</clus>
<clus scale="   64.896">  2  3  1 -1</clus>
<clus scale="   53.758">  2  3  1 -1</clus>
</clustering>
</event>
<event>
 6    0  0.1361744E+002  0.1423853E+03  0.7546771E-02  0.1210155E+00
          1   -1    0    0  505    0 -0.00000000000E+00  0.00000000000E+00  0.12387995634E+04  0.12387995634E+04  0.00000000000E+00 0.  1.
         21   -1    0    0  504  502  0.00000000000E+00 -0.00000000000E+00 -0.25867283338E+03  0.25867283338E+03  0.00000000000E+00 0. -1.
         21    1    1    2  503  501  0.59944312336E+02 -0.21393617351E+02 -0.65145457522E+02  0.91076550662E+02  0.00000000000E+00 0. -1.
         21    1    1    2  504  503  0.68416003645E+02 -0.16310601738E+02 -0.16676465630E+03  0.18098960156E+03  0.00000000000E+00 0. -1.
         21    1    1    2  505  502 -0.15104765613E+01 -0.31229909389E+02  0.12627868047E+03  0.13009186724E+03  0.00000000000E+00 0.  1.
          1    1    1    2  501    0 -0.12684983942E+03  0.68934128478E+02  0.10857581634E+04  0.10953143773E+04  0.00000000000E+00 0.  1.
<scales pt_clust_3="46.04056" pt_clust_4="46.04056" pt_clust_5="31.26642" pt_clust_6="133.91737"></scales>
<clustering>
<clus scale="   31.266">  1  5  2 -1</clus>
<clus scale="   46.041">  3  4 -1 -1</clus>
<clus scale="  133.917">  1  6  2 -1</clus>
<clus scale="  142.385">  2  3  1 -1</clus>
</clustering>
</event>
<event>
 6    0  0.1361744E+002  0.3497558E+03  0.7546771E-02  0.1062715E+00
          1   -1    0    0  503    0 -0.00000000000E+00  0.00000000000E+00  0.15626584766E+04  0.15626584766E+04  0.00000000000E+00 0. -1.
         21   -1    0    0  505  502  0.00000000000E+00 -0.00000000000E+00 -0.76387443743E+02  0.76387443743E+02  0.00000000000E+00 0.  1.
         21    1    1    2  503  504  0.12705288926E+03  0.61897152445E+02  0.40170146528E+03  0.42583771716E+03  0.00000000000E+00 0. -1.
         21    1    1    2  504  502  0.15703331677E+03  0.11377293562E+03  0.38872439386E+03  0.43440810056E+03  0.00000000000E+00 0.  1.
         21    1    1    2  505  501 -0.14774633845E+02 -0.48400973544E+02  0.79309501978E+02  0.94079440630E+02  0.00000000000E+00 0.  1.
          1    1    1    2  501    0 -0.26931157218E+03 -0.12726911452E+03  0.61653567172E+03  0.68472066197E+03  0.00000000000E+00 0. -1.
<scales pt_clust_3="51.82249" pt_clust_4="339.48465" pt_clust_5="42.76385" pt_clust_6="42.76385"></scales>
<clustering>
<clus scale="   42.764">  5  6 -1 -1</clus>
<clus scale="   51.822">  3  4 -1 -1</clus>
<clus scale="  339.485">  1  3  2 -1</clus>
<clus scale="  349.756">  2  3  1 -1</clus>
</clustering>
</event>
<event>
 6    0  0.1361744E+002  0.1749402E+03  0.7546771E-02  0.1172792E+00
         21   -1    0    0  501  502  0.00000000000E+00  0.00000000000E+00  0.27694118381E+03  0.27694118381E+03  0.00000000000E+00 0. -1.
         -1   -1    0    0    0  501 -0.00000000000E+00 -0.00000000000E+00 -0.41066143419E+03  0.41066143419E+03  0.00000000000E+00 0. -1.
         21    1    1    2  503  504 -0.87995260998E+02  0.22434287443E+02  0.82470346023E+02  0.12266956095E+03  0.00000000000E+00 0.  1.
         21    1    1    2  504  502 -0.75305514055E+02 -0.14614220189E+02  0.93597632104E+02  0.12101657991E+03  0.00000000000E+00 0.  1.
         21    1    1    2  505  503  0.22097558228E+03 -0.71163549055E+02 -0.23192205541E+03  0.32814981101E+03  0.00000000000E+00 0. -1.
         -1    1    1    2    0  505 -0.57674807224E+02  0.63343481801E+02 -0.77866173093E+02  0.11576666613E+03  0.00000000000E+00 0. -1.
<scales pt_clust_3="37.38701" pt_clust_4="37.38701" pt_clust_5="170.14516" pt_clust_6="85.66668"></scales>
<clustering>
<clus scale="   37.387">  3  4 -1 -1</clus>
<clus scale="   85.667">  2  6  1 -1</clus>
<clus scale="  170.145">  2  5  1 -1</clus>
<clus scale="  174.940">  1  3  2 -1</clus>
</clustering>
</event>
<event>
 6    0  0.1361744E+002  0.1067796E+03  0.7546771E-02  0.1266653E+00
         21   -1    0    0  505  502  0.00000000000E+00  0.00000000000E+00  0.69272114251E+02  0.69272114251E+02  0.00000000000E+00 0. -1.
          2   -1    0    0  503    0 -0.00000000000E+00 -0.00000000000E+00 -0.84638380080E+03  0.84638380080E+03  0.00000000000E+00 0. -1.
         21    1    1    2  503  504  0.28684195552E+02  0.33087331005E+02 -0.83477818774E+02  0.94266116790E+02  0.00000000000E+00 0. -1.
         21    1    1    2  504  502  0.11529011996E+03  0.16039637695E+02 -0.18316019747E+02  0.11783275570E+03  0.00000000000E+00 0. -1.
         21    1    1    2  505  501 -0.83920246445E+02 -0.14965927067E+02 -0.14081207291E+03  0.16460445503E+03  0.00000000000E+00 0. -1.
          2    1    1    2  501    0 -0.60054069063E+02 -0.34161041633E+02 -0.53450577512E+03  0.53895258753E+03  0.00000000000E+00 0. -1.
<scales pt_clust_3="43.78989" pt_clust_4="14000.00000" pt_clust_5="106.77956" pt_clust_6="41.15022"></scales>
<clustering>
<clus scale="   43.790">  2  3  1 -1</clus>
<clus scale="   41.150">  2  6  1 -1</clus>
<clus scale="  106.780">  2  5  1 -1</clus>
<clus scale="  106.780">  1  3  2 -1</clus>
</clustering>
</event>
<event>
 6    0  0.1361744E+002  0.1250677E+03  0.7546771E-02  0.1234964E+00
         21   -1    0    0  505  502  0.00000000000E+00  0.00000000000E+00  0.66112545822E+02  0.66112545822E+02  0.00000000000E+00 0.  1.
          2   -1    0    0  503    0 -0.00000000000E+00 -0.00000000000E+00 -0.18304375018E+04  0.18304375018E+04  0.00000000000E+00 0. -1.
         21    1    1    2  503  504 -0.13131649842E+03  0.83007760165E+02 -0.11607399368E+04  0.11710898820E+04  0.00000000000E+00 0. -1.
         21    1    1    2  504  502  0.49180605260E+02 -0.47243871133E+02  0.25475691790E+02  0.72799218166E+02  0.00000000000E+00 0.  1.
         21    1    1    2  505  501  0.51998933348E+02 -0.57652018720E+02 -0.12447683301E+03  0.14670421360E+03  0.00000000000E+00 0.  1.
          2    1    1    2  501    0  0.30136959811E+02  0.21888129688E+02 -0.50458387797E+03  0.50595673380E+03  0.00000000000E+00 0. -1.
<scales pt_clust_3="14000.00000" pt_clust_4="68.31661" pt_clust_5="125.06770" pt_clust_6="37.24683"></scales>
<clustering>
<clus scale="   37.247">  2  6  1 -1</clus>
<clus scale="   68.317">  1  4  2 -1</clus>
<clus scale="  125.068">  1  5  2 -1</clus>
<clus scale="   68.317">  1  3  2 -1</clus>
</clustering>
</event>
<event>
 6    0  0.1361744E+002  0.1007637E+03  0.7546771E-02  0.1278698E+00
         -2   -1    0    0    0  501 -0.00000000000E+00  0.00000000000E+00  0.16303046402E+03  0.16303046402E+03  0.00000000000E+00 0. -1.
         21   -1    0    0  503  502  0.00000000000E+00 -0.00000000000E+00 -0.45190595901E+03  0.45190595901E+03  0.00000000000E+00 0.  1.
         21    1    1    2  503  501 -0.21586182130E+02  0.26726442519E+02 -0.10719029388E+03  0.11256120598E+03  0.00000000000E+00 0.  1.
         21    1    1    2  504  505  0.13225541948E+03  0.13853066400E+02  0.34683480423E+02  0.13742760729E+03  0.00000000000E+00 0. -1.
         21    1    1    2  505  502 -0.36205417412E+02  0.66074419055E+01 -0.26276365033E+03  0.26532852556E+03  0.00000000000E+00 0.  1.
         -2    1    1    2    0  504 -0.74463819936E+02 -0.47186950825E+02  0.46394968799E+02  0.99619084203E+02  0.00000000000E+00 0. -1.
<scales pt_clust_3="34.35500" pt_clust_4="100.76374" pt_clust_5="59.47478" pt_clust_6="14000.00000"></scales>
<clustering>
<clus scale="   34.355">  2  3  1 -1</clus>
<clus scale="   59.475">  2  5  1 -1</clus>
<clus scale="  100.764">  2  4  1 -1</clus>
<clus scale="   34.355">  2  3  1 -1</clus>
</clustering>
</event>
<event>
 6    0  0.1361744E+002  0.1058808E+03  0.7546771E-02  0.1268394E+00
         21   -1    0    0  503  502  0.00000000000E+00  0.00000000000E+00  0.63701606134E+03  0.63701606134E+03  0.00000000000E+00 0. -1.
          2   -1    0    0  505    0 -0.00000000000E+00 -0.00000000000E+00 -0.48342004158E+03  0.48342004158E+03  0.00000000000E+00 0.  1.
         21    1    1    2  503  504  0.10661832906E+03 -0.25004963245E+02  0.56569490970E+03  0.57619740293E+03  0.00000000000E+00 0. -1.
         21    1    1    2  504  501 -0.52290786207E+02  0.41510565793E+02 -0.48349631198E+02  0.82432640571E+02  0.00000000000E+00 0. -1.
         21    1    1    2  505  502 -0.34890635395E+02 -0.57316587798E+02  0.24125412682E+02  0.71306263485E+02  0.00000000000E+00 0. -1.
          2    1    1    2  501    0 -0.19436907459E+02  0.40810985251E+02 -0.38787467142E+03  0.39049979593E+03  0.00000000000E+00 0.  1.
<scales pt_clust_3="105.88078" pt_clust_4="14000.00000" pt_clust_5="61.63586" pt_clust_6="45.20321"></scales>
<clustering>
<clus scale="   45.203">  2  6  1 -1</clus>
<clus scale="   61.636">  2  5  1 -1</clus>
<clus scale="  105.881">  1  3  2 -1</clus>
<clus scale="  105.881">  1  3  2 -1</clus>
</clustering>
</event>
<event>
 6    0  0.1361744E+002  0.2494520E+03  0.7546771E-02  0.1113652E+00
          2   -1    0    0  504    0 -0.00000000000E+00  0.00000000000E+00  0.47708338814E+03  0.47708338814E+03  0.00000000000E+00 0. -1.
         21   -1    0    0  503  502  0.00000000000E+00 -0.00000000000E+00 -0.63995073611E+03  0.63995073611E+03  0.00000000000E+00 0.  1.
         21    1    1    2  503  505 -0.53444420839E+01  0.18310453552E+03 -0.51027194012E+03  0.54215614620E+03  0.00000000000E+00 0.  1.
         21    1    1    2  504  502  0.10773820758E+03  0.38063281768E+02 -0.31350615648E+02  0.11848711277E+03  0.00000000000E+00 0. -1.
         21    1    1    2  505  501 -0.13424005865E+02 -0.34843776751E+02  0.19742187067E+02  0.42237976537E+02  0.00000000000E+00 0. -1.
          2    1    1    2  501    0 -0.88969759626E+02 -0.18632404053E+03  0.35901302073E+03  0.41415288875E+03  0.00000000000E+00 0. -1.
<scales pt_clust_3="238.30413" pt_clust_4="114.26432" pt_clust_5="31.35816" pt_clust_6="31.35816"></scales>
<clustering>
<clus scale="   31.358">  5  6 -1 -1</clus>
<clus scale="  114.264">  2  4  1 -1</clus>
<clus scale="  238.304">  2  3  1 -1</clus>
<clus scale="  114.264">  2  3  1 -1</clus>
</clustering>
</event>
<event>
 6    0  0.1361744E+002  0.1330575E+03  0.7546771E-02  0.1222988E+00
         21   -1    0    0  504  502  0.00000000000E+00  0.00000000000E+00  0.10246659411E+03  0.10246659411E+03  0.00000000000E+00 0.  1.
          2   -1    0    0  505    0 -0.00000000000E+00 -0.00000000000E+00 -0.18166954133E+03  0.18166954133E+03  0.00000000000E+00 0.  1.
         21    1    1    2  503  502  0.27439890868E+02  0.75144538438E+02 -0.27891562092E+02  0.84720649808E+02  0.00000000000E+00 0.  1.
         21    1    1    2  504  501 -0.16498859265E+02 -0.48147403983E+02  0.18753272353E+02  0.54240852605E+02  0.00000000000E+00 0. -1.
         21    1    1    2  505  503 -0.14755935260E+02  0.45949689517E+02 -0.49847092596E+02  0.69381872505E+02  0.00000000000E+00 0.  1.
          2    1    1    2  501    0  0.38149036560E+01 -0.72946823972E+02 -0.20217564891E+02  0.75792760522E+02  0.00000000000E+00 0.  1.
<scales pt_clust_3="41.67966" pt_clust_4="38.08653" pt_clust_5="41.67966" pt_clust_6="130.02537"></scales>
<clustering>
<clus scale="   38.087">  4  6 -1 -1</clus>
<clus scale="   41.680">  3  5 -1 -1</clus>
<clus scale="  130.025">  1  4  2 -1</clus>
<clus scale="  130.025">  1  3  2 -1</clus>
</clustering>
</event>
<event>
 6    0  0.1361744E+002  0.1385119E+03  0.7546771E-02  0.1215345E+00
         21   -1    0    0  501  502  0.00000000000E+00  0.00000000000E+00  0.88218444103E+02  0.88218444103E+02  0.00000000000E+00 0.  1.
          2   -1    0    0  503    0 -0.00000000000E+00 -0.00000000000E+00 -0.21586868326E+04  0.21586868326E+04  0.00000000000E+00 0.  1.
         21    1    1    2  503  505 -0.33579171510E+01  0.48761492297E+02 -0.31863993483E+03  0.32236682027E+03  0.00000000000E+00 0. -1.
         21    1    1    2  504  502 -0.15467227504E+02 -0.14033139266E+03  0.17283476760E+02  0.14223520472E+03  0.00000000000E+00 0.  1.
         21    1    1    2  505  504 -0.49978437531E+02  0.29748542407E+02 -0.15515948278E+03  0.16570239917E+03  0.00000000000E+00 0.  1.
          2    1    1    2  501    0  0.68803582185E+02  0.61821357953E+02 -0.16139524476E+04  0.16166008525E+04  0.00000000000E+00 0.  1.
<scales pt_clust_3="48.87698" pt_clust_4="14000.00000" pt_clust_5="60.69198" pt_clust_6="138.51186"></scales>
<clustering>
<clus scale="   48.877">  2  3  1 -1</clus>
<clus scale="   60.692">  2  5  1 -1</clus>
<clus scale="  138.512">  2  6  1 -1</clus>
<clus scale="  138.512">  1  3  2 -1</clus>
</clustering>
</event>
<event>
 6    0  0.1361744E+002  0.2880262E+03  0.7546771E-02  0.1091384E+00
         21   -1    0    0  503  502  0.00000000000E+00  0.00000000000E+00  0.95910596532E+03  0.95910596532E+03  0.00000000000E+00 0.  1.
          2   -1    0    0  504    0 -0.00000000000E+00 -0.00000000000E+00 -0.24492096019E+03  0.24492096019E+03  0.00000000000E+00 0.  1.
         21    1    1    2  503  501  0.87096114038E+01  0.11116235452E+03  0.93323925819E+02  0.14540385663E+03  0.00000000000E+00 0. -1.
         21    1    1    2  504  505 -0.24087414160E+03 -0.14860211819E+03  0.58983429994E+03  0.65422277781E+03  0.00000000000E+00 0.  1.
         21    1    1    2  505  502 -0.89776868255E+00 -0.61100809786E+02  0.12123394703E+03  0.13576370965E+03  0.00000000000E+00 0.  1.
          2    1    1    2  501    0  0.23306229888E+03  0.98540573459E+02 -0.90207167665E+02  0.26863658141E+03  0.00000000000E+00 0.  1.
<scales pt_clust_3="111.50303" pt_clust_4="58.83335" pt_clust_5="58.83335" pt_clust_6="258.70339"></scales>
<clustering>
<clus scale="   58.833">  4  5 -1 -1</clus>
<clus scale="  111.503">  1  3  2 -1</clus>
<clus scale="  258.703">  2  6  1 -1</clus>
<clus scale="  111.503">  1  3  2 -1</clus>
</clustering>
</event>
<event>
 6    0  0.1361744E+002  0.1873701E+03  0.7546771E-02  0.1160855E+00
         21   -1    0    0  503  502  0.00000000000E+00  0.00000000000E+00  0.54102346081E+03  0.54102346081E+03  0.00000000000E+00 0. -1.
          2   -1    0    0  505    0 -0.00000000000E+00 -0.00000000000E+00 -0.29333630624E+04  0.29333630624E+04  0.00000000000E+00 0.  1.
         21    1    1    2  503  501  0.14536597017E+03  0.53265304575E+02  0.48911952831E+03  0.51303642261E+03  0.00000000000E+00 0. -1.
         21    1    1    2  504  502  0.30863533527E+02  0.10911675502E+02  0.22171155892E+02  0.39537103051E+02  0.00000000000E+00 0. -1.
         21    1    1    2  505  504  0.37192809739E+02  0.22218225171E+02 -0.10308600451E+03  0.11181985044E+03  0.00000000000E+00 0. -1.
          2    1    1    2  501    0 -0.21342231344E+03 -0.86395205248E+02 -0.28005442813E+04  0.28099931471E+04  0.00000000000E+00 0.  1.
<scales pt_clust_3="187.37008" pt_clust_4="32.73564" pt_clust_5="43.59857" pt_clust_6="14000.00000"></scales>
<clustering>
<clus scale="   32.736">  1  4  2 -1</clus>
<clus scale="   43.599">  2  5  1 -1</clus>
<clus scale="  187.370">  1  3  2 -1</clus>
<clus scale="   32.736">  1  3  2 -1</clus>
</clustering>
</event>
<event>
 6    0  0.1361744E+002  0.1455595E+03  0.7546771E-02  0.1206038E+00
         -1   -1    0    0    0  501 -0.00000000000E+00  0.00000000000E+00  0.18187456955E+04  0.18187456955E+04  0.00000000000E+00 0. -1.
         21   -1    0    0  504  502  0.00000000000E+00 -0.00000000000E+00 -0.77787759434E+02  0.77787759434E+02  0.00000000000E+00 0.  1.
         21    1    1    2  503  501  0.28525252564E+02 -0.14353386076E+03  0.41603455370E+03  0.44102200522E+03  0.00000000000E+00 0.  1.
         21    1    1    2  504  503  0.54928545605E+02  0.84116729875E+02  0.40495846132E+02  0.10831750976E+03  0.00000000000E+00 0.  1.
         21    1    1    2  505  502  0.65056214895E+02 -0.10740959468E+02  0.15570421118E+02  0.67750404578E+02  0.00000000000E+00 0.  1.
         -1    1    1    2    0  505 -0.14851001306E+03  0.70158090352E+02  0.12688571151E+04  0.12794435354E+04  0.00000000000E+00 0. -1.
<scales pt_clust_3="14000.00000" pt_clust_4="124.36272" pt_clust_5="65.93693" pt_clust_6="145.55955"></scales>
<clustering>
<clus scale="   65.937">  2  5  1 -1</clus>
<clus scale="  124.363">  2  4  1 -1</clus>
<clus scale="  145.560">  1  6  2 -1</clus>
<clus scale="   65.937">  2  3  1 -1</clus>
</clustering>
</event>
<event>
 6    0  0.1361744E+002  0.1173577E+03  0.7546771E-02  0.1247521E+00
          1   -1    0    0  503    0 -0.00000000000E+00  0.00000000000E+00  0.45856054002E+02  0.45856054002E+02  0.00000000000E+00 0. -1.
         21   -1    0    0  505  502  0.00000000000E+00 -0.00000000000E+00 -0.61331943515E+03  0.61331943515E+03  0.00000000000E+00 0. -1.
         21    1    1    2  503  504 -0.13991475027E+02  0.89642258925E+02 -0.17420453142E+03  0.19641464998E+03  0.00000000000E+00 0. -1.
         21    1    1    2  504  502  0.92018982952E+01  0.49825992056E+02 -0.22338402795E+03  0.22905835143E+03  0.00000000000E+00 0. -1.
         21    1    1    2  505  501  0.84642756402E+01 -0.45454760315E+02 -0.11693872380E+03  0.12574754201E+03  0.00000000000E+00 0. -1.
          1    1    1    2  501    0 -0.36746989086E+01 -0.94013490666E+02 -0.52936097977E+02  0.10795494573E+03  0.00000000000E+00 0. -1.
<scales pt_clust_3="44.06127" pt_clust_4="44.06127" pt_clust_5="46.23612" pt_clust_6="101.47189"></scales>
<clustering>
<clus scale="   44.061">  3  4 -1 -1</clus>
<clus scale="   46.236">  2  5  1 -1</clus>
<clus scale="  101.472">  1  6  2 -1</clus>
<clus scale="   46.236">  2  3  1 -1</clus>
</clustering>
</event>
<event>
 6    0  0.1361744E+002  0.1013162E+03  0.7546771E-02  0.1277552E+00
          2   -1    0    0  505    0 -0.00000000000E+00  0.00000000000E+00  0.43982380435E+03  0.43982380435E+03  0.00000000000E+00 0.  1.
         21   -1    0    0  503  502  0.00000000000E+00 -0.00000000000E+00 -0.15180906465E+03  0.15180906465E+03  0.00000000000E+00 0.  1.
         21    1    1    2  503  501  0.13812904315E+02 -0.79361436794E+02  0.19408475309E+03  0.21013787226E+03  0.00000000000E+00 0. -1.
         21    1    1    2  504  502 -0.47433411562E+02 -0.23180990828E+02 -0.99609676579E+01  0.53726229579E+02  0.00000000000E+00 0.  1.
         21    1    1    2  505  504  0.59178345928E+02  0.12675717583E+03 -0.65707846267E+02  0.15455413068E+03  0.00000000000E+00 0.  1.
          2    1    1    2  501    0 -0.25557838682E+02 -0.24214748205E+02  0.16959880053E+03  0.17321463648E+03  0.00000000000E+00 0.  1.
<scales pt_clust_3="14000.00000" pt_clust_4="55.54019" pt_clust_5="101.31616" pt_clust_6="35.20735"></scales>
<clustering>
<clus scale="   35.207">  1  6  2 -1</clus>
<clus scale="   55.540">  2  4  1 -1</clus>
<clus scale="  101.316">  2  5  1 -1</clus>
<clus scale="   55.540">  2  3  1 -1</clus>
</clustering>
</event>
<event>
 6    0  0.1361744E+002  0.1498437E+03  0.7546771E-02  0.1200665E+00
         21   -1    0    0  504  502  0.00000000000E+00  0.00000000000E+00  0.53131149329E+02  0.53131149329E+02  0.00000000000E+00 0.  1.
          2   -1    0    0  502    0 -0.00000000000E+00 -0.00000000000E+00 -0.13792285196E+04  0.13792285196E+04  0.00000000000E+00 0.  1.
         21    1    1    2  503  505  0.26388683941E+02  0.18142003285E+02 -0.47805397642E+02  0.57539994500E+02  0.00000000000E+00 0. -1.
         21    1    1    2  504  503  0.92000992514E+02  0.52589109086E+02 -0.27162698553E+02  0.10939656855E+03  0.00000000000E+00 0.  1.
         21    1    1    2  505  501 -0.14394279359E+03 -0.39779345201E+02 -0.96252330041E+03  0.97403954127E+03  0.00000000000E+00 0.  1.
          2    1    1    2  501    0  0.25553117137E+02 -0.30951767170E+02 -0.28860597368E+03  0.29138356462E+03  0.00000000000E+00 0.  1.
<scales pt_clust_3="31.23541" pt_clust_4="31.23541" pt_clust_5="138.65255" pt_clust_6="40.13694"></scales>
<clustering>
<clus scale="   31.235">  3  4 -1 -1</clus>
<clus scale="   40.137">  2  6  1 -1</clus>
<clus scale="  138.653">  2  5  1 -1</clus>
<clus scale="  149.844">  1  3  2 -1</clus>
</clustering>
</event>
<event>
 6    0  0.1361744E+002  0.2224264E+03  0.7546771E-02  0.1132087E+00
         21   -1    0    0  504  502  0.00000000000E+00  0.00000000000E+00  0.16583101916E+03  0.16583101916E+03  0.00000000000E+00 0. -1.
          3   -1    0    0  505    0 -0.00000000000E+00 -0.00000000000E+00 -0.35196478212E+03  0.35196478212E+03  0.00000000000E+00 0. -1.
         21    1    1    2  503  502  0.94978059020E+02 -0.15127337366E+03 -0.60315427499E+02  0.18852696377E+03  0.00000000000E+00 0. -1.
         21    1    1    2  504  501  0.13935814652E+02  0.31932254892E+02 -0.10557209042E+02  0.36405088864E+02  0.00000000000E+00 0. -1.
         21    1    1    2  505  503  0.84197228513E+01 -0.44858281339E+02  0.20087094966E+02  0.49866306478E+02  0.00000000000E+00 0. -1.
          3    1    1    2  501    0 -0.11733359652E+03  0.16419940010E+03 -0.13534822138E+03  0.24299744217E+03  0.00000000000E+00 0. -1.
<scales pt_clust_3="37.32546" pt_clust_4="34.84072" pt_clust_5="37.32546" pt_clust_6="208.37275"></scales>
<clustering>
<clus scale="   34.841">  1  4  2 -1</clus>
<clus scale="   37.325">  3  5 -1 -1</clus>
<clus scale="  208.373">  2  6  1 -1</clus>
<clus scale="   34.841">  1  3  2 -1</clus>
</clustering>
</event>
<event>
 6    0  0.1361744E+002  0.1176518E+03  0.7546771E-02  0.1247022E+00
          2   -1    0    0  505    0 -0.00000000000E+00  0.00000000000E+00  0.22150383023E+04  0.22150383023E+04  0.00000000000E+00 0.  1.
         21   -1    0    0  503  502  0.00000000000E+00 -0.00000000000E+00 -0.13212951675E+04  0.13212951675E+04  0.00000000000E+00 0.  1.
         21    1    1    2  503  504  0.35227546829E+02  0.16981975617E+02 -0.68971379767E+02  0.79286939519E+02  0.00000000000E+00 0.  1.
         21    1    1    2  504  501  0.79075846257E+02 -0.10467047536E+03  0.17631410183E+03  0.21976250903E+03  0.00000000000E+00 0.  1.
         21    1    1    2  505  502 -0.15124676090E+03  0.39209883481E+01 -0.12197238986E+04  0.12290717414E+04  0.00000000000E+00 0.  1.
          2    1    1    2  501    0  0.36943367813E+02  0.83767511397E+02  0.20061243113E+04  0.20082122798E+04  0.00000000000E+00 0.  1.
<scales pt_clust_3="39.10713" pt_clust_4="14000.00000" pt_clust_5="117.65183" pt_clust_6="91.57713"></scales>
<clustering>
<clus scale="   39.107">  2  3  1 -1</clus>
<clus scale="   91.577">  1  6  2 -1</clus>
<clus scale="  117.652">  2  5  1 -1</clus>
<clus scale="   39.107">  2  3  1 -1</clus>
</clustering>
</event>
<event>
 6    0  0.1361744E+002  0.1491070E+03  0.7546771E-02  0.1201575E+00
         21   -1    0    0  503  502  0.00000000000E+00  0.00000000000E+00  0.34558729583E+03  0.34558729583E+03  0.00000000000E+00 0.  1.
          2   -1    0    0  505    0 -0.00000000000E+00 -0.00000000000E+00 -0.21196076240E+04  0.21196076240E+04  0.00000000000E+00 0.  1.
         21    1    1    2  503  501 -0.88012414304E+02 -0.51128768447E+02 -0.12477080382E+04  0.12518529005E+04  0.00000000000E+00 0.  1.
         21    1    1    2  504  502 -0.42648449251E+01  0.11573985170E+03  0.75371443140E+02  0.13818377840E+03  0.00000000000E+00 0.  1.
         21    1    1    2  505  504  0.13627361474E+03 -0.75728076412E+02  0.21036801879E+03  0.26183953667E+03  0.00000000000E+00 0.  1.
          2    1    1    2  501    0 -0.43996355515E+02  0.11116993163E+02 -0.81205175190E+03  0.81331870420E+03  0.00000000000E+00 0.  1.
<scales pt_clust_3="38.33410" pt_clust_4="115.81840" pt_clust_5="137.61102" pt_clust_6="38.33410"></scales>
<clustering>
<clus scale="   38.334">  3  6 -1 -1</clus>
<clus scale="  115.818">  1  4  2 -1</clus>
<clus scale="  137.611">  1  5  2 -1</clus>
<clus scale="  115.818">  1  3  2 -1</clus>
</clustering>
</event>
<event>
 6    0  0.1361744E+002  0.1658595E+03  0.7546771E-02  0.1182236E+00
         21   -1    0    0  503  502  0.00000000000E+00  0.00000000000E+00  0.18565962876E+03  0.18565962876E+03  0.00000000000E+00 0.  1.
         -4   -1    0    0    0  501 -0.00000000000E+00 -0.00000000000E+00 -0.67370969308E+03  0.67370969308E+03  0.00000000000E+00 0.  1.
         21    1    1    2  503  501  0.27976343754E+02 -0.31814663251E+02  0.15868829432E+02  0.45240118868E+02  0.00000000000E+00 0. -1.
         21    1    1    2  504  505  0.87983028426E+02  0.13478328361E+03  0.74466097569E+02  0.17734922193E+03  0.00000000000E+00 0.  1.
         21    1    1    2  505  502 -0.17758660310E+02  0.31286023817E+02 -0.10811946329E+01  0.35991030607E+02  0.00000000000E+00 0. -1.
         -4    1    1    2    0  504 -0.98200711871E+02 -0.13425464418E+03 -0.57730379669E+03  0.60078895043E+03  0.00000000000E+00 0.  1.
<scales pt_clust_3="35.99227" pt_clust_4="165.85948" pt_clust_5="35.97479" pt_clust_6="14000.00000"></scales>
<clustering>
<clus scale="   35.975">  1  5  2 -1</clus>
<clus scale="   35.992">  1  3  2 -1</clus>
<clus scale="  165.859">  1  4  2 -1</clus>
<clus scale="   35.975">  1  3  2 -1</clus>
</clustering>
</event>
<event>
 6    0  0.1361744E+002  0.3050159E+03  0.7546771E-02  0.1082760E+00
         21   -1    0    0  501  502  0.00000000000E+00  0.00000000000E+00  0.15583116352E+03  0.15583116352E+03  0.00000000000E+00 0. -1.
          2   -1    0    0  504    0 -0.00000000000E+00 -0.00000000000E+00 -0.17974172010E+04  0.17974172010E+04  0.00000000000E+00 0.  1.
         21    1    1    2  503  505  0.29197295291E+02  0.16242139205E+03 -0.37093726683E+02  0.16914235190E+03  0.00000000000E+00 0.  1.
         21    1    1    2  504  503 -0.28765154276E+02 -0.90647867599E+01 -0.21490356785E+03  0.21700955724E+03  0.00000000000E+00 0.  1.
         21    1    1    2  505  502  0.40446072251E+02  0.13238342925E+03  0.93015940634E+01  0.13873635700E+03  0.00000000000E+00 0. -1.
          2    1    1    2  501    0 -0.40878213265E+02 -0.28574003454E+03 -0.13988903370E+04  0.14283600984E+04  0.00000000000E+00 0.  1.
<scales pt_clust_3="43.51908" pt_clust_4="30.15965" pt_clust_5="43.51908" pt_clust_6="301.29372"></scales>
<clustering>
<clus scale="   30.160">  2  4  1 -1</clus>
<clus scale="   43.519">  3  5 -1 -1</clus>
<clus scale="  301.294">  2  6  1 -1</clus>
<clus scale="  305.016">  1  3  2 -1</clus>
</clustering>
</event>
<event>
 6    0  0.1361744E+002  0.1110027E+03  0.7546771E-02  0.1258724E+00
         21   -1    0    0  503  502  0.00000000000E+00  0.00000000000E+00  0.15134898449E+04  0.15134898449E+04  0.00000000000E+00 0. -1.
          2   -1    0    0  504    0 -0.00000000000E+00 -0.00000000000E+00 -0.78799321268E+03  0.78799321268E+03  0.00000000000E+00 0. -1.
         21    1    1    2  503  501  0.13419615790E+02 -0.90908570293E+02  0.10011583875E+04  0.10053668838E+04  0.00000000000E+00 0. -1.
         21    1    1    2  504  505 -0.14326998354E+02 -0.35276237949E+02 -0.48949554033E+02  0.62013987823E+02  0.00000000000E+00 0. -1.
         21    1    1    2  505  502  0.86265832398E+02  0.39524136046E+02  0.49408452555E+03  0.50311377397E+03  0.00000000000E+00 0.  1.
          2    1    1    2  501    0 -0.85358449834E+02  0.86660672195E+02 -0.72079672679E+03  0.73098841196E+03  0.00000000000E+00 0. -1.
<scales pt_clust_3="91.98797" pt_clust_4="38.07461" pt_clust_5="111.00274" pt_clust_6="14000.00000"></scales>
<clustering>
<clus scale="   38.075">  2  4  1 -1</clus>
<clus scale="   91.988">  1  3  2 -1</clus>
<clus scale="  111.003">  1  5  2 -1</clus>
<clus scale="   91.988">  1  3  2 -1</clus>
</clustering>
</event>
<event>
 6    0  0.1361744E+002  0.1271370E+03  0.7546771E-02  0.1231767E+00
         21   -1    0    0  504  502  0.00000000000E+00  0.00000000000E+00  0.31703375876E+03  0.31703375876E+03  0.00000000000E+00 0. -1.
          1   -1    0    0  505    0 -0.00000000000E+00 -0.00000000000E+00 -0.11012589441E+04  0.11012589441E+04  0.00000000000E+00 0. -1.
         21    1    1    2  503  502 -0.64055907290E+02  0.24316853225E+02  0.27524875024E+03  0.28364827360E+03  0.00000000000E+00 0. -1.
         21    1    1    2  504  501 -0.48910526287E+02  0.41437329978E+02 -0.10245741600E+01  0.64111946231E+02  0.00000000000E+00 0. -1.
         21    1    1    2  505  503  0.42819481457E+02 -0.15172305873E+02 -0.12346882096E+03  0.13156084755E+03  0.00000000000E+00 0.  1.
          1    1    1    2  501    0  0.70146952119E+02 -0.50581877330E+02 -0.93498054042E+03  0.93897163545E+03  0.00000000000E+00 0. -1.
<scales pt_clust_3="127.13696" pt_clust_4="62.68532" pt_clust_5="45.42804" pt_clust_6="14000.00000"></scales>
<clustering>
<clus scale="   45.428">  2  5  1 -1</clus>
<clus scale="   62.685">  1  4  2 -1</clus>
<clus scale="  127.137">  1  3  2 -1</clus>
<clus scale="   62.685">  1  3  2 -1</clus>
</clustering>
</event>
<event>
 6    0  0.1361744E+002  0.1211565E+03  0.7546771E-02  0.1241201E+00
          2   -1    0    0  503    0 -0.00000000000E+00  0.00000000000E+00  0.25427657476E+04  0.25427657476E+04  0.00000000000E+00 0.  1.
         21   -1    0    0  504  502  0.00000000000E+00 -0.00000000000E+00 -0.32997648806E+03  0.32997648806E+03  0.00000000000E+00 0.  1.
         21    1    1    2  503  505 -0.48871413583E+02  0.91092039417E+01 -0.79613116263E+02  0.93859687530E+02  0.00000000000E+00 0.  1.
         21    1    1    2  504  501  0.51253010343E+02 -0.11071779977E+03  0.13373694286E+03  0.18102726905E+03  0.00000000000E+00 0. -1.
         21    1    1    2  505  502 -0.41317358597E+02 -0.15293548385E+02 -0.21577154036E+03  0.22022346463E+03  0.00000000000E+00 0.  1.
          2    1    1    2  501    0  0.38935761837E+02  0.11690214421E+03  0.23744369733E+04  0.23776318145E+04  0.00000000000E+00 0.  1.
<scales pt_clust_3="80.92120" pt_clust_4="14000.00000" pt_clust_5="44.05697" pt_clust_6="121.15646"></scales>
<clustering>
<clus scale="   44.057">  2  5  1 -1</clus>
<clus scale="   80.921">  2  3  1 -1</clus>
<clus scale="  121.156">  1  6  2 -1</clus>
<clus scale="   44.057">  2  3  1 -1</clus>
</clustering>
</event>
<event>
 6    0  0.1361744E+002  0.1706956E+03  0.7546771E-02  0.1177124E+00
         21   -1    0    0  503  502  0.00000000000E+00  0.00000000000E+00  0.88618712573E+03  0.88618712573E+03  0.00000000000E+00 0. -1.
         -3   -1    0    0    0  501 -0.00000000000E+00 -0.00000000000E+00 -0.23282738921E+04  0.23282738921E+04  0.00000000000E+00 0.  1.
         21    1    1    2  503  505 -0.66623065195E+02  0.40653284021E+02  0.57082440727E+03  0.57613524997E+03  0.00000000000E+00 0. -1.
         21    1    1    2  504  501 -0.36896828221E+02 -0.38584514834E+02 -0.11390852775E+04  0.11403356568E+04  0.00000000000E+00 0. -1.
         21    1    1    2  505  504 -0.65582725272E+02  0.50730395577E+02  0.29980770138E+03  0.31106160917E+03  0.00000000000E+00 0. -1.
         -3    1    1    2    0  502  0.16910261869E+03 -0.52799164764E+02 -0.11736335975E+04  0.11869285019E+04  0.00000000000E+00 0.  1.
<scales pt_clust_3="55.63842" pt_clust_4="53.38671" pt_clust_5="55.63842" pt_clust_6="160.77415"></scales>
<clustering>
<clus scale="   53.387">  2  4  1 -1</clus>
<clus scale="   55.638">  3  5 -1 -1</clus>
<clus scale="  160.774">  2  6  1 -1</clus>
<clus scale="  170.696">  1  3  2 -1</clus>
</clustering>
</event>
<event>
 6    0  0.1361744E+002  0.6738030E+02  0.7546771E-02  0.1369235E+00
         21   -1    0    0  505  502  0.00000000000E+00  0.00000000000E+00  0.53208843876E+02  0.53208843876E+02  0.00000000000E+00 0. -1.
         -1   -1    0    0    0  501 -0.00000000000E+00 -0.00000000000E+00 -0.36257937066E+03  0.36257937066E+03  0.00000000000E+00 0. -1.
         21    1    1    2  503  501  0.43116924428E+02  0.78644450605E+02 -0.10039557681E+03  0.13462277157E+03  0.00000000000E+00 0. -1.
         21    1    1    2  504  502  0.16104688206E+02 -0.62106755171E+02 -0.62114980764E+02  0.89302188413E+02  0.00000000000E+00 0. -1.
         21    1    1    2  505  503 -0.34730019093E+02  0.36826819852E+02 -0.24699879903E+02  0.56324709976E+02  0.00000000000E+00 0. -1.
         -1    1    1    2    0  504 -0.24491593540E+02 -0.53364515286E+02 -0.12216008931E+03  0.13553854458E+03  0.00000000000E+00 0. -1.
<scales pt_clust_3="14000.00000" pt_clust_4="48.84435" pt_clust_5="50.62004" pt_clust_6="67.38030"></scales>
<clustering>
<clus scale="   50.620">  1  5  2 -1</clus>
<clus scale="   48.844">  1  4  2 -1</clus>
<clus scale="   67.380">  2  6  1 -1</clus>
<clus scale="   50.620">  1  3  2 -1</clus>
</clustering>
</event>
<event>
 6    0  0.1361744E+002  0.1800604E+03  0.7546771E-02  0.1167745E+00
          3   -1    0    0  503    0 -0.00000000000E+00  0.00000000000E+00  0.60862191096E+03  0.60862191096E+03  0.00000000000E+00 0.  1.
         21   -1    0    0  504  502  0.00000000000E+00 -0.00000000000E+00 -0.53270226132E+02  0.53270226132E+02  0.00000000000E+00 0.  1.
         21    1    1    2  503  505 -0.58537082974E+02  0.10179825058E+02  0.11557815410E+03  0.12995587184E+03  0.00000000000E+00 0.  1.
         21    1    1    2  504  501  0.91792831508E+02 -0.38110493814E+02  0.18246118869E+03  0.20777492397E+03  0.00000000000E+00 0.  1.
         21    1    1    2  505  502 -0.86883082858E+02  0.81523804768E+02  0.18016253216E+03  0.21599383978E+03  0.00000000000E+00 0.  1.
          3    1    1    2  501    0  0.53627334324E+02 -0.53593136012E+02  0.77149809884E+02  0.10816750149E+03  0.00000000000E+00 0.  1.
<scales pt_clust_3="36.43575" pt_clust_4="46.75039" pt_clust_5="179.49554" pt_clust_6="46.75039"></scales>
<clustering>
<clus scale="   36.436">  3  5 -1 -1</clus>
<clus scale="   46.750">  4  6 -1 -1</clus>
<clus scale="  179.496">  1  3  2 -1</clus>
<clus scale="  180.060">  2  3  1 -1</clus>
</clustering>
</event>
<event>
 6    0  0.1361744E+002  0.2468584E+03  0.7546771E-02  0.1115306E+00
         21   -1    0    0  501  502  0.00000000000E+00  0.00000000000E+00  0.33456174571E+03  0.33456174571E+03  0.00000000000E+00 0.  1.
          1   -1    0    0  505    0 -0.00000000000E+00 -0.00000000000E+00 -0.31790080335E+03  0.31790080335E+03  0.00000000000E+00 0. -1.
         21    1    1    2  503  502 -0.14870269206E+02  0.20806383814E+03  0.11264643604E+03  0.23706730100E+03  0.00000000000E+00 0.  1.
         21    1    1    2  504  503  0.28525817196E+02  0.60087006338E+02  0.34109164477E+02  0.74750288820E+02  0.00000000000E+00 0. -1.
         21    1    1    2  505  504  0.57753132433E+02 -0.97870791788E+02  0.19251137996E+01  0.11365659794E+03  0.00000000000E+00 0.  1.
          1    1    1    2  501    0 -0.71408680423E+02 -0.17028005269E+03 -0.13201977196E+03  0.22698836132E+03  0.00000000000E+00 0. -1.
<scales pt_clust_3="33.88890" pt_clust_4="33.88890" pt_clust_5="113.64029" pt_clust_6="239.45237"></scales>
<clustering>
<clus scale="   33.889">  3  4 -1 -1</clus>
<clus scale="  113.640">  2  5  1 -1</clus>
<clus scale="  239.452">  2  6  1 -1</clus>
<clus scale="  246.858">  1  3  2 -1</clus>
</clustering>
</event>
<event>
 6    0  0.1361744E+002  0.1202701E+03  0.7546771E-02  0.1242652E+00
          2   -1    0    0  503    0 -0.00000000000E+00  0.00000000000E+00  0.15071905466E+04  0.15071905466E+04  0.00000000000E+00 0.  1.
         21   -1    0    0  505  502  0.00000000000E+00 -0.00000000000E+00 -0.79608320384E+02  0.79608320384E+02  0.00000000000E+00 0.  1.
         21    1    1    2  503  504  0.10617219978E+03  0.48373310640E+02  0.73439879483E+03  0.74360883738E+03  0.00000000000E+00 0.  1.
         21    1    1    2  504  502 -0.30966826172E+02  0.23156535930E+02 -0.40064020837E+02  0.55680294944E+02  0.00000000000E+00 0.  1.
         21    1    1    2  505  501  0.27414821767E+01  0.38831339656E+02 -0.29282564122E+01  0.39037973176E+02  0.00000000000E+00 0.  1.
          2    1    1    2  501    0 -0.77946855780E+02 -0.11036118623E+03  0.73617570867E+03  0.74847176151E+03  0.00000000000E+00 0.  1.
<scales pt_clust_3="14000.00000" pt_clust_4="38.66742" pt_clust_5="56.97189" pt_clust_6="120.27007"></scales>
<clustering>
<clus scale="   38.667">  2  4  1 -1</clus>
<clus scale="   56.972">  2  5  1 -1</clus>
<clus scale="  120.270">  2  6  1 -1</clus>
<clus scale="   38.667">  2  3  1 -1</clus>
</clustering>
</event>
<event>
 6    0  0.1361744E+002  0.1022789E+03  0.7546771E-02  0.1275576E+00
         21   -1    0    0  505  502  0.00000000000E+00  0.00000000000E+00  0.17690916172E+04  0.17690916172E+04  0.00000000000E+00 0.  1.
          2   -1    0    0  504    0 -0.00000000000E+00 -0.00000000000E+00 -0.79748008123E+03  0.79748008123E+03  0.00000000000E+00 0. -1.
         21    1    1    2  503  501 -0.33365003957E+02 -0.48376254092E+02 -0.17270089358E+03  0.18242555768E+03  0.00000000000E+00 0. -1.
         21    1    1    2  504  502  0.34034191064E+02  0.10734501415E+03  0.15135990243E+04  0.15177823575E+04  0.00000000000E+00 0.  1.
         21    1    1    2  505  503  0.53529468587E+02 -0.50286908253E+02  0.24185571465E+03  0.25276147622E+03  0.00000000000E+00 0. -1.
          2    1    1    2  501    0 -0.54198655694E+02 -0.86818518061E+01 -0.61114230944E+03  0.61360230705E+03  0.00000000000E+00 0. -1.
<scales pt_clust_3="14000.00000" pt_clust_4="102.27887" pt_clust_5="72.46782" pt_clust_6="54.88961"></scales>
<clustering>
<clus scale="   54.890">  2  6  1 -1</clus>
<clus scale="   72.468">  1  5  2 -1</clus>
<clus scale="  102.279">  1  4  2 -1</clus>
<clus scale="   72.468">  1  3  2 -1</clus>
</clustering>
</event>
<event>
 6    0  0.1361744E+002  0.1318777E+03  0.7546771E-02  0.1224696E+00
          2   -1    0    0  504    0 -0.00000000000E+00  0.00000000000E+00  0.28125540545E+03  0.28125540545E+03  0.00000000000E+00 0.  1.
         21   -1    0    0  505  502  0.00000000000E+00 -0.00000000000E+00 -0.17320352066E+03  0.17320352066E+03  0.00000000000E+00 0.  1.
         21    1    1    2  503  501 -0.13496199657E+02 -0.93502477023E+02  0.99201313453E+02  0.13698817907E+03  0.00000000000E+00 0. -1.
         21    1    1    2  504  502 -0.42041280321E+02  0.70581544374E+02 -0.80742030436E+02  0.11518897142E+03  0.00000000000E+00 0.  1.
         21    1    1    2  505  503  0.37833940254E+02  0.78742328005E+02 -0.87775053422E+01  0.87799805551E+02  0.00000000000E+00 0.  1.
          2    1    1    2  501    0  0.17703539724E+02 -0.55821395356E+02  0.98370107110E+02  0.11448197007E+03  0.00000000000E+00 0.  1.
<scales pt_clust_3="34.20528" pt_clust_4="82.15366" pt_clust_5="124.51614" pt_clust_6="34.20528"></scales>
<clustering>
<clus scale="   34.205">  3  6 -1 -1</clus>
<clus scale="   82.154">  2  4  1 -1</clus>
<clus scale="  124.516">  2  5  1 -1</clus>
<clus scale="   82.154">  2  3  1 -1</clus>
</clustering>
</event>
<event>
 6    0  0.1361744E+002  0.1032831E+03  0.7546771E-02  0.1273540E+00
         21   -1    0    0  505  502  0.00000000000E+00  0.00000000000E+00  0.21471288253E+03  0.21471288253E+03  0.00000000000E+00 0.  1.
         -2   -1    0    0    0  501 -0.00000000000E+00 -0.00000000000E+00 -0.70323072774E+03  0.70323072774E+03  0.00000000000E+00 0. -1.
         21    1    1    2  503  504  0.69604185544E+02  0.10172445883E+03 -0.11760197012E+03  0.17036088619E+03  0.00000000000E+00 0.  1.
         21    1    1    2  504  502  0.41258815391E+02 -0.30128603073E+02  0.96085713686E+02  0.10882319121E+03  0.00000000000E+00 0.  1.
         21    1    1    2  505  501 -0.22071713205E+02 -0.22135764316E+02  0.78173202226E+02  0.84191461158E+02  0.00000000000E+00 0.  1.
         -2    1    1    2    0  503 -0.88791287731E+02 -0.49460091437E+02 -0.54517479100E+03  0.55456807172E+03  0.00000000000E+00 0. -1.
<scales pt_clust_3="103.28310" pt_clust_4="53.02132" pt_clust_5="31.25944" pt_clust_6="14000.00000"></scales>
<clustering>
<clus scale="   31.259">  1  5  2 -1</clus>
<clus scale="   53.021">  1  4  2 -1</clus>
<clus scale="  103.283">  1  3  2 -1</clus>
<clus scale="   31.259">  1  3  2 -1</clus>
</clustering>
</event>
<event>
 6    0  0.1361744E+002  0.1630775E+03  0.7546771E-02  0.1185265E+00
          2   -1    0    0  504    0 -0.00000000000E+00  0.00000000000E+00  0.15086873336E+04  0.15086873336E+04  0.00000000000E+00 0.  1.
         21   -1    0    0  503  502  0.00000000000E+00 -0.00000000000E+00 -0.73150730813E+02  0.73150730813E+02  0.00000000000E+00 0. -1.
         21    1    1    2  503  501  0.41121000503E+02 -0.64985867309E+02  0.93693931695E+02  0.12121325203E+03  0.00000000000E+00 0.  1.
         21    1    1    2  504  505  0.26240113137E+01  0.46406073035E+02  0.14833571007E+03  0.15544739281E+03  0.00000000000E+00 0. -1.
         21    1    1    2  505  502  0.29143387904E+02 -0.10024878837E+03  0.85132600332E+00  0.10440249702E+03  0.00000000000E+00 0. -1.
          2    1    1    2  501    0 -0.72888399721E+02  0.11882858265E+03  0.11926556351E+04  0.12007749226E+04  0.00000000000E+00 0.  1.
<scales pt_clust_3="73.93963" pt_clust_4="46.48020" pt_clust_5="14000.00000" pt_clust_6="163.07745"></scales>
<clustering>
<clus scale="   46.480">  1  4  2 -1</clus>
<clus scale="   73.940">  2  3  1 -1</clus>
<clus scale="  163.077">  1  6  2 -1</clus>
<clus scale="   73.940">  2  3  1 -1</clus>
</clustering>
</event>
<event>
 6    0  0.1361744E+002  0.6859326E+02  0.7546771E-02  0.1364943E+00
         21   -1    0    0  504  502  0.00000000000E+00  0.00000000000E+00  0.58979258197E+02  0.58979258197E+02  0.00000000000E+00 0. -1.
          2   -1    0    0  505    0 -0.00000000000E+00 -0.00000000000E+00 -0.12982273043E+04  0.12982273043E+04  0.00000000000E+00 0.  1.
         21    1    1    2  503  501  0.65439286022E+02 -0.59589711308E+02 -0.82584946861E+02  0.12105167201E+03  0.00000000000E+00 0. -1.
         21    1    1    2  504  503  0.53283021711E+02  0.93713452396E+01  0.98909370943E+01  0.54997574045E+02  0.00000000000E+00 0. -1.
         21    1    1    2  505  502 -0.50346366427E+02  0.46169462989E+02 -0.18487732528E+03  0.19709388963E+03  0.00000000000E+00 0.  1.
          2    1    1    2  501    0 -0.68375941305E+02  0.40489030796E+01 -0.98167671107E+03  0.98406342683E+03  0.00000000000E+00 0.  1.
<scales pt_clust_3="14000.00000" pt_clust_4="54.10086" pt_clust_5="61.52736" pt_clust_6="68.59326"></scales>
<clustering>
<clus scale="   54.101">  1  4  2 -1</clus>
<clus scale="   61.527">  1  5  2 -1</clus>
<clus scale="   68.593">  2  6  1 -1</clus>
<clus scale="   54.101">  1  3  2 -1</clus>
</clustering>
</event>
<event>
 6    0  0.1361744E+002  0.2336727E+03  0.7546771E-02  0.1124081E+00
          2   -1    0    0  505    0 -0.00000000000E+00  0.00000000000E+00  0.21626869729E+04  0.21626869729E+04  0.00000000000E+00 0. -1.
         21   -1    0    0  504  502  0.00000000000E+00 -0.00000000000E+00 -0.88476791777E+02  0.88476791777E+02  0.00000000000E+00 0. -1.
         21    1    1    2  503  501  0.22333759886E+02 -0.34599758392E+02  0.51883915658E+02  0.66241081026E+02  0.00000000000E+00 0.  1.
         21    1    1    2  504  503  0.51122573680E+02 -0.18835612461E+03  0.58489591547E+02  0.20374636080E+03  0.00000000000E+00 0. -1.
         21    1    1    2  505  502 -0.24878501669E+02  0.15811898943E+03  0.88932128546E+03  0.90361103548E+03  0.00000000000E+00 0. -1.
          2    1    1    2  501    0 -0.48577831897E+02  0.64836893579E+02  0.10745153884E+04  0.10775652874E+04  0.00000000000E+00 0. -1.
<scales pt_clust_3="34.39239" pt_clust_4="34.39239" pt_clust_5="221.35309" pt_clust_6="81.01622"></scales>
<clustering>
<clus scale="   34.392">  3  4 -1 -1</clus>
<clus scale="   81.016">  1  6  2 -1</clus>
<clus scale="  221.353">  1  5  2 -1</clus>
<clus scale="  233.673">  2  3  1 -1</clus>
</clustering>
</event>
<event>
 6    0  0.1361744E+002  0.1400289E+03  0.7546771E-02  0.1213290E+00
          1   -1    0    0  504    0 -0.00000000000E+00  0.00000000000E+00  0.12333701299E+04  0.12333701299E+04  0.00000000000E+00 0. -1.
         21   -1    0    0  505  502  0.00000000000E+00 -0.00000000000E+00 -0.18673236125E+03  0.18673236125E+03  0.00000000000E+00 0.  1.
         21    1    1    2  503  501 -0.56149241483E+02 -0.64913641017E+02  0.69149768924E+03  0.69680382629E+03  0.00000000000E+00 0. -1.
         21    1    1    2  504  502  0.19677926042E+03  0.10320421245E+03 -0.84083517358E+02  0.23757782870E+03  0.00000000000E+00 0.  1.
         21    1    1    2  505  503 -0.90201187513E+02 -0.27769091247E+02  0.82672750847E+02  0.12546776634E+03  0.00000000000E+00 0. -1.
          1    1    1    2  501    0 -0.50428831425E+02 -0.10521480190E+02  0.35655084595E+03  0.36025306984E+03  0.00000000000E+00 0. -1.
<scales pt_clust_3="33.89570" pt_clust_4="133.01836" pt_clust_5="94.37890" pt_clust_6="33.89570"></scales>
<clustering>
<clus scale="   33.896">  3  6 -1 -1</clus>
<clus scale="   94.379">  2  5  1 -1</clus>
<clus scale="  133.018">  2  4  1 -1</clus>
<clus scale="   94.379">  2  3  1 -1</clus>
</clustering>
</event>
<event>
 6    0  0.1361744E+002  0.1199269E+03  0.7546771E-02  0.1243218E+00
          2   -1    0    0  505    0 -0.00000000000E+00  0.00000000000E+00  0.50488410898E+02  0.50488410898E+02  0.00000000000E+00 0.  1.
         21   -1    0    0  503  502  0.00000000000E+00 -0.00000000000E+00 -0.16537047712E+04  0.16537047712E+04  0.00000000000E+00 0. -1.
         21    1    1    2  503  501  0.45094097227E+02 -0.10202534134E+02 -0.77316197981E+03  0.77454310167E+03  0.00000000000E+00 0. -1.
         21    1    1    2  504  502  0.65764356546E+02  0.71760613461E+02 -0.74974813587E+03  0.75604021287E+03  0.00000000000E+00 0. -1.
         21    1    1    2  505  504  0.41684637047E+01 -0.32682377404E+02 -0.55292470184E+01  0.33407880134E+02  0.00000000000E+00 0.  1.
          2    1    1    2  501    0 -0.11502691748E+03 -0.28875701923E+02 -0.74776997578E+02  0.14020198741E+03  0.00000000000E+00 0.  1.
<scales pt_clust_3="46.45062" pt_clust_4="119.92691" pt_clust_5="32.94714" pt_clust_6="14000.00000"></scales>
<clustering>
<clus scale="   32.947">  1  5  2 -1</clus>
<clus scale="   46.451">  2  3  1 -1</clus>
<clus scale="  119.927">  2  4  1 -1</clus>
<clus scale="   46.451">  2  3  1 -1</clus>
</clustering>
</event>
<event>
 6    0  0.1361744E+002  0.7526688E+02  0.7546771E-02  0.1343047E+00
         21   -1    0    0  503  502  0.00000000000E+00  0.00000000000E+00  0.10043532100E+03  0.10043532100E+03  0.00000000000E+00 0.  1.
         -1   -1    0    0    0  501 -0.00000000000E+00 -0.00000000000E+00 -0.29181534236E+03  0.29181534236E+03  0.00000000000E+00 0.  1.
         21    1    1    2  503  504  0.40256411573E+02 -0.10052566267E+03 -0.20967163523E+02  0.11029782171E+03  0.00000000000E+00 0.  1.
         21    1    1    2  504  501 -0.47859473323E+02 -0.10748675262E+02 -0.99244308140E+02  0.11070454329E+03  0.00000000000E+00 0.  1.
         21    1    1    2  505  502  0.13190723005E+02  0.48905401860E+02  0.25002573236E+02  0.56487717009E+02  0.00000000000E+00 0.  1.
         -1    1    1    2    0  505 -0.55876612550E+01  0.62368936076E+02 -0.96171122927E+02  0.11476058134E+03  0.00000000000E+00 0.  1.
<scales pt_clust_3="75.26688" pt_clust_4="49.05164" pt_clust_5="48.86563" pt_clust_6="14000.00000"></scales>
<clustering>
<clus scale="   49.052">  2  4  1 -1</clus>
<clus scale="   48.866">  1  5  2 -1</clus>
<clus scale="   75.267">  1  3  2 -1</clus>
<clus scale="   48.866">  1  3  2 -1</clus>
</clustering>
</event>
<event>
 6    0  0.1361744E+002  0.1973183E+03  0.7546771E-02  0.1152021E+00
         -3   -1    0    0    0  501 -0.00000000000E+00  0.00000000000E+00  0.91951093664E+03  0.91951093664E+03  0.00000000000E+00 0.  1.
         21   -1    0    0  503  502  0.00000000000E+00 -0.00000000000E+00 -0.16924839231E+03  0.16924839231E+03  0.00000000000E+00 0. -1.
         21    1    1    2  503  504 -0.14857528105E+02  0.21589517812E+03 -0.53014914769E+02  0.22280497136E+03  0.00000000000E+00 0. -1.
         21    1    1    2  504  501 -0.29907431482E+02 -0.32602418980E+02  0.47882392469E+02  0.65192757955E+02  0.00000000000E+00 0.  1.
         21    1    1    2  505  502  0.47289745169E+02 -0.17333557568E+02  0.34606325116E+02  0.61109491522E+02  0.00000000000E+00 0. -1.
         -3    1    1    2    0  505 -0.25247855821E+01 -0.16595920157E+03  0.72078874152E+03  0.73965210811E+03  0.00000000000E+00 0.  1.
<scales pt_clust_3="197.31831" pt_clust_4="44.24220" pt_clust_5="49.48337" pt_clust_6="14000.00000"></scales>
<clustering>
<clus scale="   44.242">  1  4  2 -1</clus>
<clus scale="   49.483">  2  5  1 -1</clus>
<clus scale="  197.318">  2  3  1 -1</clus>
<clus scale="   49.483">  2  3  1 -1</clus>
</clustering>
</event>
<event>
 6    0  0.1361744E+002  0.1179937E+03  0.7546771E-02  0.1246444E+00
         21   -1    0    0  504  502  0.00000000000E+00  0.00000000000E+00  0.28555135689E+03  0.28555135689E+03  0.00000000000E+00 0.  1.
         -1   -1    0    0    0  501 -0.00000000000E+00 -0.00000000000E+00 -0.11714626355E+04  0.11714626355E+04  0.00000000000E+00 0.  1.
         21    1    1    2  503  502 -0.18020046693E+02  0.27126793006E+02 -0.70961677087E+01  0.33330775235E+02  0.00000000000E+00 0. -1.
         21    1    1    2  504  505 -0.70579293134E+01 -0.14031374474E+03  0.24094007678E+03  0.27890837551E+03  0.00000000000E+00 0.  1.
         21    1    1    2  505  501  0.61052436861E+02 -0.28865678511E+02 -0.62883836867E+03  0.63245420494E+03  0.00000000000E+00 0. -1.
         -1    1    1    2    0  503 -0.35974460854E+02  0.14205263024E+03 -0.49091681901E+03  0.51232063669E+03  0.00000000000E+00 0.  1.
<scales pt_clust_3="32.56662" pt_clust_4="117.99373" pt_clust_5="67.34745" pt_clust_6="14000.00000"></scales>
<clustering>
<clus scale="   32.567">  1  3  2 -1</clus>
<clus scale="   67.347">  2  5  1 -1</clus>
<clus scale="  117.994">  1  4  2 -1</clus>
<clus scale="   32.567">  1  3  2 -1</clus>
</clustering>
</event>
<event>
 6    0  0.1361744E+002  0.1355407E+03  0.7546771E-02  0.1219458E+00
          2   -1    0    0  505    0 -0.00000000000E+00  0.00000000000E+00  0.94785574621E+03  0.94785574621E+03  0.00000000000E+00 0.  1.
         21   -1    0    0  503  502  0.00000000000E+00 -0.00000000000E+00 -0.41361483848E+03  0.41361483848E+03  0.00000000000E+00 0. -1.
         21    1    1    2  503  504 -0.86446875784E+02  0.41375916096E+02 -0.38242105897E+03  0.39424725124E+03  0.00000000000E+00 0. -1.
         21    1    1    2  504  501  0.18438916323E+02 -0.35615867477E+02  0.16379816338E+03  0.16863665668E+03  0.00000000000E+00 0. -1.
         21    1    1    2  505  502 -0.10371104446E+01  0.50332050094E+02  0.11156988748E+02  0.51564224639E+02  0.00000000000E+00 0. -1.
          2    1    1    2  501    0  0.69045069906E+02 -0.56092098713E+02  0.74170681457E+03  0.74702245214E+03  0.00000000000E+00 0.  1.
<scales pt_clust_3="126.26457" pt_clust_4="33.08903" pt_clust_5="50.34273" pt_clust_6="33.08903"></scales>
<clustering>
<clus scale="   33.089">  4  6 -1 -1</clus>
<clus scale="   50.343">  2  5  1 -1</clus>
<clus scale="  126.265">  2  3  1 -1</clus>
<clus scale="   50.343">  2  3  1 -1</clus>
</clustering>
</event>
<event>
 6    0  0.1361744E+002  0.2512753E+03  0.7546771E-02  0.1112501E+00
         21   -1    0    0  504  502  0.00000000000E+00  0.00000000000E+00  0.14368233592E+03  0.14368233592E+03  0.00000000000E+00 0. -1.
          1   -1    0    0  502    0 -0.00000000000E+00 -0.00000000000E+00 -0.17547108236E+04  0.17547108236E+04  0.00000000000E+00 0. -1.
         21    1    1    2  503  505  0.79158998314E+02 -0.19581725832E+03  0.10636965806E+02  0.21147976430E+03  0.00000000000E+00 0. -1.
         21    1    1    2  504  503  0.38103836134E+02 -0.11546168633E+02  0.68857080166E+01  0.40405807913E+02  0.00000000000E+00 0. -1.
         21    1    1    2  505  501 -0.85443279219E+02  0.13518405618E+03 -0.94722168982E+03  0.96062698935E+03  0.00000000000E+00 0.  1.
          1    1    1    2  501    0 -0.31819555229E+02  0.72179370769E+02 -0.68132947168E+03  0.68588059795E+03  0.00000000000E+00 0. -1.
<scales pt_clust_3="34.70434" pt_clust_4="34.70434" pt_clust_5="31.86220" pt_clust_6="242.50433"></scales>
<clustering>
<clus scale="   31.862">  5  6 -1 -1</clus>
<clus scale="   34.704">  3  4 -1 -1</clus>
<clus scale="  242.504">  2  5  1 -1</clus>
<clus scale="  251.275">  1  3  2 -1</clus>
</clustering>
</event>
<event>
 6    0  0.1361744E+002  0.9443022E+02  0.7546771E-02  0.1292465E+00
         21   -1    0    0  504  502  0.00000000000E+00  0.00000000000E+00  0.21000161708E+03  0.21000161708E+03  0.00000000000E+00 0.  1.
          1   -1    0    0  503    0 -0.00000000000E+00 -0.00000000000E+00 -0.52946341749E+03  0.52946341749E+03  0.00000000000E+00 0. -1.
         21    1    1    2  503  505 -0.16729577066E+02 -0.10013692003E+03 -0.19713483139E+03  0.22174179410E+03  0.00000000000E+00 0. -1.
         21    1    1    2  504  501  0.42692706011E+01  0.61040787765E+02 -0.13919236151E+02  0.62753084206E+02  0.00000000000E+00 0. -1.
         21    1    1    2  505  502  0.80792041198E+02 -0.75128038204E+00  0.15778767622E+03  0.17727060984E+03  0.00000000000E+00 0.  1.
          1    1    1    2  501    0 -0.68331734734E+02  0.39847412648E+02 -0.26619540909E+03  0.27769954643E+03  0.00000000000E+00 0. -1.
<scales pt_clust_3="94.43022" pt_clust_4="61.18990" pt_clust_5="14000.00000" pt_clust_6="79.95831"></scales>
<clustering>
<clus scale="   61.190">  1  4  2 -1</clus>
<clus scale="   79.958">  2  6  1 -1</clus>
<clus scale="   94.430">  2  3  1 -1</clus>
<clus scale="   61.190">  1  3  2 -1</clus>
</clustering>
</event>
<event>
 6    0  0.1361744E+002  0.6674712E+03  0.7546771E-02  0.9774537E-01
         21   -1    0    0  505  502  0.00000000000E+00  0.00000000000E+00  0.70834092878E+03  0.70834092878E+03  0.00000000000E+00 0. -1.
          1   -1    0    0  503    0 -0.00000000000E+00 -0.00000000000E+00 -0.18774107457E+04  0.18774107457E+04  0.00000000000E+00 0. -1.
         21    1    1    2  503  502 -0.58786530721E+03  0.33200214505E+03  0.41089100515E+03  0.79034325572E+03  0.00000000000E+00 0. -1.
         21    1    1    2  504  501  0.67590431771E+02 -0.15852212019E+02 -0.17781552326E+03  0.19088771413E+03  0.00000000000E+00 0.  1.
         21    1    1    2  505  504  0.49338760391E+02  0.50346550903E+02  0.10253055024E+02  0.71233514599E+02  0.00000000000E+00 0. -1.
          1    1    1    2  501    0  0.47093611505E+03 -0.36649648394E+03 -0.14123983539E+04  0.15332871901E+04  0.00000000000E+00 0. -1.
<scales pt_clust_3="661.60433" pt_clust_4="30.11914" pt_clust_5="70.49176" pt_clust_6="30.11914"></scales>
<clustering>
<clus scale="   30.119">  4  6 -1 -1</clus>
<clus scale="   70.492">  1  5  2 -1</clus>
<clus scale="  661.604">  1  3  2 -1</clus>
<clus scale="   70.492">  1  3  2 -1</clus>
</clustering>
</event>
<event>
 6    0  0.1361744E+002  0.1197092E+03  0.7546771E-02  0.1243578E+00
         21   -1    0    0  504  502  0.00000000000E+00  0.00000000000E+00  0.23062455402E+04  0.23062455402E+04  0.00000000000E+00 0. -1.
         -3   -1    0    0    0  501 -0.00000000000E+00 -0.00000000000E+00 -0.72419255279E+02  0.72419255279E+02  0.00000000000E+00 0. -1.
         21    1    1    2  503  502  0.35719825535E+02  0.10721716180E+03  0.13226691349E+04  0.13274882546E+04  0.00000000000E+00 0. -1.
         21    1    1    2  504  501 -0.60602382982E+01  0.50346263133E+02  0.91101519645E+02  0.10426389395E+03  0.00000000000E+00 0. -1.
         21    1    1    2  505  503  0.57610796423E+02 -0.15924406805E+03  0.84039535570E+03  0.85728760107E+03  0.00000000000E+00 0. -1.
         -3    1    1    2    0  505 -0.87270383659E+02  0.16806431165E+01 -0.20339725282E+02  0.89625045885E+02  0.00000000000E+00 0. -1.
<scales pt_clust_3="14000.00000" pt_clust_4="50.70969" pt_clust_5="119.70920" pt_clust_6="102.16169"></scales>
<clustering>
<clus scale="   50.710">  2  4  1 -1</clus>
<clus scale="  102.162">  2  6  1 -1</clus>
<clus scale="  119.709">  2  5  1 -1</clus>
<clus scale="  119.709">  1  3  2 -1</clus>
</clustering>
</event>
<event>
 6    0  0.1361744E+002  0.2660586E+03  0.7546771E-02  0.1103557E+00
         21   -1    0    0  505  502  0.00000000000E+00  0.00000000000E+00  0.23864883405E+03  0.23864883405E+03  0.00000000000E+00 0.  1.
          2   -1    0    0  503    0 -0.00000000000E+00 -0.00000000000E+00 -0.96986523162E+03  0.96986523162E+03  0.00000000000E+00 0.  1.
         21    1    1    2  503  504  0.12552915500E+02 -0.77232087194E+02  0.52918349445E+02  0.94460164555E+02  0.00000000000E+00 0.  1.
         21    1    1    2  504  502 -0.66231509004E+02 -0.17467298378E+03  0.85356150741E+02  0.20538484978E+03  0.00000000000E+00 0.  1.
         21    1    1    2  505  501  0.46986510576E+02  0.13153398981E+03 -0.39008195884E+03  0.41433423376E+03  0.00000000000E+00 0.  1.
          2    1    1    2  501    0  0.66920829284E+01  0.12037108117E+03 -0.47940893892E+03  0.49433481758E+03  0.00000000000E+00 0.  1.
<scales pt_clust_3="43.17123" pt_clust_4="43.17123" pt_clust_5="53.59135" pt_clust_6="263.94133"></scales>
<clustering>
<clus scale="   43.171">  3  4 -1 -1</clus>
<clus scale="   53.591">  5  6 -1 -1</clus>
<clus scale="  263.941">  2  5  1 -1</clus>
<clus scale="  266.059">  1  3  2 -1</clus>
</clustering>
</event>
<event>
 6    0  0.1361744E+002  0.1719076E+03  0.7546771E-02  0.1175873E+00
         21   -1    0    0  503  502  0.00000000000E+00  0.00000000000E+00  0.91954103733E+03  0.91954103733E+03  0.00000000000E+00 0. -1.
          2   -1    0    0  502    0 -0.00000000000E+00 -0.00000000000E+00 -0.67479247183E+03  0.67479247183E+03  0.00000000000E+00 0.  1.
         21    1    1    2  503  505  0.31611021949E+02 -0.23818653655E+02  0.22579258194E+03  0.22923541399E+03  0.00000000000E+00 0. -1.
         21    1    1    2  504  501  0.91247506651E+02  0.62332889034E+02 -0.25258517889E+02  0.11335558765E+03  0.00000000000E+00 0.  1.
         21    1    1    2  505  504  0.29630087785E+02  0.81013056239E+02  0.62941664192E+03  0.63530021763E+03  0.00000000000E+00 0. -1.
          2    1    1    2  501    0 -0.15248861639E+03 -0.11952729162E+03 -0.58520214047E+03  0.61644228990E+03  0.00000000000E+00 0.  1.
<scales pt_clust_3="39.58011" pt_clust_4="171.90757" pt_clust_5="83.27307" pt_clust_6="14000.00000"></scales>
<clustering>
<clus scale="   39.580">  1  3  2 -1</clus>
<clus scale="   83.273">  1  5  2 -1</clus>
<clus scale="  171.908">  1  4  2 -1</clus>
<clus scale="   39.580">  1  3  2 -1</clus>
</clustering>
</event>
<event>
 6    0  0.1361744E+002  0.1387849E+03  0.7546771E-02  0.1214973E+00
          3   -1    0    0  504    0 -0.00000000000E+00  0.00000000000E+00  0.75425797563E+02  0.75425797563E+02  0.00000000000E+00 0.  1.
         21   -1    0    0  505  502  0.00000000000E+00 -0.00000000000E+00 -0.86634962276E+03  0.86634962276E+03  0.00000000000E+00 0. -1.
         21    1    1    2  503  501  0.76914548234E+02  0.75569731998E+01 -0.19804826324E+03  0.21259367381E+03  0.00000000000E+00 0. -1.
         21    1    1    2  504  502 -0.69068774039E+01 -0.88364058855E+02 -0.47846666852E+03  0.48660688933E+03  0.00000000000E+00 0. -1.
         21    1    1    2  505  503  0.52679762207E+02  0.41451561834E+02 -0.88715766868E+02  0.11119297017E+03  0.00000000000E+00 0.  1.
          3    1    1    2  501    0 -0.12268743304E+03  0.39355523822E+02 -0.25693126563E+02  0.13138188701E+03  0.00000000000E+00 0.  1.
<scales pt_clust_3="54.36562" pt_clust_4="88.63358" pt_clust_5="54.36562" pt_clust_6="125.91101"></scales>
<clustering>
<clus scale="   54.366">  3  5 -1 -1</clus>
<clus scale="   88.634">  2  4  1 -1</clus>
<clus scale="  125.911">  1  6  2 -1</clus>
<clus scale="   88.634">  2  3  1 -1</clus>
</clustering>
</event>
<event>
 6    0  0.1361744E+002  0.1122375E+03  0.7546771E-02  0.1256482E+00
         21   -1    0    0  505  502  0.00000000000E+00  0.00000000000E+00  0.19263809298E+04  0.19263809298E+04  0.00000000000E+00 0. -1.
          1   -1    0    0  503    0 -0.00000000000E+00 -0.00000000000E+00 -0.81945379414E+02  0.81945379414E+02  0.00000000000E+00 0.  1.
         21    1    1    2  503  502  0.24368983042E+02 -0.67095081924E+02  0.16544049150E+03  0.18018366625E+03  0.00000000000E+00 0. -1.
         21    1    1    2  504  501  0.79588025697E+02  0.56442860149E+02  0.79930268830E+03  0.80523588955E+03  0.00000000000E+00 0. -1.
         21    1    1    2  505  504  0.52539911426E+01  0.41087459442E+02  0.90565305022E+03  0.90659981861E+03  0.00000000000E+00 0. -1.
          1    1    1    2  501    0 -0.10921099988E+03 -0.30435237666E+02 -0.25960679668E+02  0.11630693477E+03  0.00000000000E+00 0.  1.
<scales pt_clust_3="65.22505" pt_clust_4="112.23746" pt_clust_5="41.42202" pt_clust_6="14000.00000"></scales>
<clustering>
<clus scale="   41.422">  1  5  2 -1</clus>
<clus scale="   65.225">  1  3  2 -1</clus>
<clus scale="  112.237">  1  4  2 -1</clus>
<clus scale="   41.422">  1  3  2 -1</clus>
</clustering>
</event>
<event>
 6    0  0.1361744E+002  0.7888277E+02  0.7546771E-02  0.1332252E+00
         -3   -1    0    0    0  501 -0.00000000000E+00  0.00000000000E+00  0.30207983776E+03  0.30207983776E+03  0.00000000000E+00 0. -1.
         21   -1    0    0  504  502  0.00000000000E+00 -0.00000000000E+00 -0.69243088756E+03  0.69243088756E+03  0.00000000000E+00 0. -1.
         21    1    1    2  503  505 -0.94464814811E+02 -0.24421647381E+02 -0.88606153480E+02  0.13179934952E+03  0.00000000000E+00 0.  1.
         21    1    1    2  504  501 -0.45224023631E+01  0.32703582726E+02  0.14905511603E+03  0.15266762611E+03  0.00000000000E+00 0. -1.
         21    1    1    2  505  502  0.39315987564E+02  0.69519458950E+02 -0.55862445238E+03  0.56430486516E+03  0.00000000000E+00 0. -1.
         -3    1    1    2    0  503  0.59671229610E+02 -0.77801394296E+02  0.10782444003E+03  0.14573888454E+03  0.00000000000E+00 0. -1.
<scales pt_clust_3="14000.00000" pt_clust_4="33.01479" pt_clust_5="78.88277" pt_clust_6="75.23929"></scales>
<clustering>
<clus scale="   33.015">  1  4  2 -1</clus>
<clus scale="   75.239">  1  6  2 -1</clus>
<clus scale="   78.883">  2  5  1 -1</clus>
<clus scale="   78.883">  2  3  1 -1</clus>
</clustering>
</event>
<event>
 6    0  0.1361744E+002  0.1640814E+03  0.7546771E-02  0.1184164E+00
          2   -1    0    0  504    0 -0.00000000000E+00  0.00000000000E+00  0.10983979684E+04  0.10983979684E+04  0.00000000000E+00 0.  1.
         21   -1    0    0  503  502  0.00000000000E+00 -0.00000000000E+00 -0.10487342592E+03  0.10487342592E+03  0.00000000000E+00 0.  1.
         21    1    1    2  503  505 -0.57402572342E+02 -0.32162710095E+02  0.11328361175E+02  0.66766960385E+02  0.00000000000E+00 0.  1.
         21    1    1    2  504  502  0.68665278557E+02 -0.12392524827E+03  0.13869629828E+01  0.14168384277E+03  0.00000000000E+00 0.  1.
         21    1    1    2  505  501 -0.19798951258E+02  0.63752033501E+02  0.27707649663E+03  0.28500474598E+03  0.00000000000E+00 0. -1.
          2    1    1    2  501    0  0.85362450431E+01  0.92335924858E+02  0.70373272164E+03  0.70981584514E+03  0.00000000000E+00 0.  1.
<scales pt_clust_3="65.79890" pt_clust_4="154.05103" pt_clust_5="47.92888" pt_clust_6="47.92888"></scales>
<clustering>
<clus scale="   47.929">  5  6 -1 -1</clus>
<clus scale="   65.799">  2  3  1 -1</clus>
<clus scale="  154.051">  2  4  1 -1</clus>
<clus scale="   65.799">  2  3  1 -1</clus>
</clustering>
</event>
<event>
 6    0  0.1361744E+002  0.1289420E+03  0.7546771E-02  0.1229034E+00
         21   -1    0    0  501  502  0.00000000000E+00  0.00000000000E+00  0.73726588842E+03  0.73726588842E+03  0.00000000000E+00 0. -1.
          3   -1    0    0  503    0 -0.00000000000E+00 -0.00000000000E+00 -0.72677629873E+02  0.72677629873E+02  0.00000000000E+00 0. -1.
         21    1    1    2  503  505 -0.89972343495E+02 -0.59883718657E+01 -0.17670239291E+02  0.91886454651E+02  0.00000000000E+00 0.  1.
         21    1    1    2  504  502  0.32558057000E+02  0.42537844578E+02  0.20525102990E+03  0.21212609593E+03  0.00000000000E+00 0. -1.
         21    1    1    2  505  504  0.76369625846E+02  0.18234893611E+02  0.40945125633E+03  0.41691145632E+03  0.00000000000E+00 0. -1.
          3    1    1    2  501    0 -0.18955339350E+02 -0.54784366323E+02  0.67556211605E+02  0.89019511399E+02  0.00000000000E+00 0. -1.
<scales pt_clust_3="119.81347" pt_clust_4="39.36028" pt_clust_5="39.36028" pt_clust_6="57.97096"></scales>
<clustering>
<clus scale="   39.360">  4  5 -1 -1</clus>
<clus scale="   57.971">  2  6  1 -1</clus>
<clus scale="  119.813">  2  3  1 -1</clus>
<clus scale="  128.942">  1  3  2 -1</clus>
</clustering>
</event>
<event>
 6    0  0.1361744E+002  0.1406430E+03  0.7546771E-02  0.1212466E+00
          1   -1    0    0  503    0 -0.00000000000E+00  0.00000000000E+00  0.37167314926E+03  0.37167314926E+03  0.00000000000E+00 0.  1.
         21   -1    0    0  505  502  0.00000000000E+00 -0.00000000000E+00 -0.44192547471E+03  0.44192547471E+03  0.00000000000E+00 0.  1.
         21    1    1    2  503  502 -0.76281281262E+02  0.41334256914E+02 -0.34578984106E+03  0.35650802073E+03  0.00000000000E+00 0.  1.
         21    1    1    2  504  501 -0.87044946878E+02 -0.10755523070E+03  0.44988925285E+02  0.14549554573E+03  0.00000000000E+00 0. -1.
         21    1    1    2  505  504  0.30574335843E+02  0.56799591749E+01 -0.78670068943E+01  0.32077121846E+02  0.00000000000E+00 0. -1.
          1    1    1    2  501    0  0.13275189230E+03  0.60541014615E+02  0.23841559722E+03  0.27951793566E+03  0.00000000000E+00 0.  1.
<scales pt_clust_3="68.60076" pt_clust_4="140.64302" pt_clust_5="31.09746" pt_clust_6="14000.00000"></scales>
<clustering>
<clus scale="   31.097">  2  5  1 -1</clus>
<clus scale="   68.601">  2  3  1 -1</clus>
<clus scale="  140.643">  2  4  1 -1</clus>
<clus scale="   31.097">  2  3  1 -1</clus>
</clustering>
</event>
<event>
 6    0  0.1361744E+002  0.8890250E+02  0.7546771E-02  0.1305531E+00
         21   -1    0    0  501  502  0.00000000000E+00  0.00000000000E+00  0.11821890475E+04  0.11821890475E+04  0.00000000000E+00 0.  1.
          2   -1    0    0  505    0 -0.00000000000E+00 -0.00000000000E+00 -0.38119485391E+03  0.38119485391E+03  0.00000000000E+00 0.  1.
         21    1    1    2  503  502  0.34171351951E+02 -0.42321473340E+01  0.38460435632E+03  0.38614259447E+03  0.00000000000E+00 0.  1.
         21    1    1    2  504  503  0.30904198968E+02  0.65282985051E+02  0.77847352983E+03  0.78181709773E+03  0.00000000000E+00 0.  1.
         21    1    1    2  505  504 -0.19578101957E+02  0.37084254196E+02 -0.50745030170E+02  0.65830100049E+02  0.00000000000E+00 0. -1.
          2    1    1    2  501    0 -0.45497448962E+02 -0.98135091913E+02 -0.31133866237E+03  0.32959410919E+03  0.00000000000E+00 0.  1.
<scales pt_clust_3="34.43243" pt_clust_4="88.90250" pt_clust_5="41.74941" pt_clust_6="14000.00000"></scales>
<clustering>
<clus scale="   34.432">  1  3  2 -1</clus>
<clus scale="   41.749">  2  5  1 -1</clus>
<clus scale="   88.903">  1  4  2 -1</clus>
<clus scale="   34.432">  1  3  2 -1</clus>
</clustering>
</event>
<event>
 6    0  0.1361744E+002  0.2084588E+03  0.7546771E-02  0.1142792E+00
          2   -1    0    0  504    0 -0.00000000000E+00  0.00000000000E+00  0.39080546993E+03  0.39080546993E+03  0.00000000000E+00 0. -1.
         21   -1    0    0  505  502  0.00000000000E+00 -0.00000000000E+00 -0.56769347036E+03  0.56769347036E+03  0.00000000000E+00 0. -1.
         21    1    1    2  503  501  0.13659045039E+03 -0.28771266710E+02  0.22981061569E+03  0.26888223446E+03  0.00000000000E+00 0. -1.
         21    1    1    2  504  502  0.56381203940E+02  0.24468939787E+02 -0.21429054513E+02  0.65090502758E+02  0.00000000000E+00 0. -1.
         21    1    1    2  505  503 -0.24512520350E+03  0.42488130698E+02 -0.46168008033E+03  0.52444265960E+03  0.00000000000E+00 0. -1.
          2    1    1    2  501    0  0.52153549176E+02 -0.38185803775E+02  0.76410518717E+02  0.10008354346E+03  0.00000000000E+00 0. -1.
<scales pt_clust_3="32.32737" pt_clust_4="61.46193" pt_clust_5="202.97349" pt_clust_6="32.32737"></scales>
<clustering>
<clus scale="   32.327">  3  6 -1 -1</clus>
<clus scale="   61.462">  2  4  1 -1</clus>
<clus scale="  202.973">  2  5  1 -1</clus>
<clus scale="   61.462">  2  3  1 -1</clus>
</clustering>
</event>
<event>
 6    0  0.1361744E+002  0.8307281E+02  0.7546771E-02  0.1320551E+00
         21   -1    0    0  504  502  0.00000000000E+00  0.00000000000E+00  0.10163118678E+03  0.10163118678E+03  0.00000000000E+00 0. -1.
          2   -1    0    0  505    0 -0.00000000000E+00 -0.00000000000E+00 -0.13197824350E+04  0.13197824350E+04  0.00000000000E+00 0. -1.
         21    1    1    2  503  501 -0.27487893334E+02  0.10589109304E+03 -0.58430406799E+03  0.59445752728E+03  0.00000000000E+00 0. -1.
         21    1    1    2  504  503  0.29986373433E+02 -0.15527101431E+02 -0.10257275391E+02  0.35291431948E+02  0.00000000000E+00 0. -1.
         21    1    1    2  505  502 -0.48829310822E+02 -0.31443402875E+02  0.71742662444E+02  0.92303839543E+02  0.00000000000E+00 0. -1.
          2    1    1    2  501    0  0.46330830724E+02 -0.58920588739E+02 -0.69533256728E+03  0.69936082302E+03  0.00000000000E+00 0. -1.
<scales pt_clust_3="83.07281" pt_clust_4="33.76794" pt_clust_5="50.42182" pt_clust_6="14000.00000"></scales>
<clustering>
<clus scale="   33.768">  1  4  2 -1</clus>
<clus scale="   50.422">  1  5  2 -1</clus>
<clus scale="   83.073">  1  3  2 -1</clus>
<clus scale="   33.768">  1  3  2 -1</clus>
</clustering>
</event>
<event>
 6    0  0.1361744E+002  0.1394050E+03  0.7546771E-02  0.1214132E+00
          1   -1    0    0  505    0 -0.00000000000E+00  0.00000000000E+00  0.87771958046E+03  0.87771958046E+03  0.00000000000E+00 0.  1.
         21   -1    0    0  501  502  0.00000000000E+00 -0.00000000000E+00 -0.37073506901E+02  0.37073506901E+02  0.00000000000E+00 0.  1.
         21    1    1    2  503  502 -0.52598571278E+02 -0.14757769514E+02  0.19496092440E+03  0.20247015461E+03  0.00000000000E+00 0.  1.
         21    1    1    2  504  503 -0.43743259015E+02 -0.65655444559E+02  0.35686380748E+03  0.36548035132E+03  0.00000000000E+00 0.  1.
         21    1    1    2  505  504  0.18985023883E+02 -0.28241161683E+02  0.15201634219E+03  0.15577856926E+03  0.00000000000E+00 0.  1.
          1    1    1    2  501    0  0.77356806410E+02  0.10865437576E+03  0.13680499948E+03  0.19106401218E+03  0.00000000000E+00 0.  1.
<scales pt_clust_3="37.35901" pt_clust_4="37.35901" pt_clust_5="34.02932" pt_clust_6="130.86077"></scales>
<clustering>
<clus scale="   34.029">  1  5  2 -1</clus>
<clus scale="   37.359">  3  4 -1 -1</clus>
<clus scale="  130.861">  2  6  1 -1</clus>
<clus scale="  130.861">  2  3  1 -1</clus>
</clustering>
</event>
<event>
 6    0  0.1361744E+002  0.1004189E+03  0.7546771E-02  0.1279418E+00
         21   -1    0    0  504  502  0.00000000000E+00  0.00000000000E+00  0.11661961372E+04  0.11661961372E+04  0.00000000000E+00 0.  1.
         -2   -1    0    0    0  501 -0.00000000000E+00 -0.00000000000E+00 -0.17150970854E+04  0.17150970854E+04  0.00000000000E+00 0. -1.
         21    1    1    2  503  502  0.91209402271E+02  0.77559233974E+01  0.54930734414E+03  0.55688227458E+03  0.00000000000E+00 0.  1.
         21    1    1    2  504  505 -0.11273044194E+03  0.58573030177E+02  0.60550299212E+03  0.61868637117E+03  0.00000000000E+00 0.  1.
         21    1    1    2  505  501  0.11638099565E+02 -0.34556639807E+02 -0.41934460683E+03  0.42092696040E+03  0.00000000000E+00 0.  1.
         -2    1    1    2    0  503  0.98829401053E+01 -0.31772313767E+02 -0.12843666776E+04  0.12847976164E+04  0.00000000000E+00 0. -1.
<scales pt_clust_3="100.41890" pt_clust_4="14000.00000" pt_clust_5="68.93083" pt_clust_6="33.27390"></scales>
<clustering>
<clus scale="   33.274">  2  6  1 -1</clus>
<clus scale="   68.931">  2  5  1 -1</clus>
<clus scale="  100.419">  1  3  2 -1</clus>
<clus scale="  100.419">  1  3  2 -1</clus>
</clustering>
</event>
<event>
 6    0  0.1361744E+002  0.1816374E+03  0.7546771E-02  0.1166228E+00
         -4   -1    0    0    0  501 -0.00000000000E+00  0.00000000000E+00  0.91591161303E+03  0.91591161303E+03  0.00000000000E+00 0.  1.
         21   -1    0    0  503  502  0.00000000000E+00 -0.00000000000E+00 -0.17350685614E+03  0.17350685614E+03  0.00000000000E+00 0. -1.
         21    1    1    2  503  505 -0.11950305586E+03  0.71063407527E+02 -0.10603089140E+03  0.17485290441E+03  0.00000000000E+00 0. -1.
         21    1    1    2  504  502 -0.53662147829E+02  0.68527188320E+01  0.16438599408E+02  0.56540369785E+02  0.00000000000E+00 0.  1.
         21    1    1    2  505  501  0.43420866693E+02  0.16455660573E+02  0.13366852210E+03  0.14150418450E+03  0.00000000000E+00 0.  1.
         -4    1    1    2    0  504  0.12974433700E+03 -0.94371786932E+02  0.69832852678E+03  0.71652101048E+03  0.00000000000E+00 0.  1.
<scales pt_clust_3="181.63739" pt_clust_4="52.18642" pt_clust_5="46.43447" pt_clust_6="14000.00000"></scales>
<clustering>
<clus scale="   46.434">  1  5  2 -1</clus>
<clus scale="   52.186">  2  4  1 -1</clus>
<clus scale="  181.637">  2  3  1 -1</clus>
<clus scale="   52.186">  2  3  1 -1</clus>
</clustering>
</event>
<event>
 6    0  0.1361744E+002  0.1792477E+03  0.7546771E-02  0.1168533E+00
          2   -1    0    0  505    0 -0.00000000000E+00  0.00000000000E+00  0.96841680117E+03  0.96841680117E+03  0.00000000000E+00 0.  1.
         21   -1    0    0  503  502  0.00000000000E+00 -0.00000000000E+00 -0.22448826502E+03  0.22448826502E+03  0.00000000000E+00 0. -1.
         21    1    1    2  503  504  0.41007436162E+02  0.15931890207E+02  0.34207593842E+01  0.44126370130E+02  0.00000000000E+00 0.  1.
         21    1    1    2  504  501  0.28435752271E+02  0.12193918126E+03  0.51548096474E+03  0.53046996234E+03  0.00000000000E+00 0.  1.
         21    1    1    2  505  502 -0.55261168306E+02 -0.18086573466E+03 -0.14948880251E+03  0.24106661480E+03  0.00000000000E+00 0. -1.
          2    1    1    2  501    0 -0.14182020127E+02  0.42994663198E+02  0.37451561453E+03  0.37724211892E+03  0.00000000000E+00 0.  1.
<scales pt_clust_3="43.99358" pt_clust_4="40.07181" pt_clust_5="166.39938" pt_clust_6="40.07181"></scales>
<clustering>
<clus scale="   40.072">  4  6 -1 -1</clus>
<clus scale="   43.994">  2  3  1 -1</clus>
<clus scale="  166.399">  2  5  1 -1</clus>
<clus scale="   43.994">  2  3  1 -1</clus>
</clustering>
</event>
<event>
 6    0  0.1361744E+002  0.9790396E+02  0.7546771E-02  0.1284766E+00
          2   -1    0    0  504    0 -0.00000000000E+00  0.00000000000E+00  0.45527256528E+03  0.45527256528E+03  0.00000000000E+00 0. -1.
         21   -1    0    0  503  502  0.00000000000E+00 -0.00000000000E+00 -0.33927186486E+03  0.33927186486E+03  0.00000000000E+00 0. -1.
         21    1    1    2  503  505  0.16721544611E+02  0.50451149147E+02 -0.66373222631E+02  0.85031365900E+02  0.00000000000E+00 0.  1.
         21    1    1    2  504  502  0.48236601333E+02 -0.32242392220E+02 -0.22875424654E+03  0.23599755693E+03  0.00000000000E+00 0. -1.
         21    1    1    2  505  501 -0.35128623834E+02  0.83397416983E+02  0.64646560059E+02  0.11121298080E+03  0.00000000000E+00 0. -1.
          2    1    1    2  501    0 -0.29829522110E+02 -0.10160617391E+03  0.34648160954E+03  0.36230252651E+03  0.00000000000E+00 0. -1.
<scales pt_clust_3="53.15006" pt_clust_4="64.15712" pt_clust_5="14000.00000" pt_clust_6="97.90396"></scales>
<clustering>
<clus scale="   53.150">  2  3  1 -1</clus>
<clus scale="   64.157">  2  4  1 -1</clus>
<clus scale="   97.904">  1  6  2 -1</clus>
<clus scale="   53.150">  2  3  1 -1</clus>
</clustering>
</event>
<event>
 6    0  0.1361744E+002  0.4056935E+03  0.7546771E-02  0.1041826E+00
          4   -1    0    0  503    0 -0.00000000000E+00  0.00000000000E+00  0.20578712755E+04  0.20578712755E+04  0.00000000000E+00 0.  1.
         21   -1    0    0  504  502  0.00000000000E+00 -0.00000000000E+00 -0.91353097739E+02  0.91353097739E+02  0.00000000000E+00 0.  1.
         21    1    1    2  503  505 -0.92140569778E+02 -0.15914902919E+02  0.27556257516E+03  0.29099467618E+03  0.00000000000E+00 0. -1.
         21    1    1    2  504  501  0.32863698450E+02  0.16292803956E+02  0.61181356288E+02  0.71334679461E+02  0.00000000000E+00 0.  1.
         21    1    1    2  505  502 -0.27063622502E+03 -0.83112447466E+02  0.29261493383E+03  0.40715493944E+03  0.00000000000E+00 0.  1.
          4    1    1    2  501    0  0.32991309634E+03  0.82734546428E+02  0.13371593125E+04  0.13797400782E+04  0.00000000000E+00 0.  1.
<scales pt_clust_3="87.48581" pt_clust_4="30.88998" pt_clust_5="87.48581" pt_clust_6="387.63556"></scales>
<clustering>
<clus scale="   30.890">  4  6 -1 -1</clus>
<clus scale="   87.486">  3  5 -1 -1</clus>
<clus scale="  387.636">  1  4  2 -1</clus>
<clus scale="  405.693">  2  3  1 -1</clus>
</clustering>
</event>
<event>
 6    0  0.1361744E+002  0.9804132E+02  0.7546771E-02  0.1284470E+00
         21   -1    0    0  505  502  0.00000000000E+00  0.00000000000E+00  0.11097825980E+04  0.11097825980E+04  0.00000000000E+00 0. -1.
          2   -1    0    0  504    0 -0.00000000000E+00 -0.00000000000E+00 -0.14092484085E+04  0.14092484085E+04  0.00000000000E+00 0. -1.
         21    1    1    2  503  502  0.33801072649E+02  0.46710519600E+01  0.11904735896E+03  0.12384104697E+03  0.00000000000E+00 0. -1.
         21    1    1    2  504  503 -0.10462019791E+02  0.46292505834E+02 -0.14179981665E+03  0.14953139455E+03  0.00000000000E+00 0.  1.
         21    1    1    2  505  501 -0.48107527432E+02 -0.10180043427E+03  0.98061559809E+03  0.98705856656E+03  0.00000000000E+00 0. -1.
          2    1    1    2  501    0  0.24768474574E+02  0.50836876477E+02 -0.12573289509E+04  0.12585999984E+04  0.00000000000E+00 0. -1.
<scales pt_clust_3="34.12230" pt_clust_4="47.44885" pt_clust_5="14000.00000" pt_clust_6="98.04132"></scales>
<clustering>
<clus scale="   34.122">  1  3  2 -1</clus>
<clus scale="   47.449">  2  4  1 -1</clus>
<clus scale="   98.041">  2  6  1 -1</clus>
<clus scale="   34.122">  1  3  2 -1</clus>
</clustering>
</event>
<event>
 6    0  0.1361744E+002  0.1341001E+03  0.7546771E-02  0.1221496E+00
         21   -1    0    0  504  502  0.00000000000E+00  0.00000000000E+00  0.48969869840E+03  0.48969869840E+03  0.00000000000E+00 0.  1.
          2   -1    0    0  503    0 -0.00000000000E+00 -0.00000000000E+00 -0.10104539567E+03  0.10104539567E+03  0.00000000000E+00 0.  1.
         21    1    1    2  503  505 -0.36430284767E+02  0.39950421266E+00  0.26859852360E+02  0.45263417023E+02  0.00000000000E+00 0.  1.
         21    1    1    2  504  501 -0.26463271899E+02 -0.39304066722E+02  0.23299080842E+03  0.23776002866E+03  0.00000000000E+00 0. -1.
         21    1    1    2  505  502 -0.65690649454E+02  0.43187752278E+02  0.15738582512E+03  0.17592822775E+03  0.00000000000E+00 0.  1.
          2    1    1    2  501    0  0.12858420612E+03 -0.42831897682E+01 -0.28583183161E+02  0.13179242064E+03  0.00000000000E+00 0.  1.
<scales pt_clust_3="35.04879" pt_clust_4="47.38264" pt_clust_5="35.04879" pt_clust_6="123.82283"></scales>
<clustering>
<clus scale="   35.049">  3  5 -1 -1</clus>
<clus scale="   47.383">  1  4  2 -1</clus>
<clus scale="  123.823">  2  6  1 -1</clus>
<clus scale="   47.383">  1  3  2 -1</clus>
</clustering>
</event>
<event>
 6    0  0.1361744E+002  0.1241890E+03  0.7546771E-02  0.1236342E+00
          1   -1    0    0  505    0 -0.00000000000E+00  0.00000000000E+00  0.58075597070E+03  0.58075597070E+03  0.00000000000E+00 0. -1.
         21   -1    0    0  503  502  0.00000000000E+00 -0.00000000000E+00 -0.20913135466E+03  0.20913135466E+03  0.00000000000E+00 0.  1.
         21    1    1    2  503  501 -0.44118867712E+02  0.23935828969E+02  0.31201635228E+01  0.50290494300E+02  0.00000000000E+00 0.  1.
         21    1    1    2  504  502 -0.31958577181E+02  0.74692164370E+02 -0.15668716284E+03  0.17649684720E+03  0.00000000000E+00 0.  1.
         21    1    1    2  505  504 -0.14311232211E+02  0.36560415978E+02  0.12865556155E+03  0.13451293209E+03  0.00000000000E+00 0. -1.
          1    1    1    2  501    0  0.90388677103E+02 -0.13518840932E+03  0.39653605381E+03  0.42858705176E+03  0.00000000000E+00 0. -1.
<scales pt_clust_3="51.99985" pt_clust_4="14000.00000" pt_clust_5="39.26163" pt_clust_6="124.18900"></scales>
<clustering>
<clus scale="   39.262">  1  5  2 -1</clus>
<clus scale="   52.000">  2  3  1 -1</clus>
<clus scale="  124.189">  1  6  2 -1</clus>
<clus scale="   52.000">  2  3  1 -1</clus>
</clustering>
</event>
<event>
 6    0  0.1361744E+002  0.2042633E+03  0.7546771E-02  0.1146191E+00
         21   -1    0    0  503  502  0.00000000000E+00  0.00000000000E+00  0.15389324300E+03  0.15389324300E+03  0.00000000000E+00 0.  1.
         -3   -1    0    0    0  501 -0.00000000000E+00 -0.00000000000E+00 -0.27294283381E+04  0.27294283381E+04  0.00000000000E+00 0. -1.
         21    1    1    2  503  505 -0.52392905463E+02  0.83852342120E+02  0.14888594326E+02  0.99989509764E+02  0.00000000000E+00 0.  1.
         21    1    1    2  504  502  0.23271057212E+02  0.25762305541E+02 -0.61669041185E+02  0.70769408160E+02  0.00000000000E+00 0.  1.
         21    1    1    2  505  501 -0.16220433279E+03 -0.29546304979E+02  0.10164265804E+02  0.16518638568E+03  0.00000000000E+00 0.  1.
         -3    1    1    2    0  504  0.19132618104E+03 -0.80068342683E+02 -0.25389189140E+04  0.25473762775E+04  0.00000000000E+00 0. -1.
<scales pt_clust_3="103.33610" pt_clust_4="34.71654" pt_clust_5="204.26327" pt_clust_6="14000.00000"></scales>
<clustering>
<clus scale="   34.717">  1  4  2 -1</clus>
<clus scale="  103.336">  1  3  2 -1</clus>
<clus scale="  204.263">  1  5  2 -1</clus>
<clus scale="   34.717">  1  3  2 -1</clus>
</clustering>
</event>
<event>
 6    0  0.1361744E+002  0.1070790E+03  0.7546771E-02  0.1266077E+00
         21   -1    0    0  504  502  0.00000000000E+00  0.00000000000E+00  0.59647054770E+02  0.59647054770E+02  0.00000000000E+00 0.  1.
          2   -1    0    0  505    0 -0.00000000000E+00 -0.00000000000E+00 -0.14019808587E+04  0.14019808587E+04  0.00000000000E+00 0. -1.
         21    1    1    2  503  501 -0.34785974725E+02  0.85711178357E+01 -0.31340140950E+03  0.31544250121E+03  0.00000000000E+00 0.  1.
         21    1    1    2  504  503  0.88113098105E+02 -0.34907078500E+02  0.92321089932E+01  0.95224230233E+02  0.00000000000E+00 0.  1.
         21    1    1    2  505  502 -0.25988086998E+02 -0.42045832605E+02 -0.11908523253E+03  0.12893612881E+03  0.00000000000E+00 0. -1.
          2    1    1    2  501    0 -0.27339036382E+02  0.68381793270E+02 -0.91907927091E+03  0.92202505322E+03  0.00000000000E+00 0. -1.
<scales pt_clust_3="35.12455" pt_clust_4="94.49796" pt_clust_5="49.42907" pt_clust_6="35.12455"></scales>
<clustering>
<clus scale="   35.125">  3  6 -1 -1</clus>
<clus scale="   49.429">  2  5  1 -1</clus>
<clus scale="   94.498">  1  4  2 -1</clus>
<clus scale="   94.498">  1  3  2 -1</clus>
</clustering>
</event>
<event>
 6    0  0.1361744E+002  0.1807917E+03  0.7546771E-02  0.1167039E+00
         21   -1    0    0  501  502  0.00000000000E+00  0.00000000000E+00  0.62259808748E+03  0.62259808748E+03  0.00000000000E+00 0. -1.
         -3   -1    0    0    0  501 -0.00000000000E+00 -0.00000000000E+00 -0.16777327264E+03  0.16777327264E+03  0.00000000000E+00 0. -1.
         21    1    1    2  503  505 -0.76884039750E+02  0.73784582122E+01 -0.25320679788E+02  0.81281818623E+02  0.00000000000E+00 0. -1.
         21    1    1    2  504  502  0.10324819989E+03 -0.11267039455E+02  0.34758655989E+03  0.36277204078E+03  0.00000000000E+00 0. -1.
         21    1    1    2  505  504  0.61888510857E+02 -0.44279182701E+02  0.20743819576E+03  0.22095573959E+03  0.00000000000E+00 0. -1.
         -3    1    1    2    0  503 -0.88252670998E+02  0.48167763944E+02 -0.74879261015E+02  0.12536176112E+03  0.00000000000E+00 0. -1.
<scales pt_clust_3="42.08933" pt_clust_4="41.31887" pt_clust_5="41.31887" pt_clust_6="180.72504"></scales>
<clustering>
<clus scale="   41.319">  4  5 -1 -1</clus>
<clus scale="   42.089">  3  6 -1 -1</clus>
<clus scale="  180.725">  2  3  1 -1</clus>
<clus scale="  180.792">  1  3  2 -1</clus>
</clustering>
</event>
<event>
 6    0  0.1361744E+002  0.1478898E+03  0.7546771E-02  0.1203090E+00
          2   -1    0    0  503    0 -0.00000000000E+00  0.00000000000E+00  0.15707087787E+04  0.15707087787E+04  0.00000000000E+00 0. -1.
         21   -1    0    0  505  502  0.00000000000E+00 -0.00000000000E+00 -0.40351028979E+03  0.40351028979E+03  0.00000000000E+00 0.  1.
         21    1    1    2  503  504  0.29529516048E+02  0.98356380045E+02  0.54635605362E+03  0.55592347237E+03  0.00000000000E+00 0. -1.
         21    1    1    2  504  502 -0.18493753462E+02  0.30260527921E+02 -0.61627831364E+02  0.71103502486E+02  0.00000000000E+00 0.  1.
         21    1    1    2  505  501  0.16034817720E+03 -0.68137281494E+02 -0.30061265206E+03  0.34745099459E+03  0.00000000000E+00 0.  1.
          2    1    1    2  501    0 -0.17138393979E+03 -0.60479626472E+02  0.98308291868E+03  0.99974109900E+03  0.00000000000E+00 0. -1.
<scales pt_clust_3="103.03003" pt_clust_4="35.46433" pt_clust_5="147.88984" pt_clust_6="14000.00000"></scales>
<clustering>
<clus scale="   35.464">  2  4  1 -1</clus>
<clus scale="  103.030">  1  3  2 -1</clus>
<clus scale="  147.890">  2  5  1 -1</clus>
<clus scale="   35.464">  2  3  1 -1</clus>
</clustering>
</event>
<event>
 6    0  0.1361744E+002  0.1584258E+03  0.7546771E-02  0.1190486E+00
         21   -1    0    0  503  502  0.00000000000E+00  0.00000000000E+00  0.56781700217E+02  0.56781700217E+02  0.00000000000E+00 0. -1.
         -1   -1    0    0    0  501 -0.00000000000E+00 -0.00000000000E+00 -0.12972300738E+04  0.12972300738E+04  0.00000000000E+00 0. -1.
         21    1    1    2  503  505 -0.33938503650E+02 -0.95187031524E+01 -0.73736860419E+02  0.81728528215E+02  0.00000000000E+00 0.  1.
         21    1    1    2  504  501 -0.46972625158E+01  0.38040033406E+02 -0.13073845213E+03  0.13624115121E+03  0.00000000000E+00 0.  1.
         21    1    1    2  505  504 -0.47650087861E+02 -0.13687844461E+03 -0.71388600741E+02  0.16156290350E+03  0.00000000000E+00 0. -1.
         -1    1    1    2    0  502  0.86285854027E+02  0.10835711436E+03 -0.96458446029E+03  0.97447919110E+03  0.00000000000E+00 0. -1.
<scales pt_clust_3="35.24809" pt_clust_4="38.09667" pt_clust_5="14000.00000" pt_clust_6="158.42579"></scales>
<clustering>
<clus scale="   35.248">  1  3  2 -1</clus>
<clus scale="   38.097">  2  4  1 -1</clus>
<clus scale="  158.426">  2  6  1 -1</clus>
<clus scale="   35.248">  1  3  2 -1</clus>
</clustering>
</event>
<event>
 6    0  0.1361744E+002  0.8370203E+02  0.7546771E-02  0.1318862E+00
         21   -1    0    0  505  502  0.00000000000E+00  0.00000000000E+00  0.12953131810E+04  0.12953131810E+04  0.00000000000E+00 0. -1.
         -4   -1    0    0    0  501 -0.00000000000E+00 -0.00000000000E+00 -0.66119586154E+02  0.66119586154E+02  0.00000000000E+00 0.  1.
         21    1    1    2  503  501  0.61331112558E+01  0.10817374258E+03  0.75067102357E+02  0.13181139364E+03  0.00000000000E+00 0.  1.
         21    1    1    2  504  502 -0.82758356056E+02 -0.11610219027E+02  0.76325934144E+03  0.76782065939E+03  0.00000000000E+00 0. -1.
         21    1    1    2  505  503  0.26798873968E+02 -0.33462111426E+02  0.37794310578E+03  0.38036677530E+03  0.00000000000E+00 0. -1.
         -4    1    1    2    0  504  0.49826370833E+02 -0.63101412124E+02  0.12924045237E+02  0.81433938795E+02  0.00000000000E+00 0.  1.
<scales pt_clust_3="14000.00000" pt_clust_4="72.17920" pt_clust_5="42.87065" pt_clust_6="83.70203"></scales>
<clustering>
<clus scale="   42.871">  1  5  2 -1</clus>
<clus scale="   72.179">  1  4  2 -1</clus>
<clus scale="   83.702">  2  6  1 -1</clus>
<clus scale="   42.871">  1  3  2 -1</clus>
</clustering>
</event>
<event>
 6    0  0.1361744E+002  0.1701044E+03  0.7546771E-02  0.1177739E+00
          2   -1    0    0  504    0 -0.00000000000E+00  0.00000000000E+00  0.29415970702E+04  0.29415970702E+04  0.00000000000E+00 0. -1.
         21   -1    0    0  505  502  0.00000000000E+00 -0.00000000000E+00 -0.74192484724E+02  0.74192484724E+02  0.00000000000E+00 0. -1.
         21    1    1    2  503  502  0.39954143808E+02  0.47415166715E+02  0.70024036389E+02  0.93530194666E+02  0.00000000000E+00 0. -1.
         21    1    1    2  504  503  0.18446401702E+01  0.30969483664E+02  0.16041525454E+03  0.16338777648E+03  0.00000000000E+00 0. -1.
         21    1    1    2  505  501  0.98646190777E+00 -0.21287872793E+03  0.13317231096E+03  0.25110394325E+03  0.00000000000E+00 0. -1.
          2    1    1    2  501    0 -0.42785245886E+02  0.13449407755E+03  0.25037929836E+04  0.25077676405E+04  0.00000000000E+00 0. -1.
<scales pt_clust_3="62.73836" pt_clust_4="31.02437" pt_clust_5="170.10444" pt_clust_6="14000.00000"></scales>
<clustering>
<clus scale="   31.024">  1  4  2 -1</clus>
<clus scale="   62.738">  2  3  1 -1</clus>
<clus scale="  170.104">  2  5  1 -1</clus>
<clus scale="   62.738">  2  3  1 -1</clus>
</clustering>
</event>
<event>
 6    0  0.1361744E+002  0.8200377E+02  0.7546771E-02  0.1323459E+00
         21   -1    0    0  504  502  0.00000000000E+00  0.00000000000E+00  0.13080266572E+03  0.13080266572E+03  0.00000000000E+00 0. -1.
         -4   -1    0    0    0  501 -0.00000000000E+00 -0.00000000000E+00 -0.35020054247E+03  0.35020054247E+03  0.00000000000E+00 0. -1.
         21    1    1    2  503  501  0.74043473253E+01 -0.90735357628E+02 -0.95991686686E+02  0.13229562879E+03  0.00000000000E+00 0. -1.
         21    1    1    2  504  505 -0.73428979581E+01 -0.45060082916E+02  0.41163028220E+02  0.61471327585E+02  0.00000000000E+00 0. -1.
         21    1    1    2  505  503  0.25823261433E+02  0.61117126036E+02  0.33248636643E+02  0.74213312583E+02  0.00000000000E+00 0. -1.
         -4    1    1    2    0  502 -0.25884710800E+02  0.74678314509E+02 -0.19781785493E+03  0.21302293923E+03  0.00000000000E+00 0. -1.
<scales pt_clust_3="82.00377" pt_clust_4="45.65445" pt_clust_5="37.08080" pt_clust_6="14000.00000"></scales>
<clustering>
<clus scale="   45.654">  1  4  2 -1</clus>
<clus scale="   37.081">  1  5  2 -1</clus>
<clus scale="   82.004">  1  3  2 -1</clus>
<clus scale="   45.654">  1  3  2 -1</clus>
</clustering>
</event>
<event>
 6    0  0.1361744E+002  0.1256106E+03  0.7546771E-02  0.1234118E+00
         21   -1    0    0  505  502  0.00000000000E+00  0.00000000000E+00  0.30475691331E+03  0.30475691331E+03  0.00000000000E+00 0. -1.
         -1   -1    0    0    0  501 -0.00000000000E+00 -0.00000000000E+00 -0.24402681221E+03  0.24402681221E+03  0.00000000000E+00 0. -1.
         21    1    1    2  503  501  0.15665531591E+02 -0.39829241160E+02 -0.55813798501E+01  0.43161662763E+02  0.00000000000E+00 0. -1.
         21    1    1    2  504  502 -0.48332208297E+02  0.37480989756E+02  0.70000471370E+02  0.92956403459E+02  0.00000000000E+00 0. -1.
         21    1    1    2  505  503  0.51315550812E+02  0.98637177532E+02  0.17586843910E+03  0.20806798509E+03  0.00000000000E+00 0. -1.
         -1    1    1    2    0  504 -0.18648874107E+02 -0.96288926128E+02 -0.17955742952E+03  0.20459767422E+03  0.00000000000E+00 0. -1.
<scales pt_clust_3="42.79927" pt_clust_4="59.25103" pt_clust_5="14000.00000" pt_clust_6="125.61060"></scales>
<clustering>
<clus scale="   42.799">  2  3  1 -1</clus>
<clus scale="   59.251">  1  4  2 -1</clus>
<clus scale="  125.611">  2  6  1 -1</clus>
<clus scale="   59.251">  1  3  2 -1</clus>
</clustering>
</event>
<event>
 6    0  0.1361744E+002  0.1524572E+03  0.7546771E-02  0.1197486E+00
         21   -1    0    0  505  502  0.00000000000E+00  0.00000000000E+00  0.30034300262E+03  0.30034300262E+03  0.00000000000E+00 0. -1.
          4   -1    0    0  502    0 -0.00000000000E+00 -0.00000000000E+00 -0.63063090807E+03  0.63063090807E+03  0.00000000000E+00 0. -1.
         21    1    1    2  503  504 -0.64226436238E+02  0.29592936912E+02  0.17894883879E+03  0.19241482253E+03  0.00000000000E+00 0. -1.
         21    1    1    2  504  501  0.65040562557E+02  0.19016987806E+01 -0.21966370816E+03  0.22909831060E+03  0.00000000000E+00 0.  1.
         21    1    1    2  505  503 -0.56192109193E+02  0.34328569469E+02  0.94885982463E+02  0.11549611892E+03  0.00000000000E+00 0. -1.
          4    1    1    2  501    0  0.55377982874E+02 -0.65823205162E+02 -0.38445901853E+03  0.39396465864E+03  0.00000000000E+00 0. -1.
<scales pt_clust_3="140.79644" pt_clust_4="59.34997" pt_clust_5="33.93964" pt_clust_6="59.34997"></scales>
<clustering>
<clus scale="   33.940">  3  5 -1 -1</clus>
<clus scale="   59.350">  4  6 -1 -1</clus>
<clus scale="  140.796">  1  3  2 -1</clus>
<clus scale="  140.796">  1  3  2 -1</clus>
</clustering>
</event>
<event>
 6    0  0.1361744E+002  0.1896080E+03  0.7546771E-02  0.1158815E+00
          2   -1    0    0  503    0 -0.00000000000E+00  0.00000000000E+00  0.23680545992E+04  0.23680545992E+04  0.00000000000E+00 0.  1.
         21   -1    0    0  501  502  0.00000000000E+00 -0.00000000000E+00 -0.95129327031E+02  0.95129327031E+02  0.00000000000E+00 0.  1.
         21    1    1    2  503  505 -0.13220805946E+01  0.34989450439E+02  0.12355250521E+03  0.12841818828E+03  0.00000000000E+00 0. -1.
         21    1    1    2  504  502 -0.11298860562E+02 -0.53343411847E+02  0.51889969569E+02  0.75271194884E+02  0.00000000000E+00 0. -1.
         21    1    1    2  505  504 -0.16723123898E+03 -0.19436205205E+02  0.15116465290E+02  0.16903420035E+03  0.00000000000E+00 0.  1.
          2    1    1    2  501    0  0.17985218014E+03  0.37790166612E+02  0.20823663321E+04  0.20904603427E+04  0.00000000000E+00 0.  1.
<scales pt_clust_3="35.01442" pt_clust_4="53.56453" pt_clust_5="189.60805" pt_clust_6="14000.00000"></scales>
<clustering>
<clus scale="   35.014">  1  3  2 -1</clus>
<clus scale="   53.565">  2  4  1 -1</clus>
<clus scale="  189.608">  2  5  1 -1</clus>
<clus scale="   53.565">  2  3  1 -1</clus>
</clustering>
</event>
<event>
 6    0  0.1361744E+002  0.1805829E+03  0.7546771E-02  0.1167240E+00
          2   -1    0    0  503    0 -0.00000000000E+00  0.00000000000E+00  0.29428007477E+03  0.29428007477E+03  0.00000000000E+00 0.  1.
         21   -1    0    0  504  502  0.00000000000E+00 -0.00000000000E+00 -0.14509784728E+03  0.14509784728E+03  0.00000000000E+00 0.  1.
         21    1    1    2  503  505 -0.14315120467E+02 -0.46022610590E+02  0.29558577131E+02  0.56539480379E+02  0.00000000000E+00 0.  1.
         21    1    1    2  504  501 -0.39021677009E+02  0.66059396243E+02  0.97028145891E+01  0.77334854494E+02  0.00000000000E+00 0. -1.
         21    1    1    2  505  502  0.10295792999E+03 -0.12702567634E+03  0.39759109504E+02  0.16827550203E+03  0.00000000000E+00 0.  1.
          2    1    1    2  501    0 -0.49621132511E+02  0.10698889068E+03  0.70161726263E+02  0.13722808515E+03  0.00000000000E+00 0.  1.
<scales pt_clust_3="48.19755" pt_clust_4="34.74484" pt_clust_5="175.36966" pt_clust_6="34.74484"></scales>
<clustering>
<clus scale="   34.745">  4  6 -1 -1</clus>
<clus scale="   48.198">  1  3  2 -1</clus>
<clus scale="  175.370">  2  5  1 -1</clus>
<clus scale="  175.370">  2  3  1 -1</clus>
</clustering>
</event>
<event>
 6    0  0.3291528E+002  0.9021981E+02  0.7546771E-02  0.1302320E+00
         21   -1    0    0  501  502  0.00000000000E+00  0.00000000000E+00  0.23256317207E+04  0.23256317207E+04  0.00000000000E+00 0. -1.
          1   -1    0    0  504    0 -0.00000000000E+00 -0.00000000000E+00 -0.36961870918E+03  0.36961870918E+03  0.00000000000E+00 0. -1.
         21    1    1    2  503  502  0.20804290389E+02 -0.34058036271E+02  0.19012714047E+04  0.19016902278E+04  0.00000000000E+00 0. -1.
         21    1    1    2  504  505  0.33491771729E+02 -0.19253106002E+02  0.34327387735E+02  0.51679303526E+02  0.00000000000E+00 0. -1.
         21    1    1    2  505  503 -0.83916816449E+02 -0.32156692125E+02  0.37001279792E+03  0.38076968834E+03  0.00000000000E+00 0.  1.
          1    1    1    2  501    0  0.29620754331E+02  0.85467834398E+02 -0.34959857883E+03  0.36111121018E+03  0.00000000000E+00 0. -1.
<scales pt_clust_3="39.92916" pt_clust_4="38.63135" pt_clust_5="14000.00000" pt_clust_6="90.21981"></scales>
<clustering>
<clus scale="   38.631">  2  4  1 -1</clus>
<clus scale="   39.929">  1  3  2 -1</clus>
<clus scale="   90.220">  2  6  1 -1</clus>
<clus scale="   39.929">  1  3  2 -1</clus>
</clustering>
</event>
<event>
 6    0  0.1361744E+002  0.1606303E+03  0.7546771E-02  0.1187987E+00
         21   -1    0    0  501  502  0.00000000000E+00  0.00000000000E+00  0.52703886668E+02  0.52703886668E+02  0.00000000000E+00 0. -1.
          1   -1    0    0  503    0 -0.00000000000E+00 -0.00000000000E+00 -0.15200257825E+04  0.15200257825E+04  0.00000000000E+00 0. -1.
         21    1    1    2  503  505  0.80450336376E+02 -0.11409257050E+03 -0.56210196074E+03  0.57917871641E+03  0.00000000000E+00 0. -1.
         21    1    1    2  504  502  0.41807593081E+02  0.19934048203E+02 -0.26658059308E+01  0.46393400805E+02  0.00000000000E+00 0. -1.
         21    1    1    2  505  504  0.47256420100E+02 -0.48645604242E+01 -0.38692222215E+02  0.61269252066E+02  0.00000000000E+00 0. -1.
          1    1    1    2  501    0 -0.16951434956E+03  0.99023082724E+02 -0.86386190696E+03  0.88588829991E+03  0.00000000000E+00 0. -1.
<scales pt_clust_3="14000.00000" pt_clust_4="40.96557" pt_clust_5="99.40201" pt_clust_6="160.63029"></scales>
<clustering>
<clus scale="   40.966">  4  5 -1 -1</clus>
<clus scale="   99.402">  1  4  2 -1</clus>
<clus scale="  160.630">  1  6  2 -1</clus>
<clus scale="   99.402">  1  3  2 -1</clus>
</clustering>
</event>
<event>
 6    0  0.1361744E+002  0.1037913E+03  0.7546771E-02  0.1272519E+00
          2   -1    0    0  505    0 -0.00000000000E+00  0.00000000000E+00  0.39535705031E+03  0.39535705031E+03  0.00000000000E+00 0. -1.
         21   -1    0    0  503  502  0.00000000000E+00 -0.00000000000E+00 -0.14579013583E+03  0.14579013583E+03  0.00000000000E+00 0.  1.
         21    1    1    2  503  504  0.88067706863E+02  0.65994993037E+02 -0.31407202579E+02  0.11444506312E+03  0.00000000000E+00 0.  1.
         21    1    1    2  504  501 -0.90020757928E+02  0.68073475469E+01  0.60027128269E+02  0.10841278968E+03  0.00000000000E+00 0. -1.
         21    1    1    2  505  502  0.59974034155E+02 -0.40255907112E+02 -0.14458180047E+02  0.73664521993E+02  0.00000000000E+00 0.  1.
          2    1    1    2  501    0 -0.58020983090E+02 -0.32546433471E+02  0.23540516883E+03  0.24462481134E+03  0.00000000000E+00 0. -1.
<scales pt_clust_3="103.79134" pt_clust_4="14000.00000" pt_clust_5="67.46294" pt_clust_6="66.52597"></scales>
<clustering>
<clus scale="   66.526">  1  6  2 -1</clus>
<clus scale="   67.463">  2  5  1 -1</clus>
<clus scale="  103.791">  2  3  1 -1</clus>
<clus scale="   67.463">  2  3  1 -1</clus>
</clustering>
</event>
<event>
 6    0  0.1376083E+002  0.6971194E+02  0.7546771E-02  0.1361075E+00
         21   -1    0    0  505  502  0.00000000000E+00  0.00000000000E+00  0.18328717054E+03  0.18328717054E+03  0.00000000000E+00 0. -1.
          1   -1    0    0  503    0 -0.00000000000E+00 -0.00000000000E+00 -0.86078062061E+03  0.86078062061E+03  0.00000000000E+00 0. -1.
         21    1    1    2  503  504 -0.21614170223E+02 -0.20893790655E+02 -0.54524054612E+02  0.62262311021E+02  0.00000000000E+00 0. -1.
         21    1    1    2  504  502 -0.70366539265E+02  0.25273643281E+02  0.15211166408E+03  0.16949385016E+03  0.00000000000E+00 0. -1.
         21    1    1    2  505  501  0.70888436116E+01 -0.51181587699E+02 -0.27616513160E+02  0.58587357188E+02  0.00000000000E+00 0.  1.
          1    1    1    2  501    0  0.84891865876E+02  0.46801735072E+02 -0.74746454638E+03  0.75372427279E+03  0.00000000000E+00 0. -1.
<scales pt_clust_3="30.06198" pt_clust_4="14000.00000" pt_clust_5="52.63878" pt_clust_6="69.71194"></scales>
<clustering>
<clus scale="   30.062">  2  3  1 -1</clus>
<clus scale="   52.639">  1  5  2 -1</clus>
<clus scale="   69.712">  2  6  1 -1</clus>
<clus scale="   52.639">  1  3  2 -1</clus>
</clustering>
</event>
<event>
 6    0  0.1361744E+002  0.5356636E+03  0.7546771E-02  0.1004868E+00
         21   -1    0    0  505  502  0.00000000000E+00  0.00000000000E+00  0.92981002247E+03  0.92981002247E+03  0.00000000000E+00 0. -1.
          1   -1    0    0  503    0 -0.00000000000E+00 -0.00000000000E+00 -0.64287324915E+03  0.64287324915E+03  0.00000000000E+00 0. -1.
         21    1    1    2  503  502  0.49063234675E+03  0.69985423962E+02  0.58752775397E+03  0.76863965610E+03  0.00000000000E+00 0. -1.
         21    1    1    2  504  501 -0.79556930060E+02 -0.49702428720E+02 -0.30829216262E+02  0.98742478785E+02  0.00000000000E+00 0. -1.
         21    1    1    2  505  504  0.20048159207E+02  0.66090766966E+02  0.10627244315E+03  0.12674285123E+03  0.00000000000E+00 0. -1.
          1    1    1    2  501    0 -0.43112357590E+03 -0.86373762209E+02 -0.37603420753E+03  0.57855828550E+03  0.00000000000E+00 0. -1.
<scales pt_clust_3="522.54026" pt_clust_4="54.43139" pt_clust_5="69.06459" pt_clust_6="54.43139"></scales>
<clustering>
<clus scale="   54.431">  4  6 -1 -1</clus>
<clus scale="   69.065">  1  5  2 -1</clus>
<clus scale="  522.540">  1  3  2 -1</clus>
<clus scale="   69.065">  1  3  2 -1</clus>
</clustering>
</event>
<event>
 6    0  0.1361744E+002  0.4603980E+03  0.7546771E-02  0.1024666E+00
         -3   -1    0    0    0  501 -0.00000000000E+00  0.00000000000E+00  0.42040325876E+03  0.42040325876E+03  0.00000000000E+00 0. -1.
         21   -1    0    0  504  502  0.00000000000E+00 -0.00000000000E+00 -0.19674838340E+04  0.19674838340E+04  0.00000000000E+00 0. -1.
         21    1    1    2  503  502 -0.10633025420E+03 -0.32361909817E+03 -0.13857220369E+04  0.14269761761E+04  0.00000000000E+00 0. -1.
         21    1    1    2  504  501  0.81602597730E+02  0.38715404463E+02  0.24537034883E+02  0.93594511484E+02  0.00000000000E+00 0. -1.
         21    1    1    2  505  503  0.23641369326E+02 -0.11946260395E+03 -0.39410619112E+03  0.41249232473E+03  0.00000000000E+00 0. -1.
         -3    1    1    2    0  505  0.10862871477E+01  0.40436629766E+03  0.20821061791E+03  0.45482408040E+03  0.00000000000E+00 0. -1.
<scales pt_clust_3="67.37361" pt_clust_4="90.32091" pt_clust_5="67.37361" pt_clust_6="446.39593"></scales>
<clustering>
<clus scale="   67.374">  3  5 -1 -1</clus>
<clus scale="   90.321">  1  4  2 -1</clus>
<clus scale="  446.396">  1  6  2 -1</clus>
<clus scale="  460.398">  2  3  1 -1</clus>
</clustering>
</event>
<event>
 6    0  0.1361744E+002  0.9110530E+02  0.7546771E-02  0.1300197E+00
          2   -1    0    0  503    0 -0.00000000000E+00  0.00000000000E+00  0.18410830830E+04  0.18410830830E+04  0.00000000000E+00 0. -1.
         21   -1    0    0  505  502  0.00000000000E+00 -0.00000000000E+00 -0.36806215507E+02  0.36806215507E+02  0.00000000000E+00 0.  1.
         21    1    1    2  503  504 -0.32394923447E+02 -0.25085654913E+02  0.12916275328E+04  0.12922772166E+04  0.00000000000E+00 0. -1.
         21    1    1    2  504  502 -0.33446823943E+02 -0.64065097509E+02  0.34449803426E+02  0.80061324663E+02  0.00000000000E+00 0.  1.
         21    1    1    2  505  501  0.27796575568E+02 -0.25066104294E+02  0.63295273309E+02  0.73534011322E+02  0.00000000000E+00 0. -1.
          2    1    1    2  501    0  0.38045171822E+02  0.11421685672E+03  0.41490425800E+03  0.43201674593E+03  0.00000000000E+00 0. -1.
<scales pt_clust_3="40.90597" pt_clust_4="91.10530" pt_clust_5="37.42939" pt_clust_6="14000.00000"></scales>
<clustering>
<clus scale="   37.429">  2  5  1 -1</clus>
<clus scale="   40.906">  1  3  2 -1</clus>
<clus scale="   91.105">  2  4  1 -1</clus>
<clus scale="   37.429">  2  3  1 -1</clus>
</clustering>
</event>
<event>
 6    0  0.1361744E+002  0.2022897E+03  0.7546771E-02  0.1147821E+00
         21   -1    0    0  504  502  0.00000000000E+00  0.00000000000E+00  0.39245277740E+03  0.39245277740E+03  0.00000000000E+00 0.  1.
         -3   -1    0    0    0  501 -0.00000000000E+00 -0.00000000000E+00 -0.62345224259E+03  0.62345224259E+03  0.00000000000E+00 0.  1.
         21    1    1    2  503  505 -0.95633337154E+02 -0.76592213693E+02  0.28142523306E+03  0.30694016384E+03  0.00000000000E+00 0.  1.
         21    1    1    2  504  503 -0.63118814017E+02 -0.29168753813E+02  0.63533192931E+02  0.94187406196E+02  0.00000000000E+00 0.  1.
         21    1    1    2  505  501  0.26893428493E+02  0.49706632018E+02 -0.76101017338E+02  0.94791194753E+02  0.00000000000E+00 0. -1.
         -3    1    1    2    0  502  0.13185872268E+03  0.56054335487E+02 -0.49985687385E+03  0.51998625521E+03  0.00000000000E+00 0.  1.
<scales pt_clust_3="55.96668" pt_clust_4="55.96668" pt_clust_5="56.51554" pt_clust_6="188.15353"></scales>
<clustering>
<clus scale="   55.967">  3  4 -1 -1</clus>
<clus scale="   56.516">  2  5  1 -1</clus>
<clus scale="  188.154">  2  6  1 -1</clus>
<clus scale="  202.290">  1  3  2 -1</clus>
</clustering>
</event>
<event>
 6    0  0.1361744E+002  0.7499879E+02  0.7546771E-02  0.1343875E+00
          1   -1    0    0  505    0 -0.00000000000E+00  0.00000000000E+00  0.10316692356E+04  0.10316692356E+04  0.00000000000E+00 0.  1.
         21   -1    0    0  504  502  0.00000000000E+00 -0.00000000000E+00 -0.24788238531E+03  0.24788238531E+03  0.00000000000E+00 0. -1.
         21    1    1    2  503  501  0.61294925536E+02 -0.10790807692E+03  0.22677615205E+03  0.25851236740E+03  0.00000000000E+00 0. -1.
         21    1    1    2  504  503 -0.40588612688E+02 -0.11016420049E+02 -0.21453647613E+03  0.21861998212E+03  0.00000000000E+00 0. -1.
         21    1    1    2  505  502 -0.10461251304E+02  0.49113747982E+02  0.32067985976E+02  0.59581488268E+02  0.00000000000E+00 0. -1.
          1    1    1    2  501    0 -0.10245061544E+02  0.69810748991E+02  0.73947918839E+03  0.74283778312E+03  0.00000000000E+00 0.  1.
<scales pt_clust_3="14000.00000" pt_clust_4="42.05707" pt_clust_5="52.54369" pt_clust_6="74.99879"></scales>
<clustering>
<clus scale="   42.057">  2  4  1 -1</clus>
<clus scale="   52.544">  2  5  1 -1</clus>
<clus scale="   74.999">  1  6  2 -1</clus>
<clus scale="   42.057">  2  3  1 -1</clus>
</clustering>
</event>
<event>
 6    0  0.1361744E+002  0.1256408E+03  0.7546771E-02  0.1234071E+00
         21   -1    0    0  504  502  0.00000000000E+00  0.00000000000E+00  0.25177337112E+03  0.25177337112E+03  0.00000000000E+00 0.  1.
         -1   -1    0    0    0  501 -0.00000000000E+00 -0.00000000000E+00 -0.34560422688E+03  0.34560422688E+03  0.00000000000E+00 0.  1.
         21    1    1    2  503  505  0.60837253258E+02  0.16985174498E+02 -0.15350742628E+03  0.16599457057E+03  0.00000000000E+00 0. -1.
         21    1    1    2  504  503 -0.37711976944E+02 -0.11593386082E+03  0.15448343352E+03  0.19679426954E+03  0.00000000000E+00 0.  1.
         21    1    1    2  505  501 -0.11609262306E+02 -0.57016395913E+02 -0.25300604740E+02  0.63448916259E+02  0.00000000000E+00 0.  1.
         -1    1    1    2    0  502 -0.11516014008E+02  0.15596508224E+03 -0.69506258261E+02  0.17113984163E+03  0.00000000000E+00 0.  1.
<scales pt_clust_3="56.26351" pt_clust_4="125.64078" pt_clust_5="58.18629" pt_clust_6="14000.00000"></scales>
<clustering>
<clus scale="   58.186">  2  5  1 -1</clus>
<clus scale="   56.264">  2  3  1 -1</clus>
<clus scale="  125.641">  1  4  2 -1</clus>
<clus scale="  125.641">  1  3  2 -1</clus>
</clustering>
</event>
<event>
 6    0  0.1361744E+002  0.9683948E+02  0.7546771E-02  0.1287086E+00
         21   -1    0    0  505  502  0.00000000000E+00  0.00000000000E+00  0.44100362488E+03  0.44100362488E+03  0.00000000000E+00 0. -1.
         -3   -1    0    0    0  501 -0.00000000000E+00 -0.00000000000E+00 -0.25317001539E+03  0.25317001539E+03  0.00000000000E+00 0.  1.
         21    1    1    2  503  502 -0.53979062410E+02  0.80332492568E+01  0.11393192170E+03  0.12632796624E+03  0.00000000000E+00 0. -1.
         21    1    1    2  504  503 -0.47871174420E+01  0.89028893013E+02  0.25504098629E+03  0.27017580382E+03  0.00000000000E+00 0. -1.
         21    1    1    2  505  501  0.39361183534E+02 -0.18451242902E+01  0.39983365781E+02  0.56137124900E+02  0.00000000000E+00 0.  1.
         -3    1    1    2    0  504  0.19404996318E+02 -0.95217017979E+02 -0.22112266429E+03  0.24153274531E+03  0.00000000000E+00 0.  1.
<scales pt_clust_3="42.60545" pt_clust_4="96.83948" pt_clust_5="39.40441" pt_clust_6="14000.00000"></scales>
<clustering>
<clus scale="   39.404">  1  5  2 -1</clus>
<clus scale="   42.605">  1  3  2 -1</clus>
<clus scale="   96.839">  1  4  2 -1</clus>
<clus scale="   39.404">  1  3  2 -1</clus>
</clustering>
</event>
<event>
 6    0  0.1361744E+002  0.8331660E+02  0.7546771E-02  0.1319894E+00
         -1   -1    0    0    0  501 -0.00000000000E+00  0.00000000000E+00  0.34983824675E+03  0.34983824675E+03  0.00000000000E+00 0.  1.
         21   -1    0    0  505  502  0.00000000000E+00 -0.00000000000E+00 -0.24402342457E+03  0.24402342457E+03  0.00000000000E+00 0.  1.
         21    1    1    2  503  502  0.87237049590E+02  0.30357974926E+02 -0.15783811771E+03  0.18287914278E+03  0.00000000000E+00 0.  1.
         21    1    1    2  504  501  0.28623891952E+02 -0.42680913116E+02  0.47761021359E+02  0.70157698765E+02  0.00000000000E+00 0.  1.
         21    1    1    2  505  504 -0.55759966748E+02 -0.42199409483E+02 -0.34238857403E+02  0.77860538200E+02  0.00000000000E+00 0.  1.
         -1    1    1    2    0  503 -0.60100974794E+02  0.54522347673E+02  0.25013077594E+03  0.26296429156E+03  0.00000000000E+00 0.  1.
<scales pt_clust_3="14000.00000" pt_clust_4="51.39054" pt_clust_5="83.31660" pt_clust_6="38.72725"></scales>
<clustering>
<clus scale="   51.391">  1  4  2 -1</clus>
<clus scale="   38.727">  1  6  2 -1</clus>
<clus scale="   83.317">  1  5  2 -1</clus>
<clus scale="   83.317">  2  3  1 -1</clus>
</clustering>
</event>
<event>
 6    0  0.1361744E+002  0.2132482E+03  0.7546771E-02  0.1139019E+00
         21   -1    0    0  504  502  0.00000000000E+00  0.00000000000E+00  0.61509088869E+03  0.61509088869E+03  0.00000000000E+00 0.  1.
          3   -1    0    0  505    0 -0.00000000000E+00 -0.00000000000E+00 -0.10724821501E+03  0.10724821501E+03  0.00000000000E+00 0.  1.
         21    1    1    2  503  502 -0.60514715186E+02 -0.17581732801E+03  0.89458587599E+02  0.20634098594E+03  0.00000000000E+00 0.  1.
         21    1    1    2  504  501  0.14610588002E+02  0.62970322672E+02  0.15970309302E+03  0.17228989738E+03  0.00000000000E+00 0.  1.
         21    1    1    2  505  503  0.41208465265E+02 -0.43375931478E+02  0.30562491885E+02  0.67183889075E+02  0.00000000000E+00 0.  1.
          3    1    1    2  501    0  0.46956619193E+01  0.15622293681E+03  0.22811850118E+03  0.27652433132E+03  0.00000000000E+00 0.  1.
<scales pt_clust_3="207.03765" pt_clust_4="32.85701" pt_clust_5="59.82983" pt_clust_6="32.85701"></scales>
<clustering>
<clus scale="   32.857">  4  6 -1 -1</clus>
<clus scale="   59.830">  2  5  1 -1</clus>
<clus scale="  207.038">  2  3  1 -1</clus>
<clus scale="  213.248">  1  3  2 -1</clus>
</clustering>
</event>
<event>
 6    0  0.1361744E+002  0.3172419E+03  0.7546771E-02  0.1076926E+00
         -2   -1    0    0    0  501 -0.00000000000E+00  0.00000000000E+00  0.36310594002E+03  0.36310594002E+03  0.00000000000E+00 0. -1.
         21   -1    0    0  503  502  0.00000000000E+00 -0.00000000000E+00 -0.21169095490E+04  0.21169095490E+04  0.00000000000E+00 0.  1.
         21    1    1    2  503  501 -0.46997429511E+02  0.35555117761E+02 -0.44517807794E+02  0.73856346988E+02  0.00000000000E+00 0. -1.
         21    1    1    2  504  505  0.72967384345E+02  0.11255634144E+02 -0.57973781548E+03  0.58442010846E+03  0.00000000000E+00 0.  1.
         21    1    1    2  505  502  0.24070714534E+03 -0.30857457001E+02 -0.14121495738E+04  0.14328497937E+04  0.00000000000E+00 0.  1.
         -2    1    1    2    0  504 -0.26667710018E+03 -0.15953294904E+02  0.28260158804E+03  0.38888923994E+03  0.00000000000E+00 0. -1.
<scales pt_clust_3="58.93153" pt_clust_4="30.14309" pt_clust_5="30.14309" pt_clust_6="312.49941"></scales>
<clustering>
<clus scale="   30.143">  4  5 -1 -1</clus>
<clus scale="   58.932">  1  3  2 -1</clus>
<clus scale="  312.499">  1  6  2 -1</clus>
<clus scale="  317.242">  2  3  1 -1</clus>
</clustering>
</event>
<event>
 6    0  0.1361744E+002  0.1910079E+03  0.7546771E-02  0.1157555E+00
         21   -1    0    0  503  502  0.00000000000E+00  0.00000000000E+00  0.33833594657E+03  0.33833594657E+03  0.00000000000E+00 0.  1.
          2   -1    0    0  504    0 -0.00000000000E+00 -0.00000000000E+00 -0.88310962096E+03  0.88310962096E+03  0.00000000000E+00 0.  1.
         21    1    1    2  503  501 -0.17624872351E+03 -0.66107889467E+02  0.20712443552E+03  0.27988282795E+03  0.00000000000E+00 0.  1.
         21    1    1    2  504  505  0.12625963585E+03  0.38903263907E+02 -0.22694624850E+03  0.26260152188E+03  0.00000000000E+00 0.  1.
         21    1    1    2  505  502 -0.39251332091E+02  0.85128617566E+02  0.41563019030E+02  0.10254283569E+03  0.00000000000E+00 0.  1.
          2    1    1    2  501    0  0.89240419756E+02 -0.57923992006E+02 -0.56651488044E+03  0.57641838202E+03  0.00000000000E+00 0.  1.
<scales pt_clust_3="14000.00000" pt_clust_4="191.00792" pt_clust_5="93.74193" pt_clust_6="104.92099"></scales>
<clustering>
<clus scale="   93.742">  1  5  2 -1</clus>
<clus scale="  104.921">  2  6  1 -1</clus>
<clus scale="  191.008">  2  4  1 -1</clus>
<clus scale="   93.742">  1  3  2 -1</clus>
</clustering>
</event>
<event>
 6    0  0.1361744E+002  0.8994755E+02  0.7546771E-02  0.1302979E+00
          2   -1    0    0  503    0 -0.00000000000E+00  0.00000000000E+00  0.87786060910E+03  0.87786060910E+03  0.00000000000E+00 0.  1.
         21   -1    0    0  505  502  0.00000000000E+00 -0.00000000000E+00 -0.21593753245E+03  0.21593753245E+03  0.00000000000E+00 0. -1.
         21    1    1    2  503  502 -0.80442757006E+02 -0.33218738728E+02  0.36395337824E+03  0.37421462196E+03  0.00000000000E+00 0.  1.
         21    1    1    2  504  501  0.12927813637E+02  0.46179759061E+02 -0.27730964272E+02  0.55395892373E+02  0.00000000000E+00 0. -1.
         21    1    1    2  505  504 -0.33456656798E+02  0.26037855465E+02 -0.16054078344E+03  0.16604415362E+03  0.00000000000E+00 0. -1.
          2    1    1    2  501    0  0.10097160017E+03 -0.38998875798E+02  0.48624144613E+03  0.49814347360E+03  0.00000000000E+00 0.  1.
<scales pt_clust_3="89.94755" pt_clust_4="68.08576" pt_clust_5="42.39479" pt_clust_6="14000.00000"></scales>
<clustering>
<clus scale="   42.395">  2  5  1 -1</clus>
<clus scale="   68.086">  2  4  1 -1</clus>
<clus scale="   89.948">  1  3  2 -1</clus>
<clus scale="   42.395">  2  3  1 -1</clus>
</clustering>
</event>
<event>
 6    0  0.1361744E+002  0.1456656E+03  0.7546771E-02  0.1205902E+00
          2   -1    0    0  505    0 -0.00000000000E+00  0.00000000000E+00  0.12437419893E+04  0.12437419893E+04  0.00000000000E+00 0. -1.
         21   -1    0    0  504  502  0.00000000000E+00 -0.00000000000E+00 -0.23439774951E+03  0.23439774951E+03  0.00000000000E+00 0. -1.
         21    1    1    2  503  501 -0.18135056490E+03 -0.61326110397E+01  0.22220299730E+03  0.28687943167E+03  0.00000000000E+00 0. -1.
         21    1    1    2  504  503  0.55562339628E+02  0.15522279072E+03 -0.13272333482E+03  0.21165247920E+03  0.00000000000E+00 0. -1.
         21    1    1    2  505  502  0.20639446784E+02 -0.45216181784E+02  0.18159171077E+01  0.49737183410E+02  0.00000000000E+00 0.  1.
          2    1    1    2  501    0  0.10514877849E+03 -0.10387399790E+03  0.91804866017E+03  0.92987064450E+03  0.00000000000E+00 0. -1.
<scales pt_clust_3="145.66563" pt_clust_4="138.65870" pt_clust_5="49.70402" pt_clust_6="14000.00000"></scales>
<clustering>
<clus scale="   49.704">  2  5  1 -1</clus>
<clus scale="  138.659">  2  4  1 -1</clus>
<clus scale="  145.666">  2  3  1 -1</clus>
<clus scale="   49.704">  2  3  1 -1</clus>
</clustering>
</event>
<event>
 6    0  0.1361744E+002  0.1099739E+03  0.7546771E-02  0.1260618E+00
         21   -1    0    0  505  502  0.00000000000E+00  0.00000000000E+00  0.79572057185E+02  0.79572057185E+02  0.00000000000E+00 0. -1.
          2   -1    0    0  504    0 -0.00000000000E+00 -0.00000000000E+00 -0.10890571363E+04  0.10890571363E+04  0.00000000000E+00 0. -1.
         21    1    1    2  503  502 -0.18456043565E+02  0.34672719846E+02  0.37530463932E+02  0.54326409494E+02  0.00000000000E+00 0. -1.
         21    1    1    2  504  503  0.37621358083E+02  0.43233659854E+02 -0.19059571919E+03  0.19902573728E+03  0.00000000000E+00 0. -1.
         21    1    1    2  505  501 -0.14961862954E+02  0.77750168251E+02 -0.49292910891E+02  0.93267020271E+02  0.00000000000E+00 0. -1.
          2    1    1    2  501    0 -0.42034515636E+01 -0.15565654795E+03 -0.80712691301E+03  0.82201002648E+03  0.00000000000E+00 0. -1.
<scales pt_clust_3="39.27879" pt_clust_4="59.24830" pt_clust_5="14000.00000" pt_clust_6="109.97394"></scales>
<clustering>
<clus scale="   39.279">  1  3  2 -1</clus>
<clus scale="   59.248">  2  4  1 -1</clus>
<clus scale="  109.974">  2  6  1 -1</clus>
<clus scale="   39.279">  1  3  2 -1</clus>
</clustering>
</event>
<event>
 6    0  0.1361744E+002  0.6689067E+02  0.7546771E-02  0.1370997E+00
          2   -1    0    0  503    0 -0.00000000000E+00  0.00000000000E+00  0.23611866387E+04  0.23611866387E+04  0.00000000000E+00 0.  1.
         21   -1    0    0  505  502  0.00000000000E+00 -0.00000000000E+00 -0.32559844361E+02  0.32559844361E+02  0.00000000000E+00 0.  1.
         21    1    1    2  503  502 -0.52480699983E+02 -0.33927838656E+02  0.36840221135E+03  0.37366497218E+03  0.00000000000E+00 0.  1.
         21    1    1    2  504  501  0.73034000484E+02  0.64251506284E+02  0.29184778709E+03  0.30763184509E+03  0.00000000000E+00 0.  1.
         21    1    1    2  505  504 -0.15926075134E+02 -0.62283778952E+02  0.25349493301E+02  0.69105034551E+02  0.00000000000E+00 0.  1.
          2    1    1    2  501    0 -0.46272253675E+01  0.31960111324E+02  0.16430273026E+04  0.16433446312E+04  0.00000000000E+00 0.  1.
<scales pt_clust_3="57.56826" pt_clust_4="66.89067" pt_clust_5="14000.00000" pt_clust_6="32.29334"></scales>
<clustering>
<clus scale="   32.293">  1  6  2 -1</clus>
<clus scale="   57.568">  1  3  2 -1</clus>
<clus scale="   66.891">  1  4  2 -1</clus>
<clus scale="   66.891">  2  3  1 -1</clus>
</clustering>
</event>
<event>
 6    0  0.1361744E+002  0.1273790E+03  0.7546771E-02  0.1231398E+00
         21   -1    0    0  503  502  0.00000000000E+00  0.00000000000E+00  0.23592851873E+03  0.23592851873E+03  0.00000000000E+00 0.  1.
         -1   -1    0    0    0  501 -0.00000000000E+00 -0.00000000000E+00 -0.52692280645E+03  0.52692280645E+03  0.00000000000E+00 0.  1.
         21    1    1    2  503  505  0.40053081078E+02  0.98876838451E+01  0.48157171161E+02  0.63412370479E+02  0.00000000000E+00 0.  1.
         21    1    1    2  504  502 -0.26142083377E+02  0.23033592870E+02  0.14325605995E+03  0.14743220013E+03  0.00000000000E+00 0.  1.
         21    1    1    2  505  501  0.11575110269E+03  0.47998316100E+01 -0.12747243194E+03  0.17225149364E+03  0.00000000000E+00 0.  1.
         -1    1    1    2    0  504 -0.12966210039E+03 -0.37721108325E+02 -0.35493508689E+03  0.37975526092E+03  0.00000000000E+00 0.  1.
<scales pt_clust_3="33.95994" pt_clust_4="34.84186" pt_clust_5="127.37896" pt_clust_6="14000.00000"></scales>
<clustering>
<clus scale="   34.842">  1  4  2 -1</clus>
<clus scale="   33.960">  1  3  2 -1</clus>
<clus scale="  127.379">  1  5  2 -1</clus>
<clus scale="   34.842">  1  3  2 -1</clus>
</clustering>
</event>
<event>
 6    0  0.1361744E+002  0.8533835E+02  0.7546771E-02  0.1314550E+00
          2   -1    0    0  504    0 -0.00000000000E+00  0.00000000000E+00  0.11834036634E+04  0.11834036634E+04  0.00000000000E+00 0. -1.
         21   -1    0    0  505  502  0.00000000000E+00 -0.00000000000E+00 -0.83726540844E+03  0.83726540844E+03  0.00000000000E+00 0.  1.
         21    1    1    2  503  501  0.65601273511E+02 -0.61930839994E+01 -0.12153093521E+03  0.13824488992E+03  0.00000000000E+00 0.  1.
         21    1    1    2  504  502  0.22788703320E+02 -0.57442152673E+02  0.47760453567E+02  0.78102412432E+02  0.00000000000E+00 0. -1.
         21    1    1    2  505  503 -0.80909364479E+02 -0.56995671781E+02 -0.68535774978E+03  0.69246666132E+03  0.00000000000E+00 0.  1.
          2    1    1    2  501    0 -0.74806123516E+01  0.12063090845E+03  0.11052664864E+04  0.11118551082E+04  0.00000000000E+00 0. -1.
<scales pt_clust_3="14000.00000" pt_clust_4="61.79746" pt_clust_5="85.33835" pt_clust_6="65.55413"></scales>
<clustering>
<clus scale="   61.797">  1  4  2 -1</clus>
<clus scale="   65.554">  1  6  2 -1</clus>
<clus scale="   85.338">  2  5  1 -1</clus>
<clus scale="   85.338">  2  3  1 -1</clus>
</clustering>
</event>
<event>
 6    0  0.1361744E+002  0.1669650E+03  0.7546771E-02  0.1181050E+00
          2   -1    0    0  502    0 -0.00000000000E+00  0.00000000000E+00  0.34700129950E+04  0.34700129950E+04  0.00000000000E+00 0.  1.
         21   -1    0    0  505  502  0.00000000000E+00 -0.00000000000E+00 -0.57043762956E+02  0.57043762956E+02  0.00000000000E+00 0.  1.
         21    1    1    2  503  504  0.25714562784E+02  0.81290746489E+02  0.31159993558E+02  0.90776480448E+02  0.00000000000E+00 0.  1.
         21    1    1    2  504  501 -0.16514536414E+02 -0.60671084047E+02  0.15551004471E+04  0.15563711353E+04  0.00000000000E+00 0.  1.
         21    1    1    2  505  503  0.65711851815E+02  0.48020499057E+02  0.40672128080E+02  0.90984821817E+02  0.00000000000E+00 0.  1.
          2    1    1    2  501    0 -0.74911878185E+02 -0.68640161499E+02  0.17860366633E+04  0.17889243204E+04  0.00000000000E+00 0.  1.
<scales pt_clust_3="51.67276" pt_clust_4="41.06058" pt_clust_5="51.67276" pt_clust_6="166.74680"></scales>
<clustering>
<clus scale="   41.061">  4  6 -1 -1</clus>
<clus scale="   51.673">  3  5 -1 -1</clus>
<clus scale="  166.747">  1  4  2 -1</clus>
<clus scale="  166.965">  2  3  1 -1</clus>
</clustering>
</event>
<event>
 6    0  0.1361744E+002  0.8989877E+02  0.7546771E-02  0.1303097E+00
          1   -1    0    0  505    0 -0.00000000000E+00  0.00000000000E+00  0.10357292106E+04  0.10357292106E+04  0.00000000000E+00 0. -1.
         21   -1    0    0  503  502  0.00000000000E+00 -0.00000000000E+00 -0.12798017490E+03  0.12798017490E+03  0.00000000000E+00 0.  1.
         21    1    1    2  503  504 -0.72888161524E+02 -0.23394190594E+01 -0.67364473570E+02  0.99278040227E+02  0.00000000000E+00 0.  1.
         21    1    1    2  504  501 -0.25077013019E+02  0.83311662107E+02  0.31413122490E+03  0.32595723045E+03  0.00000000000E+00 0. -1.
         21    1    1    2  505  502  0.67483042908E+01 -0.32941963158E+02 -0.26805848682E+02  0.43003093738E+02  0.00000000000E+00 0.  1.
          1    1    1    2  501    0  0.91216870252E+02 -0.48030279890E+02  0.68778813302E+03  0.69547102106E+03  0.00000000000E+00 0. -1.
<scales pt_clust_3="74.03796" pt_clust_4="89.89877" pt_clust_5="33.62607" pt_clust_6="14000.00000"></scales>
<clustering>
<clus scale="   33.626">  2  5  1 -1</clus>
<clus scale="   74.038">  2  3  1 -1</clus>
<clus scale="   89.899">  2  4  1 -1</clus>
<clus scale="   33.626">  2  3  1 -1</clus>
</clustering>
</event>
<event>
 6    0  0.1361744E+002  0.9138068E+02  0.7546771E-02  0.1299542E+00
          2   -1    0    0  503    0 -0.00000000000E+00  0.00000000000E+00  0.86910205980E+03  0.86910205980E+03  0.00000000000E+00 0.  1.
         21   -1    0    0  504  502  0.00000000000E+00 -0.00000000000E+00 -0.23997079730E+03  0.23997079730E+03  0.00000000000E+00 0.  1.
         21    1    1    2  503  502  0.14441050551E+02  0.36931558429E+02  0.16084671580E+03  0.16566275965E+03  0.00000000000E+00 0.  1.
         21    1    1    2  504  505 -0.87836681452E+02  0.32352387920E+02 -0.17522661854E+03  0.19866133861E+03  0.00000000000E+00 0.  1.
         21    1    1    2  505  501  0.87412394670E+02 -0.27863788892E+01 -0.97170944286E+01  0.87994957659E+02  0.00000000000E+00 0. -1.
          2    1    1    2  501    0 -0.14016763768E+02 -0.66497567459E+02  0.65322825967E+03  0.65675380118E+03  0.00000000000E+00 0.  1.
<scales pt_clust_3="39.65456" pt_clust_4="14000.00000" pt_clust_5="91.38068" pt_clust_6="32.23282"></scales>
<clustering>
<clus scale="   39.655">  1  3  2 -1</clus>
<clus scale="   32.233">  1  6  2 -1</clus>
<clus scale="   91.381">  1  5  2 -1</clus>
<clus scale="   91.381">  2  3  1 -1</clus>
</clustering>
</event>
<event>
 6    0  0.1361744E+002  0.1881318E+03  0.7546771E-02  0.1160157E+00
         21   -1    0    0  503  502  0.00000000000E+00  0.00000000000E+00  0.18547882595E+03  0.18547882595E+03  0.00000000000E+00 0.  1.
          2   -1    0    0  504    0 -0.00000000000E+00 -0.00000000000E+00 -0.10010668931E+04  0.10010668931E+04  0.00000000000E+00 0.  1.
         21    1    1    2  503  505 -0.61198331848E+02  0.71443053424E+02 -0.76647723653E+01  0.94382702011E+02  0.00000000000E+00 0.  1.
         21    1    1    2  504  502  0.74893460281E+02  0.11109845213E+03  0.97998154851E+02  0.16599859883E+03  0.00000000000E+00 0.  1.
         21    1    1    2  505  501 -0.19041779630E+02 -0.93286518646E+02 -0.33437144056E+03  0.34766251480E+03  0.00000000000E+00 0.  1.
          2    1    1    2  501    0  0.53466511975E+01 -0.89254986910E+02 -0.57155000909E+03  0.57850190342E+03  0.00000000000E+00 0.  1.
<scales pt_clust_3="94.07096" pt_clust_4="178.36947" pt_clust_5="57.96658" pt_clust_6="57.96658"></scales>
<clustering>
<clus scale="   57.967">  5  6 -1 -1</clus>
<clus scale="   94.071">  1  3  2 -1</clus>
<clus scale="  178.369">  1  4  2 -1</clus>
<clus scale="   94.071">  1  3  2 -1</clus>
</clustering>
</event>
<event>
 6    0  0.1361744E+002  0.1324224E+03  0.7546771E-02  0.1223905E+00
         21   -1    0    0  501  502  0.00000000000E+00  0.00000000000E+00  0.27792064500E+03  0.27792064500E+03  0.00000000000E+00 0.  1.
         -1   -1    0    0    0  501 -0.00000000000E+00 -0.00000000000E+00 -0.47650603183E+03  0.47650603183E+03  0.00000000000E+00 0.  1.
         21    1    1    2  503  502  0.34843297999E+02 -0.47965593485E+02  0.11656315406E+03  0.13077355413E+03  0.00000000000E+00 0.  1.
         21    1    1    2  504  503  0.75875856352E+02 -0.20385461334E+02  0.12859865915E+03  0.15069946167E+03  0.00000000000E+00 0. -1.
         21    1    1    2  505  504 -0.64539184493E+02  0.47828214376E+02 -0.11460196785E+03  0.13995161829E+03  0.00000000000E+00 0. -1.
         -1    1    1    2    0  505 -0.46179969858E+02  0.20522840443E+02 -0.32914523220E+03  0.33300204275E+03  0.00000000000E+00 0.  1.
<scales pt_clust_3="40.67143" pt_clust_4="40.67143" pt_clust_5="123.86911" pt_clust_6="50.53490"></scales>
<clustering>
<clus scale="   40.671">  3  4 -1 -1</clus>
<clus scale="   50.535">  2  6  1 -1</clus>
<clus scale="  123.869">  2  5  1 -1</clus>
<clus scale="  132.422">  1  3  2 -1</clus>
</clustering>
</event>
<event>
 6    0  0.1361744E+002  0.1551521E+03  0.7546771E-02  0.1194281E+00
          2   -1    0    0  504    0 -0.00000000000E+00  0.00000000000E+00  0.89245910687E+02  0.89245910687E+02  0.00000000000E+00 0. -1.
         21   -1    0    0  505  502  0.00000000000E+00 -0.00000000000E+00 -0.78943768029E+03  0.78943768029E+03  0.00000000000E+00 0. -1.
         21    1    1    2  503  502  0.39257077238E+02  0.75597231407E+02 -0.41280621135E+03  0.42150329494E+03  0.00000000000E+00 0. -1.
         21    1    1    2  504  503  0.21305993527E+02  0.75691904048E+02 -0.23230334314E+03  0.24525099986E+03  0.00000000000E+00 0. -1.
         21    1    1    2  505  501 -0.22078251097E+01 -0.11576760975E+03 -0.78297037297E+02  0.13977639288E+03  0.00000000000E+00 0. -1.
          2    1    1    2  501    0 -0.58355245655E+02 -0.35521525708E+02  0.23214822191E+02  0.72152903292E+02  0.00000000000E+00 0. -1.
<scales pt_clust_3="41.19832" pt_clust_4="41.19832" pt_clust_5="149.10906" pt_clust_6="68.31628"></scales>
<clustering>
<clus scale="   41.198">  3  4 -1 -1</clus>
<clus scale="   68.316">  1  6  2 -1</clus>
<clus scale="  149.109">  1  5  2 -1</clus>
<clus scale="  155.152">  2  3  1 -1</clus>
</clustering>
</event>
<event>
 6    0  0.1361744E+002  0.3614402E+03  0.7546771E-02  0.1058015E+00
         21   -1    0    0  503  502  0.00000000000E+00  0.00000000000E+00  0.12731737305E+03  0.12731737305E+03  0.00000000000E+00 0. -1.
          1   -1    0    0  504    0 -0.00000000000E+00 -0.00000000000E+00 -0.11472520859E+04  0.11472520859E+04  0.00000000000E+00 0.  1.
         21    1    1    2  503  501 -0.91663984539E+01 -0.82463444376E+02 -0.15283849773E+03  0.17390758726E+03  0.00000000000E+00 0.  1.
         21    1    1    2  504  505 -0.84746835997E+01  0.20367606674E+03 -0.20494680274E+03  0.28906565410E+03  0.00000000000E+00 0. -1.
         21    1    1    2  505  502 -0.56640445487E+02  0.14207226912E+03 -0.90130021909E+02  0.17752771775E+03  0.00000000000E+00 0. -1.
          1    1    1    2  501    0  0.74281527541E+02 -0.26328489149E+03 -0.57201939048E+03  0.63406849985E+03  0.00000000000E+00 0.  1.
<scales pt_clust_3="33.15583" pt_clust_4="71.72722" pt_clust_5="71.72722" pt_clust_6="356.94033"></scales>
<clustering>
<clus scale="   33.156">  3  6 -1 -1</clus>
<clus scale="   71.727">  4  5 -1 -1</clus>
<clus scale="  356.940">  2  3  1 -1</clus>
<clus scale="  361.440">  1  3  2 -1</clus>
</clustering>
</event>
<event>
 6    0  0.1361744E+002  0.1055916E+03  0.7546771E-02  0.1268958E+00
          2   -1    0    0  505    0 -0.00000000000E+00  0.00000000000E+00  0.57522887776E+03  0.57522887776E+03  0.00000000000E+00 0.  1.
         21   -1    0    0  501  502  0.00000000000E+00 -0.00000000000E+00 -0.78029219716E+02  0.78029219716E+02  0.00000000000E+00 0. -1.
         21    1    1    2  503  504  0.49893322430E+02  0.68060244973E+02  0.10370336486E+03  0.13370089174E+03  0.00000000000E+00 0. -1.
         21    1    1    2  504  502  0.51880138899E+02  0.46433435305E+02 -0.10462230651E+02  0.70406469849E+02  0.00000000000E+00 0. -1.
         21    1    1    2  505  503 -0.82460388645E+02 -0.84604174154E+02  0.39522988097E+03  0.41250968569E+03  0.00000000000E+00 0.  1.
          2    1    1    2  501    0 -0.19313072684E+02 -0.29889506124E+02  0.87286428628E+01  0.36641050191E+02  0.00000000000E+00 0.  1.
<scales pt_clust_3="105.59156" pt_clust_4="48.32854" pt_clust_5="14000.00000" pt_clust_6="35.58620"></scales>
<clustering>
<clus scale="   35.586">  2  6  1 -1</clus>
<clus scale="   48.329">  2  4  1 -1</clus>
<clus scale="  105.592">  2  3  1 -1</clus>
<clus scale="   35.586">  2  3  1 -1</clus>
</clustering>
</event>
<event>
 6    0  0.1361744E+002  0.6155550E+02  0.7546771E-02  0.1391418E+00
          2   -1    0    0  503    0 -0.00000000000E+00  0.00000000000E+00  0.33054158346E+03  0.33054158346E+03  0.00000000000E+00 0.  1.
         21   -1    0    0  501  502  0.00000000000E+00 -0.00000000000E+00 -0.31761978053E+03  0.31761978053E+03  0.00000000000E+00 0.  1.
         21    1    1    2  503  504 -0.38854523033E+02  0.30121741472E+00  0.39086669818E+01  0.39051790863E+02  0.00000000000E+00 0.  1.
         21    1    1    2  504  505  0.42073483477E+02 -0.89953142780E+02 -0.99754055931E+02  0.14075730028E+03  0.00000000000E+00 0.  1.
         21    1    1    2  505  502 -0.45416185241E+02  0.33305761483E+02 -0.17091075530E+03  0.17995107642E+03  0.00000000000E+00 0.  1.
          2    1    1    2  501    0  0.42197224797E+02  0.56346163883E+02  0.27967794717E+03  0.28840119642E+03  0.00000000000E+00 0.  1.
<scales pt_clust_3="38.85569" pt_clust_4="14000.00000" pt_clust_5="56.78148" pt_clust_6="61.55550"></scales>
<clustering>
<clus scale="   38.856">  1  3  2 -1</clus>
<clus scale="   56.781">  2  5  1 -1</clus>
<clus scale="   61.555">  1  6  2 -1</clus>
<clus scale="   56.781">  2  3  1 -1</clus>
</clustering>
</event>
<event>
 6    0  0.1361744E+002  0.2317210E+03  0.7546771E-02  0.1125434E+00
         -4   -1    0    0    0  501 -0.00000000000E+00  0.00000000000E+00  0.35383353598E+03  0.35383353598E+03  0.00000000000E+00 0. -1.
         21   -1    0    0  503  502  0.00000000000E+00 -0.00000000000E+00 -0.69768684911E+03  0.69768684911E+03  0.00000000000E+00 0.  1.
         21    1    1    2  503  504 -0.27736509251E+02  0.71046186200E+02 -0.28403855788E+03  0.29409994369E+03  0.00000000000E+00 0.  1.
         21    1    1    2  504  501 -0.12298132904E+02  0.13113043302E+03 -0.35703094045E+03  0.38054898105E+03  0.00000000000E+00 0.  1.
         21    1    1    2  505  502 -0.25342178440E+02 -0.10288448709E+03  0.95064381622E+02  0.14235406684E+03  0.00000000000E+00 0. -1.
         -4    1    1    2    0  505  0.65376820595E+02 -0.99292132122E+02  0.20215180358E+03  0.23451739352E+03  0.00000000000E+00 0. -1.
<scales pt_clust_3="31.40263" pt_clust_4="210.19294" pt_clust_5="99.98606" pt_clust_6="99.98606"></scales>
<clustering>
<clus scale="   31.403">  3  4 -1 -1</clus>
<clus scale="   99.986">  5  6 -1 -1</clus>
<clus scale="  210.193">  2  3  1 -1</clus>
<clus scale="  210.193">  2  3  1 -1</clus>
</clustering>
</event>
<event>
 6    0  0.1361744E+002  0.1307293E+03  0.7546771E-02  0.1226378E+00
          2   -1    0    0  505    0 -0.00000000000E+00  0.00000000000E+00  0.90553358667E+03  0.90553358667E+03  0.00000000000E+00 0. -1.
         21   -1    0    0  503  502  0.00000000000E+00 -0.00000000000E+00 -0.52276639330E+02  0.52276639330E+02  0.00000000000E+00 0.  1.
         21    1    1    2  503  504  0.21235618367E+02 -0.26150796029E+02 -0.81485645893E+01  0.34658544765E+02  0.00000000000E+00 0.  1.
         21    1    1    2  504  501  0.65476531743E+02 -0.63178721045E+02  0.60950854602E+02  0.10951590605E+03  0.00000000000E+00 0.  1.
         21    1    1    2  505  502 -0.30432293703E+02  0.13869495324E+02  0.75253075878E+02  0.82349941285E+02  0.00000000000E+00 0.  1.
          2    1    1    2  501    0 -0.56279856406E+02  0.75460021750E+02  0.72520158145E+03  0.73128583390E+03  0.00000000000E+00 0. -1.
<scales pt_clust_3="30.42013" pt_clust_4="30.42013" pt_clust_5="33.44379" pt_clust_6="120.79201"></scales>
<clustering>
<clus scale="   30.420">  3  4 -1 -1</clus>
<clus scale="   33.444">  1  5  2 -1</clus>
<clus scale="  120.792">  1  6  2 -1</clus>
<clus scale="  130.729">  2  3  1 -1</clus>
</clustering>
</event>
<event>
 6    0  0.1361744E+002  0.7628002E+02  0.7546771E-02  0.1339952E+00
         -2   -1    0    0    0  501 -0.00000000000E+00  0.00000000000E+00  0.30352429883E+03  0.30352429883E+03  0.00000000000E+00 0.  1.
         21   -1    0    0  504  502  0.00000000000E+00 -0.00000000000E+00 -0.32931839034E+03  0.32931839034E+03  0.00000000000E+00 0. -1.
         21    1    1    2  503  502  0.15636065229E+02 -0.75892336218E+02 -0.27475621836E+03  0.28547348871E+03  0.00000000000E+00 0. -1.
         21    1    1    2  504  501 -0.69894481715E+01 -0.37663696482E+02  0.24755407965E+02  0.45609611289E+02  0.00000000000E+00 0. -1.
         21    1    1    2  505  503 -0.42152557173E+02  0.59573448933E+02  0.45738241570E+01  0.73121499994E+02  0.00000000000E+00 0. -1.
         -2    1    1    2    0  505  0.33505940115E+02  0.53982583767E+02  0.21963289473E+03  0.22863808917E+03  0.00000000000E+00 0.  1.
<scales pt_clust_3="76.28002" pt_clust_4="38.30674" pt_clust_5="14000.00000" pt_clust_6="35.67667"></scales>
<clustering>
<clus scale="   38.307">  1  4  2 -1</clus>
<clus scale="   35.677">  1  6  2 -1</clus>
<clus scale="   76.280">  2  3  1 -1</clus>
<clus scale="   76.280">  2  3  1 -1</clus>
</clustering>
</event>
<event>
 6    0  0.1361744E+002  0.1482310E+03  0.7546771E-02  0.1202664E+00
         21   -1    0    0  505  502  0.00000000000E+00  0.00000000000E+00  0.72046822472E+03  0.72046822472E+03  0.00000000000E+00 0.  1.
          2   -1    0    0  502    0 -0.00000000000E+00 -0.00000000000E+00 -0.21152156763E+04  0.21152156763E+04  0.00000000000E+00 0.  1.
         21    1    1    2  503  501  0.35476625881E+02 -0.57217015652E+01 -0.95460888227E+03  0.95528500824E+03  0.00000000000E+00 0.  1.
         21    1    1    2  504  503 -0.82515708826E+02  0.15633382529E+02  0.56265462838E+03  0.56888792894E+03  0.00000000000E+00 0.  1.
         21    1    1    2  505  504 -0.52558878394E+02 -0.33799829318E+02  0.14566071118E+03  0.15849891779E+03  0.00000000000E+00 0.  1.
          2    1    1    2  501    0  0.99597961339E+02  0.23888148355E+02 -0.11484539088E+04  0.11530120460E+04  0.00000000000E+00 0.  1.
<scales pt_clust_3="34.88297" pt_clust_4="136.03020" pt_clust_5="62.48891" pt_clust_6="34.88297"></scales>
<clustering>
<clus scale="   34.883">  3  6 -1 -1</clus>
<clus scale="   62.489">  1  5  2 -1</clus>
<clus scale="  136.030">  1  4  2 -1</clus>
<clus scale="   62.489">  1  3  2 -1</clus>
</clustering>
</event>
<event>
 6    0  0.1361744E+002  0.1066141E+03  0.7546771E-02  0.1266972E+00
          3   -1    0    0  504    0 -0.00000000000E+00  0.00000000000E+00  0.59728205883E+03  0.59728205883E+03  0.00000000000E+00 0. -1.
         21   -1    0    0  503  502  0.00000000000E+00 -0.00000000000E+00 -0.83849349417E+02  0.83849349417E+02  0.00000000000E+00 0.  1.
         21    1    1    2  503  501 -0.94488301721E+02  0.75327523941E+02  0.32780680267E+02  0.12520722033E+03  0.00000000000E+00 0.  1.
         21    1    1    2  504  505  0.38040704676E+02 -0.17017407393E+02  0.67594217390E+02  0.79408221181E+02  0.00000000000E+00 0.  1.
         21    1    1    2  505  502  0.38293068303E+02  0.22062187991E+02 -0.10164146206E+02  0.45347646986E+02  0.00000000000E+00 0.  1.
          3    1    1    2  501    0  0.18154528742E+02 -0.80372304538E+02  0.42322195796E+03  0.43116831975E+03  0.00000000000E+00 0. -1.
<scales pt_clust_3="14000.00000" pt_clust_4="41.67358" pt_clust_5="45.02986" pt_clust_6="106.61406"></scales>
<clustering>
<clus scale="   41.674">  1  4  2 -1</clus>
<clus scale="   45.030">  2  5  1 -1</clus>
<clus scale="  106.614">  1  6  2 -1</clus>
<clus scale="   45.030">  2  3  1 -1</clus>
</clustering>
</event>
<event>
 6    0  0.1361744E+002  0.1433604E+03  0.7546771E-02  0.1208877E+00
         -2   -1    0    0    0  501 -0.00000000000E+00  0.00000000000E+00  0.89761529300E+03  0.89761529300E+03  0.00000000000E+00 0. -1.
         21   -1    0    0  501  502  0.00000000000E+00 -0.00000000000E+00 -0.51443922542E+03  0.51443922542E+03  0.00000000000E+00 0.  1.
         21    1    1    2  503  505  0.35545132152E+02  0.89537408428E+02  0.30077949158E+03  0.31583018615E+03  0.00000000000E+00 0. -1.
         21    1    1    2  504  502  0.63850295478E+02 -0.84228314613E+00 -0.14448496583E+03  0.15796668960E+03  0.00000000000E+00 0.  1.
         21    1    1    2  505  504 -0.11758992763E+03 -0.13537764779E+03 -0.33189552271E+03  0.37723883230E+03  0.00000000000E+00 0.  1.
         -2    1    1    2    0  503  0.18194500000E+02  0.46682522504E+02  0.55877706454E+03  0.56101881038E+03  0.00000000000E+00 0. -1.
<scales pt_clust_3="143.36043" pt_clust_4="64.21352" pt_clust_5="14000.00000" pt_clust_6="50.10287"></scales>
<clustering>
<clus scale="   50.103">  1  6  2 -1</clus>
<clus scale="   64.214">  2  4  1 -1</clus>
<clus scale="  143.360">  1  3  2 -1</clus>
<clus scale="   64.214">  2  3  1 -1</clus>
</clustering>
</event>
<event>
 6    0  0.1361744E+002  0.1651052E+03  0.7546771E-02  0.1183051E+00
         21   -1    0    0  505  502  0.00000000000E+00  0.00000000000E+00  0.24008672428E+03  0.24008672428E+03  0.00000000000E+00 0.  1.
         -1   -1    0    0    0  501 -0.00000000000E+00 -0.00000000000E+00 -0.45213538609E+03  0.45213538609E+03  0.00000000000E+00 0. -1.
         21    1    1    2  503  504 -0.10818392510E+03  0.14914536666E+02 -0.21885213200E+03  0.24458630529E+03  0.00000000000E+00 0. -1.
         21    1    1    2  504  502  0.18348495860E+02  0.45478384992E+02  0.54340862207E+02  0.73197541675E+02  0.00000000000E+00 0.  1.
         21    1    1    2  505  501  0.13278888527E+03 -0.27688880300E+02  0.13060150650E+03  0.18829847489E+03  0.00000000000E+00 0.  1.
         -1    1    1    2    0  503 -0.42953456030E+02 -0.32704041359E+02 -0.17813889852E+03  0.18613978852E+03  0.00000000000E+00 0. -1.
<scales pt_clust_3="48.52981" pt_clust_4="49.04030" pt_clust_5="149.98534" pt_clust_6="48.52981"></scales>
<clustering>
<clus scale="   48.530">  3  6 -1 -1</clus>
<clus scale="   49.040">  1  4  2 -1</clus>
<clus scale="  149.985">  1  5  2 -1</clus>
<clus scale="   49.040">  1  3  2 -1</clus>
</clustering>
</event>
<event>
 6    0  0.1361744E+002  0.1336677E+03  0.7546771E-02  0.1222113E+00
         21   -1    0    0  503  502  0.00000000000E+00  0.00000000000E+00  0.43464497067E+02  0.43464497067E+02  0.00000000000E+00 0.  1.
          2   -1    0    0  502    0 -0.00000000000E+00 -0.00000000000E+00 -0.21641099330E+04  0.21641099330E+04  0.00000000000E+00 0. -1.
         21    1    1    2  503  505  0.39012579162E-01  0.41692140708E+02  0.66119310350E+01  0.42213194037E+02  0.00000000000E+00 0.  1.
         21    1    1    2  504  501 -0.94804057027E+02 -0.42205855665E+02 -0.64926526226E+03  0.65750629218E+03  0.00000000000E+00 0. -1.
         21    1    1    2  505  504  0.13421298023E+03  0.59602322651E+02 -0.37728637556E+03  0.40485870388E+03  0.00000000000E+00 0.  1.
          2    1    1    2  501    0 -0.39447935780E+02 -0.59088607695E+02 -0.11007057292E+04  0.11029962400E+04  0.00000000000E+00 0. -1.
<scales pt_clust_3="41.69216" pt_clust_4="14000.00000" pt_clust_5="133.66766" pt_clust_6="68.97480"></scales>
<clustering>
<clus scale="   41.692">  1  3  2 -1</clus>
<clus scale="   68.975">  2  6  1 -1</clus>
<clus scale="  133.668">  1  5  2 -1</clus>
<clus scale="   41.692">  1  3  2 -1</clus>
</clustering>
</event>
<event>
 6    0  0.1361744E+002  0.1139032E+03  0.7546771E-02  0.1253508E+00
         21   -1    0    0  505  502  0.00000000000E+00  0.00000000000E+00  0.48284522116E+02  0.48284522116E+02  0.00000000000E+00 0.  1.
          2   -1    0    0  504    0 -0.00000000000E+00 -0.00000000000E+00 -0.24376751044E+04  0.24376751044E+04  0.00000000000E+00 0. -1.
         21    1    1    2  503  502  0.60487911998E+02 -0.10168238480E+03 -0.54712583143E+02  0.13035168442E+03  0.00000000000E+00 0.  1.
         21    1    1    2  504  503 -0.93463779192E+02 -0.52992374631E+02 -0.48853945616E+03  0.50021442404E+03  0.00000000000E+00 0.  1.
         21    1    1    2  505  501  0.44628389896E+02  0.10796316471E+03 -0.83773348090E+03  0.84583989214E+03  0.00000000000E+00 0. -1.
          2    1    1    2  501    0 -0.11652522702E+02  0.46711594726E+02 -0.10084050621E+04  0.10095536259E+04  0.00000000000E+00 0. -1.
<scales pt_clust_3="14000.00000" pt_clust_4="104.21998" pt_clust_5="113.90325" pt_clust_6="48.14306"></scales>
<clustering>
<clus scale="   48.143">  2  6  1 -1</clus>
<clus scale="  104.220">  2  4  1 -1</clus>
<clus scale="  113.903">  2  5  1 -1</clus>
<clus scale="  113.903">  1  3  2 -1</clus>
</clustering>
</event>
<event>
 6    0  0.1361744E+002  0.1502572E+03  0.7546771E-02  0.1200157E+00
         21   -1    0    0  503  502  0.00000000000E+00  0.00000000000E+00  0.69317665136E+03  0.69317665136E+03  0.00000000000E+00 0.  1.
          1   -1    0    0  505    0 -0.00000000000E+00 -0.00000000000E+00 -0.55613310966E+03  0.55613310966E+03  0.00000000000E+00 0.  1.
         21    1    1    2  503  504 -0.77393253393E+02 -0.54909622164E+02  0.37653914389E+03  0.38831238604E+03  0.00000000000E+00 0.  1.
         21    1    1    2  504  501  0.36926005712E+02  0.88305720084E+02  0.46964848500E+02  0.10661672989E+03  0.00000000000E+00 0. -1.
         21    1    1    2  505  502 -0.89431704154E+02 -0.11059378826E+03  0.19976030398E+03  0.24522070622E+03  0.00000000000E+00 0.  1.
          1    1    1    2  501    0  0.12989895184E+03  0.77197690343E+02 -0.48622075467E+03  0.50915993887E+03  0.00000000000E+00 0.  1.
<scales pt_clust_3="94.89353" pt_clust_4="76.82752" pt_clust_5="14000.00000" pt_clust_6="150.25715"></scales>
<clustering>
<clus scale="   94.894">  1  3  2 -1</clus>
<clus scale="   76.828">  1  4  2 -1</clus>
<clus scale="  150.257">  2  6  1 -1</clus>
<clus scale="   94.894">  1  3  2 -1</clus>
</clustering>
</event>
<event>
 6    0  0.1361744E+002  0.8582106E+02  0.7546771E-02  0.1313299E+00
         21   -1    0    0  504  502  0.00000000000E+00  0.00000000000E+00  0.42643610000E+02  0.42643610000E+02  0.00000000000E+00 0.  1.
          1   -1    0    0  505    0 -0.00000000000E+00 -0.00000000000E+00 -0.20744421538E+04  0.20744421538E+04  0.00000000000E+00 0.  1.
         21    1    1    2  503  502 -0.11256392565E+02 -0.54785629048E+02  0.16615167422E+01  0.55954733147E+02  0.00000000000E+00 0.  1.
         21    1    1    2  504  501 -0.20955894274E+02 -0.34852165905E+02 -0.45060917594E+02  0.60698511247E+02  0.00000000000E+00 0.  1.
         21    1    1    2  505  503 -0.52808816162E+02  0.64742417247E+02 -0.35765943960E+03  0.36728820617E+03  0.00000000000E+00 0.  1.
          1    1    1    2  501    0  0.85021103001E+02  0.24895377706E+02 -0.16307397034E+04  0.16331443133E+04  0.00000000000E+00 0.  1.
<scales pt_clust_3="14000.00000" pt_clust_4="40.66722" pt_clust_5="81.81724" pt_clust_6="85.82106"></scales>
<clustering>
<clus scale="   40.667">  1  4  2 -1</clus>
<clus scale="   81.817">  2  5  1 -1</clus>
<clus scale="   85.821">  2  6  1 -1</clus>
<clus scale="   40.667">  1  3  2 -1</clus>
</clustering>
</event>
<event>
 6    0  0.1361744E+002  0.1122599E+03  0.7546771E-02  0.1256441E+00
          1   -1    0    0  505    0 -0.00000000000E+00  0.00000000000E+00  0.51017646766E+03  0.51017646766E+03  0.00000000000E+00 0. -1.
         21   -1    0    0  504  502  0.00000000000E+00 -0.00000000000E+00 -0.90269889005E+03  0.90269889005E+03  0.00000000000E+00 0. -1.
         21    1    1    2  503  502  0.22150669807E+02 -0.56954344908E+02 -0.82187132710E+03  0.82414011423E+03  0.00000000000E+00 0. -1.
         21    1    1    2  504  501 -0.13069856960E+02 -0.56362667969E+02 -0.40565969343E+02  0.70662361766E+02  0.00000000000E+00 0. -1.
         21    1    1    2  505  503  0.37408685894E+02  0.78216788146E+00  0.53265043663E+01  0.37794089692E+02  0.00000000000E+00 0.  1.
          1    1    1    2  501    0 -0.46489498741E+02  0.11253484500E+03  0.46458836967E+03  0.48027879202E+03  0.00000000000E+00 0. -1.
<scales pt_clust_3="112.25988" pt_clust_4="57.58531" pt_clust_5="37.41686" pt_clust_6="14000.00000"></scales>
<clustering>
<clus scale="   37.417">  1  5  2 -1</clus>
<clus scale="   57.585">  2  4  1 -1</clus>
<clus scale="  112.260">  2  3  1 -1</clus>
<clus scale="   57.585">  2  3  1 -1</clus>
</clustering>
</event>
<event>
 6    0  0.1361744E+002  0.9145583E+02  0.7546771E-02  0.1299364E+00
         21   -1    0    0  501  502  0.00000000000E+00  0.00000000000E+00  0.34934746963E+03  0.34934746963E+03  0.00000000000E+00 0.  1.
          2   -1    0    0  503    0 -0.00000000000E+00 -0.00000000000E+00 -0.50839795744E+03  0.50839795744E+03  0.00000000000E+00 0.  1.
         21    1    1    2  503  505 -0.22078901896E+02  0.36125863041E+02 -0.26060964097E+02  0.49716493632E+02  0.00000000000E+00 0. -1.
         21    1    1    2  504  502  0.87256640844E+02  0.28457496979E+02  0.32331863107E+03  0.33609297479E+03  0.00000000000E+00 0.  1.
         21    1    1    2  505  504  0.71864400707E+01 -0.43642724281E+02 -0.14217538652E+03  0.14889651721E+03  0.00000000000E+00 0. -1.
          2    1    1    2  501    0 -0.72364179018E+02 -0.20940635739E+02 -0.31413276827E+03  0.32303944144E+03  0.00000000000E+00 0.  1.
<scales pt_clust_3="42.33859" pt_clust_4="91.45583" pt_clust_5="32.47039" pt_clust_6="14000.00000"></scales>
<clustering>
<clus scale="   42.339">  2  3  1 -1</clus>
<clus scale="   32.470">  2  5  1 -1</clus>
<clus scale="   91.456">  1  4  2 -1</clus>
<clus scale="   91.456">  1  3  2 -1</clus>
</clustering>
</event>
<event>
 6    0  0.1361744E+002  0.2054043E+03  0.7546771E-02  0.1145258E+00
          1   -1    0    0  505    0 -0.00000000000E+00  0.00000000000E+00  0.10677312831E+04  0.10677312831E+04  0.00000000000E+00 0. -1.
         21   -1    0    0  504  502  0.00000000000E+00 -0.00000000000E+00 -0.67149341898E+03  0.67149341898E+03  0.00000000000E+00 0.  1.
         21    1    1    2  503  501  0.81433604122E+01 -0.44999230039E+02  0.17989042495E+03  0.18561198779E+03  0.00000000000E+00 0.  1.
         21    1    1    2  504  503 -0.25441618423E+02  0.13512333717E+03 -0.20071902096E+03  0.24329759056E+03  0.00000000000E+00 0.  1.
         21    1    1    2  505  502 -0.99807733285E+02  0.21275008934E+02 -0.43307993770E+03  0.44494094223E+03  0.00000000000E+00 0.  1.
          1    1    1    2  501    0  0.11710599130E+03 -0.11139911607E+03  0.85014639782E+03  0.86537418149E+03  0.00000000000E+00 0. -1.
<scales pt_clust_3="31.23497" pt_clust_4="196.83161" pt_clust_5="102.05003" pt_clust_6="31.23497"></scales>
<clustering>
<clus scale="   31.235">  3  6 -1 -1</clus>
<clus scale="  102.050">  2  5  1 -1</clus>
<clus scale="  196.832">  2  4  1 -1</clus>
<clus scale="  102.050">  2  3  1 -1</clus>
</clustering>
</event>
<event>
 6    0  0.1361744E+002  0.1016381E+03  0.7546771E-02  0.1276888E+00
         21   -1    0    0  505  502  0.00000000000E+00  0.00000000000E+00  0.11661905596E+03  0.11661905596E+03  0.00000000000E+00 0. -1.
         -4   -1    0    0    0  501 -0.00000000000E+00 -0.00000000000E+00 -0.12064079162E+04  0.12064079162E+04  0.00000000000E+00 0. -1.
         21    1    1    2  503  502  0.41614170806E+02  0.36563831257E+02  0.17903361192E+02  0.58216692709E+02  0.00000000000E+00 0. -1.
         21    1    1    2  504  503  0.64587958759E+01  0.11781742874E+03 -0.21055602680E+03  0.24136383942E+03  0.00000000000E+00 0. -1.
         21    1    1    2  505  501  0.13382217837E+02 -0.73297926080E+02  0.37413271638E+02  0.83375191853E+02  0.00000000000E+00 0. -1.
         -4    1    1    2    0  504 -0.61455184519E+02 -0.81083333921E+02 -0.93454946632E+03  0.94007124822E+03  0.00000000000E+00 0. -1.
<scales pt_clust_3="55.39542" pt_clust_4="14000.00000" pt_clust_5="64.03765" pt_clust_6="101.63812"></scales>
<clustering>
<clus scale="   55.395">  1  3  2 -1</clus>
<clus scale="   64.038">  1  5  2 -1</clus>
<clus scale="  101.638">  2  6  1 -1</clus>
<clus scale="   55.395">  1  3  2 -1</clus>
</clustering>
</event>
<event>
 6    0  0.1361744E+002  0.1448049E+03  0.7546771E-02  0.1207006E+00
         21   -1    0    0  505  502  0.00000000000E+00  0.00000000000E+00  0.34286443261E+03  0.34286443261E+03  0.00000000000E+00 0.  1.
          1   -1    0    0  503    0 -0.00000000000E+00 -0.00000000000E+00 -0.33061787432E+03  0.33061787432E+03  0.00000000000E+00 0. -1.
         21    1    1    2  503  502  0.32329684971E+02  0.23887577357E+02  0.46538946440E+02  0.61495515430E+02  0.00000000000E+00 0. -1.
         21    1    1    2  504  501 -0.38582502984E+02  0.73831996588E+02 -0.11753860181E+03  0.14406629089E+03  0.00000000000E+00 0. -1.
         21    1    1    2  505  504  0.51068528422E+02 -0.12429281739E+03  0.25510810369E+03  0.28833460357E+03  0.00000000000E+00 0.  1.
          1    1    1    2  501    0 -0.44815710408E+02  0.26573243446E+02 -0.17186189003E+03  0.17958589703E+03  0.00000000000E+00 0. -1.
<scales pt_clust_3="40.19732" pt_clust_4="49.58737" pt_clust_5="130.41028" pt_clust_6="49.58737"></scales>
<clustering>
<clus scale="   40.197">  1  3  2 -1</clus>
<clus scale="   49.587">  4  6 -1 -1</clus>
<clus scale="  130.410">  1  5  2 -1</clus>
<clus scale="   40.197">  1  3  2 -1</clus>
</clustering>
</event>
<event>
 6    0  0.1361744E+002  0.8561089E+02  0.7546771E-02  0.1313843E+00
         21   -1    0    0  505  502  0.00000000000E+00  0.00000000000E+00  0.57810170326E+03  0.57810170326E+03  0.00000000000E+00 0. -1.
          2   -1    0    0  504    0 -0.00000000000E+00 -0.00000000000E+00 -0.31688719714E+04  0.31688719714E+04  0.00000000000E+00 0. -1.
         21    1    1    2  503  502  0.30194456938E+01  0.38261258438E+02  0.50845218883E+03  0.50989868530E+03  0.00000000000E+00 0. -1.
         21    1    1    2  504  503  0.10950560962E+02  0.66982115957E+02 -0.38774325476E+03  0.39363860361E+03  0.00000000000E+00 0.  1.
         21    1    1    2  505  501 -0.56203980378E+02 -0.22024025706E+02  0.51216539435E+02  0.79164885084E+02  0.00000000000E+00 0.  1.
          2    1    1    2  501    0  0.42233973723E+02 -0.83219348689E+02 -0.27626957417E+04  0.27642715007E+04  0.00000000000E+00 0. -1.
<scales pt_clust_3="38.38022" pt_clust_4="14000.00000" pt_clust_5="55.19634" pt_clust_6="85.61089"></scales>
<clustering>
<clus scale="   38.380">  1  3  2 -1</clus>
<clus scale="   55.196">  1  5  2 -1</clus>
<clus scale="   85.611">  2  6  1 -1</clus>
<clus scale="   38.380">  1  3  2 -1</clus>
</clustering>
</event>
<event>
 6    0  0.1361744E+002  0.7926402E+02  0.7546771E-02  0.1331153E+00
          1   -1    0    0  505    0 -0.00000000000E+00  0.00000000000E+00  0.31617834193E+04  0.31617834193E+04  0.00000000000E+00 0. -1.
         21   -1    0    0  503  502  0.00000000000E+00 -0.00000000000E+00 -0.51313290686E+03  0.51313290686E+03  0.00000000000E+00 0.  1.
         21    1    1    2  503  504  0.40129830304E+02  0.45615206495E+02 -0.41289756719E+03  0.41734344530E+03  0.00000000000E+00 0.  1.
         21    1    1    2  504  501  0.39538407348E+02  0.39655822510E+02  0.58405256836E+03  0.58673100525E+03  0.00000000000E+00 0.  1.
         21    1    1    2  505  502 -0.12015271623E+03 -0.51202033086E+02 -0.52156539968E+02  0.14063651044E+03  0.00000000000E+00 0.  1.
          1    1    1    2  501    0  0.40484478573E+02 -0.34068995919E+02  0.25296520513E+04  0.25302053652E+04  0.00000000000E+00 0. -1.
<scales pt_clust_3="60.75921" pt_clust_4="14000.00000" pt_clust_5="79.26402" pt_clust_6="52.91209"></scales>
<clustering>
<clus scale="   52.912">  1  6  2 -1</clus>
<clus scale="   60.759">  2  3  1 -1</clus>
<clus scale="   79.264">  2  5  1 -1</clus>
<clus scale="   60.759">  2  3  1 -1</clus>
</clustering>
</event>
<event>
 6    0  0.1361744E+002  0.8627956E+02  0.7546771E-02  0.1312120E+00
          3   -1    0    0  503    0 -0.00000000000E+00  0.00000000000E+00  0.54058956734E+02  0.54058956734E+02  0.00000000000E+00 0. -1.
         21   -1    0    0  505  502  0.00000000000E+00 -0.00000000000E+00 -0.46223560538E+03  0.46223560538E+03  0.00000000000E+00 0. -1.
         21    1    1    2  503  504  0.50502405789E+01  0.45833195391E+02 -0.13281292664E+02  0.47985200473E+02  0.00000000000E+00 0. -1.
         21    1    1    2  504  502  0.36286570938E+02 -0.15688613443E+01 -0.61900543423E+02  0.71769449158E+02  0.00000000000E+00 0. -1.
         21    1    1    2  505  501  0.48228484823E+02  0.34876845260E+02 -0.23368280785E+03  0.24114318520E+03  0.00000000000E+00 0. -1.
          3    1    1    2  501    0 -0.89565296340E+02 -0.79141179307E+02 -0.99312004708E+02  0.15539672728E+03  0.00000000000E+00 0. -1.
<scales pt_clust_3="46.38274" pt_clust_4="36.32047" pt_clust_5="86.27956" pt_clust_6="14000.00000"></scales>
<clustering>
<clus scale="   36.320">  2  4  1 -1</clus>
<clus scale="   46.383">  1  3  2 -1</clus>
<clus scale="   86.280">  2  5  1 -1</clus>
<clus scale="   36.320">  2  3  1 -1</clus>
</clustering>
</event>
<event>
 6    0  0.1361744E+002  0.1431569E+03  0.7546771E-02  0.1209143E+00
          1   -1    0    0  505    0 -0.00000000000E+00  0.00000000000E+00  0.33533202070E+03  0.33533202070E+03  0.00000000000E+00 0. -1.
         21   -1    0    0  503  502  0.00000000000E+00 -0.00000000000E+00 -0.29240602489E+03  0.29240602489E+03  0.00000000000E+00 0. -1.
         21    1    1    2  503  501 -0.50935331138E+02 -0.43538871897E+02 -0.36641334120E+02  0.76371648472E+02  0.00000000000E+00 0. -1.
         21    1    1    2  504  502  0.47540453651E+02 -0.10426334469E+03 -0.13967105496E+03  0.18066251236E+03  0.00000000000E+00 0. -1.
         21    1    1    2  505  504  0.98785934305E+02 -0.23862218736E+02  0.88679796122E+02  0.13487836201E+03  0.00000000000E+00 0. -1.
          1    1    1    2  501    0 -0.95391056818E+02  0.17166443532E+03  0.13055858877E+03  0.23582552274E+03  0.00000000000E+00 0. -1.
<scales pt_clust_3="67.00777" pt_clust_4="14000.00000" pt_clust_5="97.92434" pt_clust_6="143.15692"></scales>
<clustering>
<clus scale="   67.008">  2  3  1 -1</clus>
<clus scale="   97.924">  1  5  2 -1</clus>
<clus scale="  143.157">  1  6  2 -1</clus>
<clus scale="   67.008">  2  3  1 -1</clus>
</clustering>
</event>
<event>
 6    0  0.1361744E+002  0.1865371E+03  0.7546771E-02  0.1161622E+00
         21   -1    0    0  503  502  0.00000000000E+00  0.00000000000E+00  0.17884414073E+04  0.17884414073E+04  0.00000000000E+00 0. -1.
          1   -1    0    0  504    0 -0.00000000000E+00 -0.00000000000E+00 -0.96682694216E+03  0.96682694216E+03  0.00000000000E+00 0.  1.
         21    1    1    2  503  505 -0.21717496805E+03 -0.10491227729E+03  0.15931382313E+04  0.16112917106E+04  0.00000000000E+00 0. -1.
         21    1    1    2  504  502  0.45511098203E+02  0.79531626280E+02  0.16520393099E+03  0.18891500325E+03  0.00000000000E+00 0.  1.
         21    1    1    2  505  501  0.97336343249E+02 -0.19691565033E+02 -0.49713138019E+03  0.50695338111E+03  0.00000000000E+00 0.  1.
          1    1    1    2  501    0  0.74327526595E+02  0.45072216040E+02 -0.43959631695E+03  0.44810825449E+03  0.00000000000E+00 0.  1.
<scales pt_clust_3="173.85278" pt_clust_4="91.63263" pt_clust_5="63.25588" pt_clust_6="63.25588"></scales>
<clustering>
<clus scale="   63.256">  5  6 -1 -1</clus>
<clus scale="   91.633">  1  4  2 -1</clus>
<clus scale="  173.853">  1  3  2 -1</clus>
<clus scale="   91.633">  1  3  2 -1</clus>
</clustering>
</event>
<event>
 6    0  0.1361744E+002  0.1438029E+03  0.7546771E-02  0.1208302E+00
         21   -1    0    0  504  502  0.00000000000E+00  0.00000000000E+00  0.74459788999E+02  0.74459788999E+02  0.00000000000E+00 0.  1.
          2   -1    0    0  503    0 -0.00000000000E+00 -0.00000000000E+00 -0.30660433186E+04  0.30660433186E+04  0.00000000000E+00 0.  1.
         21    1    1    2  503  505  0.42655995366E+02 -0.41043161356E+02 -0.45794117047E+03  0.46175122160E+03  0.00000000000E+00 0.  1.
         21    1    1    2  504  501  0.30734581998E+00  0.33077535576E+02 -0.25796645851E+02  0.41948596620E+02  0.00000000000E+00 0. -1.
         21    1    1    2  505  502 -0.76997972646E+02  0.92970517994E+02  0.64055757016E+01  0.12088521997E+03  0.00000000000E+00 0.  1.
          2    1    1    2  501    0  0.34034631460E+02 -0.85004892214E+02 -0.25142512890E+04  0.25159180694E+04  0.00000000000E+00 0.  1.
<scales pt_clust_3="58.54750" pt_clust_4="33.07896" pt_clust_5="143.80288" pt_clust_6="14000.00000"></scales>
<clustering>
<clus scale="   33.079">  1  4  2 -1</clus>
<clus scale="   58.547">  2  3  1 -1</clus>
<clus scale="  143.803">  1  5  2 -1</clus>
<clus scale="   33.079">  1  3  2 -1</clus>
</clustering>
</event>
<event>
 6    0  0.1361744E+002  0.1421971E+03  0.7546771E-02  0.1210403E+00
         21   -1    0    0  505  502  0.00000000000E+00  0.00000000000E+00  0.19228064465E+03  0.19228064465E+03  0.00000000000E+00 0.  1.
          1   -1    0    0  504    0 -0.00000000000E+00 -0.00000000000E+00 -0.27021365642E+04  0.27021365642E+04  0.00000000000E+00 0.  1.
         21    1    1    2  503  501 -0.12441504658E+02 -0.56500916412E+02 -0.89152504338E+03  0.89340027287E+03  0.00000000000E+00 0. -1.
         21    1    1    2  504  502  0.39842251353E+02  0.39120145413E+02  0.10362655320E+02  0.56790627706E+02  0.00000000000E+00 0. -1.
         21    1    1    2  505  503  0.46009207533E+02  0.56361449921E+02  0.14835491406E+03  0.16523510747E+03  0.00000000000E+00 0.  1.
          1    1    1    2  501    0 -0.73409954227E+02 -0.38980678922E+02 -0.17770484455E+04  0.17789912008E+04  0.00000000000E+00 0.  1.
<scales pt_clust_3="52.13219" pt_clust_4="55.83718" pt_clust_5="127.73218" pt_clust_6="52.13219"></scales>
<clustering>
<clus scale="   52.132">  3  6 -1 -1</clus>
<clus scale="   55.837">  1  4  2 -1</clus>
<clus scale="  127.732">  1  5  2 -1</clus>
<clus scale="   55.837">  1  3  2 -1</clus>
</clustering>
</event>
<event>
 6    0  0.1361744E+002  0.2760536E+03  0.7546771E-02  0.1097864E+00
          2   -1    0    0  504    0 -0.00000000000E+00  0.00000000000E+00  0.17396200094E+04  0.17396200094E+04  0.00000000000E+00 0. -1.
         21   -1    0    0  501  502  0.00000000000E+00 -0.00000000000E+00 -0.79819427766E+02  0.79819427766E+02  0.00000000000E+00 0. -1.
         21    1    1    2  503  505  0.96769400414E+02  0.13767334606E+03  0.22045210222E+03  0.27733985730E+03  0.00000000000E+00 0. -1.
         21    1    1    2  504  503 -0.87886175964E+02 -0.17666366705E+03  0.10168095078E+04  0.10357777785E+04  0.00000000000E+00 0. -1.
         21    1    1    2  505  502  0.10743259078E+03  0.85361202297E+02  0.13404053981E+03  0.19182065252E+03  0.00000000000E+00 0. -1.
          2    1    1    2  501    0 -0.11631581523E+03 -0.46370881312E+02  0.28849843180E+03  0.31450114890E+03  0.00000000000E+00 0. -1.
<scales pt_clust_3="49.48955" pt_clust_4="270.55852" pt_clust_5="49.48955" pt_clust_6="125.21832"></scales>
<clustering>
<clus scale="   49.490">  3  5 -1 -1</clus>
<clus scale="  125.218">  1  6  2 -1</clus>
<clus scale="  270.559">  1  4  2 -1</clus>
<clus scale="  276.054">  2  3  1 -1</clus>
</clustering>
</event>
<event>
 6    0  0.1361744E+002  0.1116434E+03  0.7546771E-02  0.1257556E+00
          2   -1    0    0  505    0 -0.00000000000E+00  0.00000000000E+00  0.40836236681E+03  0.40836236681E+03  0.00000000000E+00 0. -1.
         21   -1    0    0  504  502  0.00000000000E+00 -0.00000000000E+00 -0.72458940553E+03  0.72458940553E+03  0.00000000000E+00 0. -1.
         21    1    1    2  503  502 -0.58240496050E+02 -0.48303951984E+02 -0.59815716383E+03  0.60292389222E+03  0.00000000000E+00 0. -1.
         21    1    1    2  504  501  0.36190557656E+02 -0.61617818274E+02 -0.73616661234E+02  0.10259592976E+03  0.00000000000E+00 0.  1.
         21    1    1    2  505  503  0.18229431342E+02 -0.48184128910E+02  0.17825279674E+02  0.54513879346E+02  0.00000000000E+00 0.  1.
          2    1    1    2  501    0  0.38205070524E+01  0.15810589917E+03  0.33772150667E+03  0.37291807102E+03  0.00000000000E+00 0. -1.
<scales pt_clust_3="111.64340" pt_clust_4="73.43753" pt_clust_5="51.51721" pt_clust_6="14000.00000"></scales>
<clustering>
<clus scale="   51.517">  1  5  2 -1</clus>
<clus scale="   73.438">  2  4  1 -1</clus>
<clus scale="  111.643">  2  3  1 -1</clus>
<clus scale="   73.438">  2  3  1 -1</clus>
</clustering>
</event>
<event>
 6    0  0.1361744E+002  0.9299989E+02  0.7546771E-02  0.1295745E+00
         21   -1    0    0  504  502  0.00000000000E+00  0.00000000000E+00  0.61208018350E+03  0.61208018350E+03  0.00000000000E+00 0.  1.
          1   -1    0    0  505    0 -0.00000000000E+00 -0.00000000000E+00 -0.82790163715E+02  0.82790163715E+02  0.00000000000E+00 0.  1.
         21    1    1    2  503  502  0.56270684013E+02  0.78299988881E+02  0.34949588907E+03  0.36255296801E+03  0.00000000000E+00 0.  1.
         21    1    1    2  504  501  0.29116903024E+02 -0.38385776889E+02  0.18841119512E+03  0.19447375235E+03  0.00000000000E+00 0.  1.
         21    1    1    2  505  503 -0.17523931034E+02  0.28718385360E+02 -0.22295975995E+02  0.40360182880E+02  0.00000000000E+00 0. -1.
          1    1    1    2  501    0 -0.67863656004E+02 -0.68632597352E+02  0.13678911593E+02  0.97483443968E+02  0.00000000000E+00 0.  1.
<scales pt_clust_3="14000.00000" pt_clust_4="46.20836" pt_clust_5="33.64274" pt_clust_6="92.99989"></scales>
<clustering>
<clus scale="   33.643">  2  5  1 -1</clus>
<clus scale="   46.208">  1  4  2 -1</clus>
<clus scale="   93.000">  2  6  1 -1</clus>
<clus scale="   46.208">  1  3  2 -1</clus>
</clustering>
</event>
<event>
 6    0  0.1361744E+002  0.8497826E+02  0.7546771E-02  0.1315489E+00
         21   -1    0    0  503  502  0.00000000000E+00  0.00000000000E+00  0.10026072339E+03  0.10026072339E+03  0.00000000000E+00 0.  1.
         -2   -1    0    0    0  501 -0.00000000000E+00 -0.00000000000E+00 -0.77563480431E+03  0.77563480431E+03  0.00000000000E+00 0. -1.
         21    1    1    2  503  505 -0.68438720740E+02  0.57358575054E+02  0.37758825841E+02  0.96951501059E+02  0.00000000000E+00 0.  1.
         21    1    1    2  504  501  0.11651293529E+02  0.34426691932E+02 -0.85460806726E+02  0.92868182089E+02  0.00000000000E+00 0. -1.
         21    1    1    2  505  504  0.10919640537E+01 -0.98185164976E+02 -0.58805605422E+02  0.11445356367E+03  0.00000000000E+00 0.  1.
         -2    1    1    2    0  502  0.55695463156E+02  0.63998979908E+01 -0.56886649461E+03  0.57162228088E+03  0.00000000000E+00 0. -1.
<scales pt_clust_3="14000.00000" pt_clust_4="36.34487" pt_clust_5="84.97826" pt_clust_6="74.15267"></scales>
<clustering>
<clus scale="   36.345">  2  4  1 -1</clus>
<clus scale="   74.153">  2  6  1 -1</clus>
<clus scale="   84.978">  2  5  1 -1</clus>
<clus scale="   84.978">  1  3  2 -1</clus>
</clustering>
</event>
<event>
 6    0  0.1361744E+002  0.1886572E+03  0.7546771E-02  0.1159678E+00
         21   -1    0    0  503  502  0.00000000000E+00  0.00000000000E+00  0.80726108406E+03  0.80726108406E+03  0.00000000000E+00 0.  1.
         -1   -1    0    0    0  501 -0.00000000000E+00 -0.00000000000E+00 -0.32775558711E+03  0.32775558711E+03  0.00000000000E+00 0.  1.
         21    1    1    2  503  504  0.20083461125E+01  0.17494897411E+03  0.63640834951E+03  0.66002027569E+03  0.00000000000E+00 0.  1.
         21    1    1    2  504  501  0.74266418866E+02 -0.15125793965E+03 -0.12262132970E+03  0.20839974994E+03  0.00000000000E+00 0.  1.
         21    1    1    2  505  502 -0.65982964448E+02  0.82914904606E+01  0.10446713566E+03  0.12383813162E+03  0.00000000000E+00 0.  1.
         -1    1    1    2    0  505 -0.10291800531E+02 -0.31982524919E+02 -0.13874865851E+03  0.14275851392E+03  0.00000000000E+00 0.  1.
<scales pt_clust_3="14000.00000" pt_clust_4="188.65719" pt_clust_5="66.84612" pt_clust_6="33.59766"></scales>
<clustering>
<clus scale="   33.598">  2  6  1 -1</clus>
<clus scale="   66.846">  1  5  2 -1</clus>
<clus scale="  188.657">  2  4  1 -1</clus>
<clus scale="   66.846">  1  3  2 -1</clus>
</clustering>
</event>
<event>
 6    0  0.1361744E+002  0.4066683E+03  0.7546771E-02  0.1041495E+00
         21   -1    0    0  504  502  0.00000000000E+00  0.00000000000E+00  0.79925400245E+03  0.79925400245E+03  0.00000000000E+00 0. -1.
         -1   -1    0    0    0  501 -0.00000000000E+00 -0.00000000000E+00 -0.81576883963E+03  0.81576883963E+03  0.00000000000E+00 0. -1.
         21    1    1    2  503  502  0.10669446667E+03  0.93154431794E+02 -0.26022774881E+03  0.29627679395E+03  0.00000000000E+00 0. -1.
         21    1    1    2  504  505  0.25610247977E+02 -0.77885095635E+02  0.72542372880E+02  0.10947314185E+03  0.00000000000E+00 0. -1.
         21    1    1    2  505  501 -0.26550534649E+03 -0.24792659404E+03  0.60125600328E+03  0.70247381910E+03  0.00000000000E+00 0. -1.
         -1    1    1    2    0  503  0.13320063185E+03  0.23265725788E+03 -0.43008546453E+03  0.50679908718E+03  0.00000000000E+00 0. -1.
<scales pt_clust_3="49.80783" pt_clust_4="81.98764" pt_clust_5="400.85346" pt_clust_6="49.80783"></scales>
<clustering>
<clus scale="   49.808">  3  6 -1 -1</clus>
<clus scale="   81.988">  1  4  2 -1</clus>
<clus scale="  400.853">  1  5  2 -1</clus>
<clus scale="   81.988">  1  3  2 -1</clus>
</clustering>
</event>
<event>
 6    0  0.1361744E+002  0.9117962E+02  0.7546771E-02  0.1300020E+00
          1   -1    0    0  503    0 -0.00000000000E+00  0.00000000000E+00  0.56353156124E+03  0.56353156124E+03  0.00000000000E+00 0.  1.
         21   -1    0    0  504  502  0.00000000000E+00 -0.00000000000E+00 -0.52223445123E+02  0.52223445123E+02  0.00000000000E+00 0.  1.
         21    1    1    2  503  505  0.41295887713E+01 -0.38939881428E+02  0.84986275114E+02  0.93573686615E+02  0.00000000000E+00 0. -1.
         21    1    1    2  504  501 -0.40764368102E+02  0.33662410609E+02  0.32508562852E+02  0.62062051637E+02  0.00000000000E+00 0.  1.
         21    1    1    2  505  502 -0.61928739295E+02 -0.24088369415E+02  0.15712715706E+02  0.68281093478E+02  0.00000000000E+00 0.  1.
          1    1    1    2  501    0  0.98563518626E+02  0.29365840234E+02  0.37810056244E+03  0.39183817463E+03  0.00000000000E+00 0.  1.
<scales pt_clust_3="39.15824" pt_clust_4="50.15154" pt_clust_5="14000.00000" pt_clust_6="91.17962"></scales>
<clustering>
<clus scale="   39.158">  1  3  2 -1</clus>
<clus scale="   50.152">  2  4  1 -1</clus>
<clus scale="   91.180">  1  6  2 -1</clus>
<clus scale="   50.152">  2  3  1 -1</clus>
</clustering>
</event>
<event>
 6    0  0.1361744E+002  0.1488174E+03  0.7546771E-02  0.1201934E+00
          2   -1    0    0  505    0 -0.00000000000E+00  0.00000000000E+00  0.34002896133E+03  0.34002896133E+03  0.00000000000E+00 0. -1.
         21   -1    0    0  503  502  0.00000000000E+00 -0.00000000000E+00 -0.17836652320E+03  0.17836652320E+03  0.00000000000E+00 0.  1.
         21    1    1    2  503  504 -0.25284813325E+02 -0.73615190725E+02 -0.14968176946E+02  0.79262629350E+02  0.00000000000E+00 0.  1.
         21    1    1    2  504  501  0.73572637227E+02  0.52224333808E+02  0.10606507943E+03  0.13924839340E+03  0.00000000000E+00 0.  1.
         21    1    1    2  505  502 -0.84331783280E+02 -0.25589406253E+02 -0.91681382231E+02  0.12716974181E+03  0.00000000000E+00 0.  1.
          2    1    1    2  501    0  0.36043959379E+02  0.46980263170E+02  0.16224691788E+03  0.17271471997E+03  0.00000000000E+00 0. -1.
<scales pt_clust_3="77.83648" pt_clust_4="47.73768" pt_clust_5="136.65394" pt_clust_6="47.73768"></scales>
<clustering>
<clus scale="   47.738">  4  6 -1 -1</clus>
<clus scale="   77.836">  2  3  1 -1</clus>
<clus scale="  136.654">  2  5  1 -1</clus>
<clus scale="   77.836">  2  3  1 -1</clus>
</clustering>
</event>
<event>
 6    0  0.1361744E+002  0.1035622E+03  0.7546771E-02  0.1272979E+00
         21   -1    0    0  503  502  0.00000000000E+00  0.00000000000E+00  0.97285686679E+02  0.97285686679E+02  0.00000000000E+00 0.  1.
          2   -1    0    0  504    0 -0.00000000000E+00 -0.00000000000E+00 -0.71775178494E+03  0.71775178494E+03  0.00000000000E+00 0.  1.
         21    1    1    2  503  505 -0.26774621546E+02  0.21325632642E+02 -0.15100426541E+02  0.37412375603E+02  0.00000000000E+00 0. -1.
         21    1    1    2  504  502 -0.50033268371E+02 -0.76593325980E+01 -0.87690343859E+02  0.10125013445E+03  0.00000000000E+00 0. -1.
         21    1    1    2  505  501  0.14287024782E+02 -0.12001029476E+03  0.21944747806E+02  0.12283387921E+03  0.00000000000E+00 0.  1.
          2    1    1    2  501    0  0.62520865136E+02  0.10634399472E+03 -0.53962007567E+03  0.55354108235E+03  0.00000000000E+00 0.  1.
<scales pt_clust_3="34.22956" pt_clust_4="52.48277" pt_clust_5="103.56219" pt_clust_6="14000.00000"></scales>
<clustering>
<clus scale="   34.230">  1  3  2 -1</clus>
<clus scale="   52.483">  2  4  1 -1</clus>
<clus scale="  103.562">  1  5  2 -1</clus>
<clus scale="   34.230">  1  3  2 -1</clus>
</clustering>
</event>
<event>
 6    0  0.1361744E+002  0.1921764E+03  0.7546771E-02  0.1156513E+00
         -3   -1    0    0    0  501 -0.00000000000E+00  0.00000000000E+00  0.12134980570E+04  0.12134980570E+04  0.00000000000E+00 0. -1.
         21   -1    0    0  505  502  0.00000000000E+00 -0.00000000000E+00 -0.36767532283E+03  0.36767532283E+03  0.00000000000E+00 0.  1.
         21    1    1    2  503  504  0.68049894382E+02  0.10644170670E+02 -0.95231550153E+02  0.11752929269E+03  0.00000000000E+00 0.  1.
         21    1    1    2  504  502  0.82693765204E+02  0.90668948901E+02 -0.23099425795E+03  0.26156732270E+03  0.00000000000E+00 0.  1.
         21    1    1    2  505  501 -0.34180808547E+02 -0.27742700805E+02  0.33771137233E+02  0.55484005180E+02  0.00000000000E+00 0.  1.
         -3    1    1    2    0  503 -0.11656285104E+03 -0.73570418766E+02  0.11382774050E+04  0.11465927592E+04  0.00000000000E+00 0. -1.
<scales pt_clust_3="49.12873" pt_clust_4="49.12873" pt_clust_5="44.02255" pt_clust_6="180.63442"></scales>
<clustering>
<clus scale="   44.023">  1  5  2 -1</clus>
<clus scale="   49.129">  3  4 -1 -1</clus>
<clus scale="  180.634">  1  6  2 -1</clus>
<clus scale="  192.176">  2  3  1 -1</clus>
</clustering>
</event>
<event>
 6    0  0.1361744E+002  0.1565517E+03  0.7546771E-02  0.1192646E+00
          2   -1    0    0  504    0 -0.00000000000E+00  0.00000000000E+00  0.11728049766E+04  0.11728049766E+04  0.00000000000E+00 0. -1.
         21   -1    0    0  503  502  0.00000000000E+00 -0.00000000000E+00 -0.54564902171E+02  0.54564902171E+02  0.00000000000E+00 0. -1.
         21    1    1    2  503  501 -0.23491206843E+02 -0.30122544212E+02  0.64750667126E+02  0.75178809262E+02  0.00000000000E+00 0. -1.
         21    1    1    2  504  505  0.58748566235E+02  0.70026966329E+02  0.63371386806E+02  0.11122545893E+03  0.00000000000E+00 0. -1.
         21    1    1    2  505  502  0.18156609182E+02  0.93355921179E+02  0.95061248827E+02  0.13446795717E+03  0.00000000000E+00 0. -1.
          2    1    1    2  501    0 -0.53413968574E+02 -0.13326034330E+03  0.89505677168E+03  0.90649765342E+03  0.00000000000E+00 0. -1.
<scales pt_clust_3="38.19953" pt_clust_4="48.65165" pt_clust_5="48.65165" pt_clust_6="147.82575"></scales>
<clustering>
<clus scale="   38.200">  2  3  1 -1</clus>
<clus scale="   48.652">  4  5 -1 -1</clus>
<clus scale="  147.826">  1  6  2 -1</clus>
<clus scale="   38.200">  2  3  1 -1</clus>
</clustering>
</event>
<event>
 6    0  0.1361744E+002  0.1149706E+03  0.7546771E-02  0.1251632E+00
         21   -1    0    0  501  502  0.00000000000E+00  0.00000000000E+00  0.10372284160E+03  0.10372284160E+03  0.00000000000E+00 0. -1.
         -2   -1    0    0    0  501 -0.00000000000E+00 -0.00000000000E+00 -0.17701158819E+04  0.17701158819E+04  0.00000000000E+00 0. -1.
         21    1    1    2  503  502  0.56670912080E+02  0.26967612709E+02  0.70199979328E+02  0.94164120071E+02  0.00000000000E+00 0. -1.
         21    1    1    2  504  503 -0.16803493239E+02  0.73876113272E+02 -0.54376071194E+02  0.93256606284E+02  0.00000000000E+00 0. -1.
         21    1    1    2  505  504  0.42538565754E+01 -0.52693515294E+02 -0.65732644552E+03  0.65944882882E+03  0.00000000000E+00 0. -1.
         -2    1    1    2    0  505 -0.44121275416E+02 -0.48150210687E+02 -0.10248905029E+04  0.10269691683E+04  0.00000000000E+00 0. -1.
<scales pt_clust_3="62.76021" pt_clust_4="104.04476" pt_clust_5="44.01148" pt_clust_6="44.01148"></scales>
<clustering>
<clus scale="   44.011">  5  6 -1 -1</clus>
<clus scale="   62.760">  1  3  2 -1</clus>
<clus scale="  104.045">  1  4  2 -1</clus>
<clus scale="   62.760">  1  3  2 -1</clus>
</clustering>
</event>
<event>
 6    0  0.1361744E+002  0.1000112E+03  0.7546771E-02  0.1280272E+00
          4   -1    0    0  504    0 -0.00000000000E+00  0.00000000000E+00  0.75139485254E+02  0.75139485254E+02  0.00000000000E+00 0.  1.
         21   -1    0    0  505  502  0.00000000000E+00 -0.00000000000E+00 -0.79595827183E+03  0.79595827183E+03  0.00000000000E+00 0.  1.
         21    1    1    2  503  502  0.90462177332E+02 -0.67657422953E+02 -0.25915181536E+03  0.28270230953E+03  0.00000000000E+00 0.  1.
         21    1    1    2  504  503 -0.46964365787E+02  0.26210377451E+02 -0.33480863686E+02  0.63353009187E+02  0.00000000000E+00 0. -1.
         21    1    1    2  505  501  0.25792370308E+02  0.59600737158E+02 -0.44642832110E+03  0.45112718840E+03  0.00000000000E+00 0.  1.
          4    1    1    2  501    0 -0.69290181853E+02 -0.18153691656E+02  0.18242213569E+02  0.73915249968E+02  0.00000000000E+00 0.  1.
<scales pt_clust_3="100.01120" pt_clust_4="53.78323" pt_clust_5="65.18652" pt_clust_6="14000.00000"></scales>
<clustering>
<clus scale="   53.783">  1  4  2 -1</clus>
<clus scale="   65.187">  2  5  1 -1</clus>
<clus scale="  100.011">  2  3  1 -1</clus>
<clus scale="   65.187">  2  3  1 -1</clus>
</clustering>
</event>
<event>
 6    0  0.1361744E+002  0.1550426E+03  0.7546771E-02  0.1194410E+00
         21   -1    0    0  504  502  0.00000000000E+00  0.00000000000E+00  0.65380012108E+02  0.65380012108E+02  0.00000000000E+00 0.  1.
          2   -1    0    0  503    0 -0.00000000000E+00 -0.00000000000E+00 -0.13100291185E+04  0.13100291185E+04  0.00000000000E+00 0.  1.
         21    1    1    2  503  505 -0.13502499884E+02 -0.46600487562E+02 -0.22839284398E+02  0.53624209607E+02  0.00000000000E+00 0.  1.
         21    1    1    2  504  501 -0.65663654621E+01 -0.54690901784E+02 -0.99025310118E+02  0.11331471192E+03  0.00000000000E+00 0. -1.
         21    1    1    2  505  502 -0.10189804204E+02 -0.49192410743E+02  0.20987507971E+02  0.54444475159E+02  0.00000000000E+00 0.  1.
          2    1    1    2  501    0  0.30258669551E+02  0.15048380009E+03 -0.11437720198E+04  0.11540257339E+04  0.00000000000E+00 0.  1.
<scales pt_clust_3="43.26062" pt_clust_4="55.08368" pt_clust_5="43.26062" pt_clust_6="148.66200"></scales>
<clustering>
<clus scale="   43.261">  3  5 -1 -1</clus>
<clus scale="   55.084">  1  4  2 -1</clus>
<clus scale="  148.662">  2  6  1 -1</clus>
<clus scale="   55.084">  1  3  2 -1</clus>
</clustering>
</event>
<event>
 6    0  0.1361744E+002  0.1266519E+03  0.7546771E-02  0.1232510E+00
         21   -1    0    0  504  502  0.00000000000E+00  0.00000000000E+00  0.25297376222E+04  0.25297376222E+04  0.00000000000E+00 0. -1.
          2   -1    0    0  505    0 -0.00000000000E+00 -0.00000000000E+00 -0.18938331405E+03  0.18938331405E+03  0.00000000000E+00 0. -1.
         21    1    1    2  503  502 -0.21164319811E+02  0.49932664739E+02  0.34736334537E+03  0.35157146236E+03  0.00000000000E+00 0. -1.
         21    1    1    2  504  501  0.12013525250E+03  0.28252514375E+02  0.21119455544E+04  0.21155483233E+04  0.00000000000E+00 0. -1.
         21    1    1    2  505  503  0.12136271191E+02  0.45002418387E+02  0.20686290382E+01  0.46656038893E+02  0.00000000000E+00 0. -1.
          2    1    1    2  501    0 -0.11110720388E+03 -0.12318759750E+03 -0.12102322070E+03  0.20534511166E+03  0.00000000000E+00 0. -1.
<scales pt_clust_3="54.69614" pt_clust_4="126.65189" pt_clust_5="46.61016" pt_clust_6="14000.00000"></scales>
<clustering>
<clus scale="   46.610">  2  5  1 -1</clus>
<clus scale="   54.696">  1  3  2 -1</clus>
<clus scale="  126.652">  1  4  2 -1</clus>
<clus scale="   54.696">  1  3  2 -1</clus>
</clustering>
</event>
<event>
 6    0  0.1361744E+002  0.6641135E+02  0.7546771E-02  0.1372740E+00
          2   -1    0    0  503    0 -0.00000000000E+00  0.00000000000E+00  0.11171024827E+04  0.11171024827E+04  0.00000000000E+00 0. -1.
         21   -1    0    0  504  502  0.00000000000E+00 -0.00000000000E+00 -0.75296742039E+02  0.75296742039E+02  0.00000000000E+00 0.  1.
         21    1    1    2  503  505 -0.48878048924E+02 -0.64928616455E+01  0.28953782795E+03  0.29370627288E+03  0.00000000000E+00 0. -1.
         21    1    1    2  504  501  0.39751324614E+02  0.10671357673E+03 -0.92553695462E+01  0.11425242725E+03  0.00000000000E+00 0.  1.
         21    1    1    2  505  502 -0.34447301999E+02 -0.41875790405E+02  0.67382365359E+02  0.86490355522E+02  0.00000000000E+00 0.  1.
          2    1    1    2  501    0  0.43574026309E+02 -0.58344924680E+02  0.69414091687E+03  0.69795016905E+03  0.00000000000E+00 0. -1.
<scales pt_clust_3="49.30741" pt_clust_4="14000.00000" pt_clust_5="57.67019" pt_clust_6="66.41135"></scales>
<clustering>
<clus scale="   49.307">  1  3  2 -1</clus>
<clus scale="   57.670">  2  5  1 -1</clus>
<clus scale="   66.411">  1  6  2 -1</clus>
<clus scale="   57.670">  2  3  1 -1</clus>
</clustering>
</event>
<event>
 6    0  0.1361744E+002  0.1960144E+03  0.7546771E-02  0.1153146E+00
         21   -1    0    0  501  502  0.00000000000E+00  0.00000000000E+00  0.47034741234E+03  0.47034741234E+03  0.00000000000E+00 0. -1.
          1   -1    0    0  505    0 -0.00000000000E+00 -0.00000000000E+00 -0.71133059938E+03  0.71133059938E+03  0.00000000000E+00 0.  1.
         21    1    1    2  503  502  0.56463830012E+01 -0.82207175249E+02  0.25440667045E+03  0.26741850212E+03  0.00000000000E+00 0. -1.
         21    1    1    2  504  503  0.77210697844E+02 -0.74469929095E+02  0.18062559792E+03  0.21007824453E+03  0.00000000000E+00 0. -1.
         21    1    1    2  505  504  0.16906042655E+02  0.36018010231E+02 -0.16444399652E+03  0.16918906386E+03  0.00000000000E+00 0.  1.
          1    1    1    2  501    0 -0.99763123500E+02  0.12065909411E+03 -0.51157145890E+03  0.53499220122E+03  0.00000000000E+00 0.  1.
<scales pt_clust_3="75.00341" pt_clust_4="75.00341" pt_clust_5="39.78833" pt_clust_6="176.30817"></scales>
<clustering>
<clus scale="   39.788">  2  5  1 -1</clus>
<clus scale="   75.003">  3  4 -1 -1</clus>
<clus scale="  176.308">  2  6  1 -1</clus>
<clus scale="  196.014">  1  3  2 -1</clus>
</clustering>
</event>
<event>
 6    0  0.1361744E+002  0.1393862E+03  0.7546771E-02  0.1214157E+00
          1   -1    0    0  504    0 -0.00000000000E+00  0.00000000000E+00  0.24976438520E+04  0.24976438520E+04  0.00000000000E+00 0. -1.
         21   -1    0    0  503  502  0.00000000000E+00 -0.00000000000E+00 -0.56047739963E+03  0.56047739963E+03  0.00000000000E+00 0. -1.
         21    1    1    2  503  501  0.71858180801E+02 -0.98287197199E+01 -0.13064243710E+03  0.14942438974E+03  0.00000000000E+00 0. -1.
         21    1    1    2  504  505 -0.16481890089E+02 -0.50797098767E+02  0.62774742246E+03  0.63001493979E+03  0.00000000000E+00 0.  1.
         21    1    1    2  505  502  0.69642263569E+02  0.12227075954E+02 -0.41389178546E+03  0.41988802833E+03  0.00000000000E+00 0. -1.
          1    1    1    2  501    0 -0.12501855428E+03  0.48398742533E+02  0.18539532524E+04  0.18587938937E+04  0.00000000000E+00 0. -1.
<scales pt_clust_3="139.38616" pt_clust_4="53.40410" pt_clust_5="70.66737" pt_clust_6="14000.00000"></scales>
<clustering>
<clus scale="   53.404">  1  4  2 -1</clus>
<clus scale="   70.667">  2  5  1 -1</clus>
<clus scale="  139.386">  2  3  1 -1</clus>
<clus scale="   70.667">  2  3  1 -1</clus>
</clustering>
</event>
<event>
 6    0  0.1361744E+002  0.1144430E+03  0.7546771E-02  0.1252556E+00
          2   -1    0    0  505    0 -0.00000000000E+00  0.00000000000E+00  0.38203295066E+04  0.38203295066E+04  0.00000000000E+00 0.  1.
         21   -1    0    0  504  502  0.00000000000E+00 -0.00000000000E+00 -0.81078581458E+03  0.81078581458E+03  0.00000000000E+00 0. -1.
         21    1    1    2  503  502 -0.48288638659E+02 -0.64751844960E+02 -0.68325314931E+03  0.68801123544E+03  0.00000000000E+00 0. -1.
         21    1    1    2  504  501 -0.35954766275E+02 -0.12935046970E+02 -0.11774521785E+03  0.12379013282E+03  0.00000000000E+00 0.  1.
         21    1    1    2  505  503 -0.29776558691E+02 -0.14455237128E+02  0.90144907404E+02  0.96029691548E+02  0.00000000000E+00 0.  1.
          2    1    1    2  501    0  0.11401996362E+03  0.92142129058E+02  0.37203971518E+04  0.37232842614E+04  0.00000000000E+00 0.  1.
<scales pt_clust_3="14000.00000" pt_clust_4="38.23743" pt_clust_5="33.09981" pt_clust_6="114.44304"></scales>
<clustering>
<clus scale="   33.100">  1  5  2 -1</clus>
<clus scale="   38.237">  2  4  1 -1</clus>
<clus scale="  114.443">  1  6  2 -1</clus>
<clus scale="   38.237">  2  3  1 -1</clus>
</clustering>
</event>
<event>
 6    0  0.1361744E+002  0.7015068E+02  0.7546771E-02  0.1359581E+00
          2   -1    0    0  505    0 -0.00000000000E+00  0.00000000000E+00  0.15470542412E+04  0.15470542412E+04  0.00000000000E+00 0.  1.
         21   -1    0    0  503  502  0.00000000000E+00 -0.00000000000E+00 -0.58557200709E+02  0.58557200709E+02  0.00000000000E+00 0.  1.
         21    1    1    2  503  501 -0.43171233336E+01  0.40799094752E+02  0.23044798390E+02  0.47055992385E+02  0.00000000000E+00 0. -1.
         21    1    1    2  504  502  0.74037173580E+02 -0.27934343280E+02 -0.57392129105E+01  0.79339581364E+02  0.00000000000E+00 0.  1.
         21    1    1    2  505  504 -0.18092105568E+02  0.49266836935E+02  0.25503054691E+03  0.26037497070E+03  0.00000000000E+00 0.  1.
          2    1    1    2  501    0 -0.51627944679E+02 -0.62131588407E+02  0.12161609081E+04  0.12188408975E+04  0.00000000000E+00 0.  1.
<scales pt_clust_3="41.02687" pt_clust_4="70.15068" pt_clust_5="54.77066" pt_clust_6="14000.00000"></scales>
<clustering>
<clus scale="   41.027">  2  3  1 -1</clus>
<clus scale="   54.771">  1  5  2 -1</clus>
<clus scale="   70.151">  2  4  1 -1</clus>
<clus scale="   41.027">  2  3  1 -1</clus>
</clustering>
</event>
<event>
 6    0  0.1361744E+002  0.2525674E+03  0.7546771E-02  0.1111693E+00
          1   -1    0    0  502    0 -0.00000000000E+00  0.00000000000E+00  0.42461093638E+03  0.42461093638E+03  0.00000000000E+00 0. -1.
         21   -1    0    0  505  502  0.00000000000E+00 -0.00000000000E+00 -0.39982793567E+03  0.39982793567E+03  0.00000000000E+00 0.  1.
         21    1    1    2  503  501 -0.32082520599E+02 -0.61483604826E+02  0.44488541035E+02  0.82393883716E+02  0.00000000000E+00 0. -1.
         21    1    1    2  504  503  0.21581863752E+02  0.16418320413E+03 -0.19525102793E+03  0.25601731439E+03  0.00000000000E+00 0.  1.
         21    1    1    2  505  504  0.70029657832E+02  0.50796680133E+02 -0.11987311133E+03  0.14783104718E+03  0.00000000000E+00 0.  1.
          1    1    1    2  501    0 -0.59529000985E+02 -0.15349627944E+03  0.29541859894E+03  0.33819662677E+03  0.00000000000E+00 0. -1.
<scales pt_clust_3="53.32509" pt_clust_4="69.25748" pt_clust_5="69.25748" pt_clust_6="247.70853"></scales>
<clustering>
<clus scale="   53.325">  3  6 -1 -1</clus>
<clus scale="   69.257">  4  5 -1 -1</clus>
<clus scale="  247.709">  1  3  2 -1</clus>
<clus scale="  252.567">  2  3  1 -1</clus>
</clustering>
</event>
<event>
 6    0  0.1361744E+002  0.1588477E+03  0.7546771E-02  0.1190004E+00
         21   -1    0    0  504  502  0.00000000000E+00  0.00000000000E+00  0.53439611511E+02  0.53439611511E+02  0.00000000000E+00 0. -1.
          1   -1    0    0  503    0 -0.00000000000E+00 -0.00000000000E+00 -0.25666672091E+04  0.25666672091E+04  0.00000000000E+00 0. -1.
         21    1    1    2  503  505 -0.36852190146E+02 -0.40078293471E+01 -0.37680671625E+03  0.37862573609E+03  0.00000000000E+00 0. -1.
         21    1    1    2  504  501 -0.49015907852E+02  0.12083469826E+03 -0.45940362586E+03  0.47755133229E+03  0.00000000000E+00 0.  1.
         21    1    1    2  505  502  0.29534659177E+02 -0.16739554747E+03 -0.12730061555E+03  0.21236527994E+03  0.00000000000E+00 0. -1.
          1    1    1    2  501    0  0.56333438821E+02  0.50568678559E+02 -0.15497166399E+04  0.15515644722E+04  0.00000000000E+00 0. -1.
<scales pt_clust_3="37.06948" pt_clust_4="158.84770" pt_clust_5="14000.00000" pt_clust_6="56.49615"></scales>
<clustering>
<clus scale="   37.069">  2  3  1 -1</clus>
<clus scale="   56.496">  2  6  1 -1</clus>
<clus scale="  158.848">  2  4  1 -1</clus>
<clus scale="  158.848">  1  3  2 -1</clus>
</clustering>
</event>
<event>
 6    0  0.1361744E+002  0.1218044E+03  0.7546771E-02  0.1240150E+00
          3   -1    0    0  505    0 -0.00000000000E+00  0.00000000000E+00  0.74326212102E+02  0.74326212102E+02  0.00000000000E+00 0.  1.
         21   -1    0    0  501  502  0.00000000000E+00 -0.00000000000E+00 -0.46462460183E+03  0.46462460183E+03  0.00000000000E+00 0. -1.
         21    1    1    2  503  504 -0.49034744324E+02 -0.89526227746E+01 -0.74276237169E+02  0.89451187882E+02  0.00000000000E+00 0. -1.
         21    1    1    2  504  502 -0.22101846997E+02 -0.22897783048E+02 -0.10756638207E+03  0.11217542806E+03  0.00000000000E+00 0. -1.
         21    1    1    2  505  503  0.31710073930E+02 -0.10070327685E+03 -0.15817642035E+03  0.19017481093E+03  0.00000000000E+00 0. -1.
          3    1    1    2  501    0  0.39426517391E+02  0.13255368267E+03 -0.50279350146E+02  0.14714938707E+03  0.00000000000E+00 0.  1.
<scales pt_clust_3="87.10083" pt_clust_4="31.06707" pt_clust_5="121.80442" pt_clust_6="14000.00000"></scales>
<clustering>
<clus scale="   31.067">  3  4 -1 -1</clus>
<clus scale="   87.101">  2  3  1 -1</clus>
<clus scale="  121.804">  2  5  1 -1</clus>
<clus scale="   87.101">  2  3  1 -1</clus>
</clustering>
</event>
<event>
 6    0  0.1361744E+002  0.1050722E+03  0.7546771E-02  0.1269977E+00
          1   -1    0    0  504    0 -0.00000000000E+00  0.00000000000E+00  0.51669439293E+03  0.51669439293E+03  0.00000000000E+00 0. -1.
         21   -1    0    0  503  502  0.00000000000E+00 -0.00000000000E+00 -0.18441474741E+04  0.18441474741E+04  0.00000000000E+00 0. -1.
         21    1    1    2  503  505 -0.15234485116E+03 -0.93682301471E+02 -0.15625816698E+04  0.15727831389E+04  0.00000000000E+00 0. -1.
         21    1    1    2  504  502  0.49276436221E+02  0.62662894404E+02 -0.18722762324E+03  0.20349198609E+03  0.00000000000E+00 0.  1.
         21    1    1    2  505  501  0.29727557313E+02  0.10631348584E+03 -0.34592718425E+02  0.11568466235E+03  0.00000000000E+00 0.  1.
          1    1    1    2  501    0  0.73340857630E+02 -0.75294078773E+02  0.45694893031E+03  0.46888207964E+03  0.00000000000E+00 0. -1.
<scales pt_clust_3="14000.00000" pt_clust_4="79.71703" pt_clust_5="103.41950" pt_clust_6="105.07222"></scales>
<clustering>
<clus scale="   79.717">  2  4  1 -1</clus>
<clus scale="  105.072">  1  6  2 -1</clus>
<clus scale="  103.420">  1  5  2 -1</clus>
<clus scale="   79.717">  2  3  1 -1</clus>
</clustering>
</event>
<event>
 6    0  0.1361744E+002  0.1162470E+03  0.7546771E-02  0.1249420E+00
          2   -1    0    0  505    0 -0.00000000000E+00  0.00000000000E+00  0.21527760930E+04  0.21527760930E+04  0.00000000000E+00 0. -1.
         21   -1    0    0  503  502  0.00000000000E+00 -0.00000000000E+00 -0.37611906088E+03  0.37611906088E+03  0.00000000000E+00 0. -1.
         21    1    1    2  503  504  0.15389830869E+02 -0.43118881475E+02 -0.92976632155E+02  0.10363753645E+03  0.00000000000E+00 0. -1.
         21    1    1    2  504  501 -0.70062026007E+02 -0.13467333237E+02  0.12353700140E+03  0.14265849876E+03  0.00000000000E+00 0. -1.
         21    1    1    2  505  502 -0.70895769613E+02  0.67743094553E+02 -0.25724221778E+03  0.27529783075E+03  0.00000000000E+00 0. -1.
          2    1    1    2  501    0  0.12556796475E+03 -0.11156879841E+02  0.20033388807E+04  0.20073012879E+04  0.00000000000E+00 0. -1.
<scales pt_clust_3="45.78302" pt_clust_4="14000.00000" pt_clust_5="62.04903" pt_clust_6="116.24699"></scales>
<clustering>
<clus scale="   45.783">  2  3  1 -1</clus>
<clus scale="   62.049">  2  5  1 -1</clus>
<clus scale="  116.247">  1  6  2 -1</clus>
<clus scale="   45.783">  2  3  1 -1</clus>
</clustering>
</event>
<event>
 6    0  0.1361744E+002  0.1339777E+03  0.7546771E-02  0.1221670E+00
         21   -1    0    0  504  502  0.00000000000E+00  0.00000000000E+00  0.43418077747E+03  0.43418077747E+03  0.00000000000E+00 0.  1.
          2   -1    0    0  503    0 -0.00000000000E+00 -0.00000000000E+00 -0.82575772066E+03  0.82575772066E+03  0.00000000000E+00 0.  1.
         21    1    1    2  503  505 -0.62743055918E+02  0.43658957476E+01  0.14406872930E+03  0.15719908038E+03  0.00000000000E+00 0.  1.
         21    1    1    2  504  501  0.76770428541E+02  0.15412432113E+02 -0.26071159792E+03  0.27221641951E+03  0.00000000000E+00 0. -1.
         21    1    1    2  505  502 -0.58943882090E+02 -0.34287121905E+02  0.27257892790E+03  0.28097910937E+03  0.00000000000E+00 0.  1.
          2    1    1    2  501    0  0.44916509468E+02  0.14508794044E+02 -0.54751300247E+03  0.54954388888E+03  0.00000000000E+00 0.  1.
<scales pt_clust_3="49.76293" pt_clust_4="123.48339" pt_clust_5="49.76293" pt_clust_6="47.20167"></scales>
<clustering>
<clus scale="   47.202">  2  6  1 -1</clus>
<clus scale="   49.763">  3  5 -1 -1</clus>
<clus scale="  123.483">  2  4  1 -1</clus>
<clus scale="  133.978">  1  3  2 -1</clus>
</clustering>
</event>
<event>
 6    0  0.1361744E+002  0.6528244E+02  0.7546771E-02  0.1376912E+00
         21   -1    0    0  504  502  0.00000000000E+00  0.00000000000E+00  0.31339831913E+03  0.31339831913E+03  0.00000000000E+00 0.  1.
          2   -1    0    0  505    0 -0.00000000000E+00 -0.00000000000E+00 -0.10943605876E+04  0.10943605876E+04  0.00000000000E+00 0.  1.
         21    1    1    2  503  502 -0.81345941867E+00  0.69772386437E+02  0.84857143808E+02  0.10986165155E+03  0.00000000000E+00 0.  1.
         21    1    1    2  504  501 -0.42012163798E+02 -0.22407724197E+02  0.20242386059E+03  0.20794842473E+03  0.00000000000E+00 0.  1.
         21    1    1    2  505  503  0.81620571234E+02 -0.63071816339E+02 -0.24744236151E+03  0.26808150614E+03  0.00000000000E+00 0. -1.
          2    1    1    2  501    0 -0.38794948017E+02  0.15707154100E+02 -0.82080091131E+03  0.82186732426E+03  0.00000000000E+00 0.  1.
<scales pt_clust_3="65.28244" pt_clust_4="47.88700" pt_clust_5="14000.00000" pt_clust_6="41.85406"></scales>
<clustering>
<clus scale="   41.854">  2  6  1 -1</clus>
<clus scale="   47.887">  1  4  2 -1</clus>
<clus scale="   65.282">  1  3  2 -1</clus>
<clus scale="   47.887">  1  3  2 -1</clus>
</clustering>
</event>
<event>
 6    0  0.1361744E+002  0.1197255E+03  0.7546771E-02  0.1243551E+00
         21   -1    0    0  503  502  0.00000000000E+00  0.00000000000E+00  0.81200137271E+02  0.81200137271E+02  0.00000000000E+00 0.  1.
          2   -1    0    0  505    0 -0.00000000000E+00 -0.00000000000E+00 -0.82679936702E+03  0.82679936702E+03  0.00000000000E+00 0. -1.
         21    1    1    2  503  501  0.16239283517E+02 -0.87012147104E+02 -0.10763072209E+03  0.13935279118E+03  0.00000000000E+00 0.  1.
         21    1    1    2  504  502  0.28543721356E+02  0.10559290141E+03 -0.10677732961E+02  0.10990276993E+03  0.00000000000E+00 0.  1.
         21    1    1    2  505  504  0.41404165781E+02  0.21688933041E+02 -0.33810586962E+02  0.57687698439E+02  0.00000000000E+00 0. -1.
          2    1    1    2  501    0 -0.86187170655E+02 -0.40269687347E+02 -0.59348018774E+03  0.60105624475E+03  0.00000000000E+00 0. -1.
<scales pt_clust_3="88.51456" pt_clust_4="46.28769" pt_clust_5="46.28769" pt_clust_6="96.54122"></scales>
<clustering>
<clus scale="   46.288">  4  5 -1 -1</clus>
<clus scale="   88.515">  1  3  2 -1</clus>
<clus scale="   96.541">  2  6  1 -1</clus>
<clus scale="   88.515">  1  3  2 -1</clus>
</clustering>
</event>
<event>
 6    0  0.1361744E+002  0.1523583E+03  0.7546771E-02  0.1197605E+00
         21   -1    0    0  504  502  0.00000000000E+00  0.00000000000E+00  0.11062925669E+03  0.11062925669E+03  0.00000000000E+00 0. -1.
          2   -1    0    0  505    0 -0.00000000000E+00 -0.00000000000E+00 -0.11517443123E+04  0.11517443123E+04  0.00000000000E+00 0. -1.
         21    1    1    2  503  501  0.83258433836E+02 -0.42602618341E+02 -0.52226535768E+03  0.53057332550E+03  0.00000000000E+00 0. -1.
         21    1    1    2  504  503 -0.82334043917E+02  0.68952110666E+02  0.61137779785E+02  0.12357635886E+03  0.00000000000E+00 0. -1.
         21    1    1    2  505  502 -0.52765982460E+02 -0.40763970825E+01 -0.42752718525E+02  0.68034262393E+02  0.00000000000E+00 0. -1.
          2    1    1    2  501    0  0.51841592542E+02 -0.22273095242E+02 -0.53723475919E+03  0.54018962223E+03  0.00000000000E+00 0. -1.
<scales pt_clust_3="30.40077" pt_clust_4="147.24520" pt_clust_5="52.92321" pt_clust_6="30.40077"></scales>
<clustering>
<clus scale="   30.401">  3  6 -1 -1</clus>
<clus scale="   52.923">  1  5  2 -1</clus>
<clus scale="  147.245">  1  4  2 -1</clus>
<clus scale="   52.923">  1  3  2 -1</clus>
</clustering>
</event>
<event>
 6    0  0.1361744E+002  0.1441749E+03  0.7546771E-02  0.1207819E+00
         21   -1    0    0  505  502  0.00000000000E+00  0.00000000000E+00  0.31270098765E+03  0.31270098765E+03  0.00000000000E+00 0. -1.
          2   -1    0    0  503    0 -0.00000000000E+00 -0.00000000000E+00 -0.14665344335E+03  0.14665344335E+03  0.00000000000E+00 0. -1.
         21    1    1    2  503  504  0.54476406803E+02  0.24582557125E+02  0.95262680506E+02  0.11245870046E+03  0.00000000000E+00 0.  1.
         21    1    1    2  504  502  0.76628664859E+02 -0.21944077777E+02  0.15900934028E+03  0.17786923603E+03  0.00000000000E+00 0. -1.
         21    1    1    2  505  501 -0.30483319251E+02 -0.24836865461E+02 -0.12876066247E+02  0.41375061577E+02  0.00000000000E+00 0.  1.
          2    1    1    2  501    0 -0.10062175241E+03  0.22198386113E+02 -0.75348410236E+02  0.12765143293E+03  0.00000000000E+00 0. -1.
<scales pt_clust_3="42.77774" pt_clust_4="140.12869" pt_clust_5="37.01735" pt_clust_6="37.01735"></scales>
<clustering>
<clus scale="   37.017">  5  6 -1 -1</clus>
<clus scale="   42.778">  3  4 -1 -1</clus>
<clus scale="  140.129">  1  3  2 -1</clus>
<clus scale="  140.129">  1  3  2 -1</clus>
</clustering>
</event>
<event>
 6    0  0.1361744E+002  0.8959023E+02  0.7546771E-02  0.1303847E+00
         21   -1    0    0  503  502  0.00000000000E+00  0.00000000000E+00  0.63830352909E+03  0.63830352909E+03  0.00000000000E+00 0.  1.
          2   -1    0    0  505    0 -0.00000000000E+00 -0.00000000000E+00 -0.50121730905E+02  0.50121730905E+02  0.00000000000E+00 0.  1.
         21    1    1    2  503  501 -0.33030009436E+02 -0.28788135124E+02  0.10517539121E+03  0.11393682971E+03  0.00000000000E+00 0.  1.
         21    1    1    2  504  502  0.49871747516E+02 -0.32773040918E+02  0.20219301797E+03  0.21081574876E+03  0.00000000000E+00 0.  1.
         21    1    1    2  505  504  0.85874249525E+02  0.56315886152E+01  0.37829023544E+02  0.94006045253E+02  0.00000000000E+00 0.  1.
          2    1    1    2  501    0 -0.10271598761E+03  0.55929587427E+02  0.24298436546E+03  0.26966663627E+03  0.00000000000E+00 0.  1.
<scales pt_clust_3="43.81482" pt_clust_4="57.48348" pt_clust_5="89.59023" pt_clust_6="14000.00000"></scales>
<clustering>
<clus scale="   43.815">  1  3  2 -1</clus>
<clus scale="   57.483">  1  4  2 -1</clus>
<clus scale="   89.590">  2  5  1 -1</clus>
<clus scale="   43.815">  1  3  2 -1</clus>
</clustering>
</event>
<event>
 6    0  0.1361744E+002  0.1307720E+03  0.7546771E-02  0.1226315E+00
          1   -1    0    0  504    0 -0.00000000000E+00  0.00000000000E+00  0.26533995486E+04  0.26533995486E+04  0.00000000000E+00 0. -1.
         21   -1    0    0  505  502  0.00000000000E+00 -0.00000000000E+00 -0.79703025239E+02  0.79703025239E+02  0.00000000000E+00 0. -1.
         21    1    1    2  503  501  0.38363846278E+02  0.23114464063E+02  0.57465515220E+03  0.57639795897E+03  0.00000000000E+00 0. -1.
         21    1    1    2  504  502 -0.65364942486E+02 -0.38542099405E+02 -0.46475991837E+02  0.88983633046E+02  0.00000000000E+00 0. -1.
         21    1    1    2  505  503 -0.53361150573E+02  0.49586389180E+01  0.59600469850E+02  0.80151210201E+02  0.00000000000E+00 0. -1.
          1    1    1    2  501    0  0.80362246780E+02  0.10468996425E+02  0.19859168931E+04  0.19875697716E+04  0.00000000000E+00 0. -1.
<scales pt_clust_3="34.69134" pt_clust_4="122.16274" pt_clust_5="53.59105" pt_clust_6="34.69134"></scales>
<clustering>
<clus scale="   34.691">  3  6 -1 -1</clus>
<clus scale="   53.591">  2  5  1 -1</clus>
<clus scale="  122.163">  2  4  1 -1</clus>
<clus scale="   53.591">  2  3  1 -1</clus>
</clustering>
</event>
<event>
 6    0  0.1361744E+002  0.1553293E+03  0.7546771E-02  0.1194073E+00
          2   -1    0    0  505    0 -0.00000000000E+00  0.00000000000E+00  0.44203425498E+03  0.44203425498E+03  0.00000000000E+00 0. -1.
         21   -1    0    0  503  502  0.00000000000E+00 -0.00000000000E+00 -0.42118849545E+03  0.42118849545E+03  0.00000000000E+00 0.  1.
         21    1    1    2  503  504 -0.30705921509E+02 -0.64525916694E+01 -0.20197943219E+03  0.20440200728E+03  0.00000000000E+00 0.  1.
         21    1    1    2  504  501 -0.10158699855E+03  0.10004930853E+03 -0.17161250236E+03  0.22311573987E+03  0.00000000000E+00 0.  1.
         21    1    1    2  505  502  0.44926775240E+02 -0.30141016718E+02  0.46305814741E+02  0.71211828379E+02  0.00000000000E+00 0. -1.
          2    1    1    2  501    0  0.87366144815E+02 -0.63455700142E+02  0.34813187933E+03  0.36449317490E+03  0.00000000000E+00 0. -1.
<scales pt_clust_3="31.37658" pt_clust_4="14000.00000" pt_clust_5="52.86511" pt_clust_6="155.32933"></scales>
<clustering>
<clus scale="   31.377">  2  3  1 -1</clus>
<clus scale="   52.865">  1  5  2 -1</clus>
<clus scale="  155.329">  1  6  2 -1</clus>
<clus scale="   31.377">  2  3  1 -1</clus>
</clustering>
</event>
<event>
 6    0  0.1361744E+002  0.1732177E+03  0.7546771E-02  0.1174533E+00
         21   -1    0    0  504  502  0.00000000000E+00  0.00000000000E+00  0.38133886210E+02  0.38133886210E+02  0.00000000000E+00 0. -1.
          2   -1    0    0  505    0 -0.00000000000E+00 -0.00000000000E+00 -0.15199129834E+04  0.15199129834E+04  0.00000000000E+00 0.  1.
         21    1    1    2  503  502  0.51470142844E+02  0.35485766308E+02 -0.45310033434E+02  0.77210195859E+02  0.00000000000E+00 0. -1.
         21    1    1    2  504  501 -0.35765764693E+02 -0.47434714867E+02 -0.55706125510E+03  0.56022003180E+03  0.00000000000E+00 0. -1.
         21    1    1    2  505  503  0.49166034876E+02  0.11836565585E+03 -0.27375827181E+03  0.30227689104E+03  0.00000000000E+00 0. -1.
          2    1    1    2  501    0 -0.64870413027E+02 -0.10641670729E+03 -0.60564953681E+03  0.61833975087E+03  0.00000000000E+00 0.  1.
<scales pt_clust_3="62.51732" pt_clust_4="39.71448" pt_clust_5="163.38759" pt_clust_6="39.71448"></scales>
<clustering>
<clus scale="   39.714">  4  6 -1 -1</clus>
<clus scale="   62.517">  1  3  2 -1</clus>
<clus scale="  163.388">  1  5  2 -1</clus>
<clus scale="   62.517">  1  3  2 -1</clus>
</clustering>
</event>
<event>
 6    0  0.1361744E+002  0.1937408E+03  0.7546771E-02  0.1155130E+00
         21   -1    0    0  501  502  0.00000000000E+00  0.00000000000E+00  0.10501918796E+04  0.10501918796E+04  0.00000000000E+00 0.  1.
          3   -1    0    0  505    0 -0.00000000000E+00 -0.00000000000E+00 -0.10559472956E+03  0.10559472956E+03  0.00000000000E+00 0. -1.
         21    1    1    2  503  502 -0.21765048690E+02 -0.87187996718E+02  0.29301050863E+03  0.30648103087E+03  0.00000000000E+00 0.  1.
         21    1    1    2  504  503 -0.11431816176E+02 -0.95096038342E+02  0.22474432358E+03  0.24430299612E+03  0.00000000000E+00 0.  1.
         21    1    1    2  505  504 -0.12822218199E+03  0.23477610524E+02  0.10138239211E+02  0.13074750493E+03  0.00000000000E+00 0. -1.
          3    1    1    2  501    0  0.16141904686E+03  0.15880642454E+03  0.41670407862E+03  0.47425507725E+03  0.00000000000E+00 0. -1.
<scales pt_clust_3="30.06585" pt_clust_4="30.06585" pt_clust_5="130.35385" pt_clust_6="191.23815"></scales>
<clustering>
<clus scale="   30.066">  3  4 -1 -1</clus>
<clus scale="  130.354">  2  5  1 -1</clus>
<clus scale="  191.238">  2  6  1 -1</clus>
<clus scale="  193.741">  1  3  2 -1</clus>
</clustering>
</event>
<event>
 6    0  0.1361744E+002  0.7897372E+02  0.7546771E-02  0.1331989E+00
         21   -1    0    0  504  502  0.00000000000E+00  0.00000000000E+00  0.11264227857E+03  0.11264227857E+03  0.00000000000E+00 0.  1.
         -3   -1    0    0    0  501 -0.00000000000E+00 -0.00000000000E+00 -0.10843989630E+04  0.10843989630E+04  0.00000000000E+00 0.  1.
         21    1    1    2  503  501 -0.44194418076E+02  0.28215090686E+02 -0.13360762230E+03  0.14352781845E+03  0.00000000000E+00 0. -1.
         21    1    1    2  504  503  0.99545252648E+01 -0.67651534809E+02 -0.16373832020E+03  0.17744311831E+03  0.00000000000E+00 0. -1.
         21    1    1    2  505  502  0.75756145015E+02 -0.23765012687E+02  0.83020040307E+02  0.11487426356E+03  0.00000000000E+00 0.  1.
         -3    1    1    2    0  505 -0.41516252204E+02  0.63201456810E+02 -0.75743078224E+03  0.76119604125E+03  0.00000000000E+00 0.  1.
<scales pt_clust_3="52.43318" pt_clust_4="62.59408" pt_clust_5="78.97372" pt_clust_6="14000.00000"></scales>
<clustering>
<clus scale="   52.433">  2  3  1 -1</clus>
<clus scale="   62.594">  2  4  1 -1</clus>
<clus scale="   78.974">  1  5  2 -1</clus>
<clus scale="   78.974">  1  3  2 -1</clus>
</clustering>
</event>
<event>
 6    0  0.1361744E+002  0.9116256E+02  0.7546771E-02  0.1300061E+00
         21   -1    0    0  503  502  0.00000000000E+00  0.00000000000E+00  0.10676436593E+03  0.10676436593E+03  0.00000000000E+00 0.  1.
          2   -1    0    0  505    0 -0.00000000000E+00 -0.00000000000E+00 -0.21094876161E+04  0.21094876161E+04  0.00000000000E+00 0. -1.
         21    1    1    2  503  501 -0.36647578308E+02 -0.22434231610E+01 -0.12143839130E+02  0.38672351521E+02  0.00000000000E+00 0. -1.
         21    1    1    2  504  502 -0.53103866958E+02 -0.17447599359E+02  0.79948703085E+02  0.97551189302E+02  0.00000000000E+00 0.  1.
         21    1    1    2  505  504 -0.45116515739E+02  0.32232902357E+02 -0.37219420130E+03  0.37630171866E+03  0.00000000000E+00 0. -1.
          2    1    1    2  501    0  0.13486796101E+03 -0.12541879837E+02 -0.16983339129E+04  0.17037267226E+04  0.00000000000E+00 0. -1.
<scales pt_clust_3="36.71618" pt_clust_4="91.16256" pt_clust_5="56.07646" pt_clust_6="14000.00000"></scales>
<clustering>
<clus scale="   36.716">  1  3  2 -1</clus>
<clus scale="   56.076">  2  5  1 -1</clus>
<clus scale="   91.163">  1  4  2 -1</clus>
<clus scale="   36.716">  1  3  2 -1</clus>
</clustering>
</event>
<event>
 6    0  0.1361744E+002  0.1134864E+03  0.7546771E-02  0.1254246E+00
         21   -1    0    0  504  502  0.00000000000E+00  0.00000000000E+00  0.37923816077E+03  0.37923816077E+03  0.00000000000E+00 0. -1.
         -1   -1    0    0    0  501 -0.00000000000E+00 -0.00000000000E+00 -0.93915923981E+03  0.93915923981E+03  0.00000000000E+00 0.  1.
         21    1    1    2  503  502 -0.56730925031E+02  0.21271182231E+02  0.68862628463E+02  0.91721985626E+02  0.00000000000E+00 0. -1.
         21    1    1    2  504  501  0.18705293959E+02 -0.23698540179E+02  0.27770635506E+03  0.27934267213E+03  0.00000000000E+00 0. -1.
         21    1    1    2  505  503 -0.25280321751E+01  0.11074819087E+03 -0.17755353507E+03  0.20927687532E+03  0.00000000000E+00 0. -1.
         -1    1    1    2    0  505  0.40553663247E+02 -0.10832083292E+03 -0.72893652749E+03  0.73805586751E+03  0.00000000000E+00 0.  1.
<scales pt_clust_3="41.88599" pt_clust_4="30.19120" pt_clust_5="113.48642" pt_clust_6="14000.00000"></scales>
<clustering>
<clus scale="   30.191">  1  4  2 -1</clus>
<clus scale="   41.886">  1  3  2 -1</clus>
<clus scale="  113.486">  1  5  2 -1</clus>
<clus scale="   30.191">  1  3  2 -1</clus>
</clustering>
</event>
<event>
 6    0  0.1361744E+002  0.1238817E+03  0.7546771E-02  0.1236827E+00
         21   -1    0    0  505  502  0.00000000000E+00  0.00000000000E+00  0.10327108283E+04  0.10327108283E+04  0.00000000000E+00 0. -1.
          2   -1    0    0  504    0 -0.00000000000E+00 -0.00000000000E+00 -0.15045438096E+04  0.15045438096E+04  0.00000000000E+00 0.  1.
         21    1    1    2  503  502 -0.10140598640E+03  0.53867445138E+02  0.97309104056E+03  0.97984235923E+03  0.00000000000E+00 0. -1.
         21    1    1    2  504  503 -0.26366781769E+02  0.49185614037E+02 -0.26926209129E+03  0.27498455523E+03  0.00000000000E+00 0.  1.
         21    1    1    2  505  501 -0.21983983049E+02 -0.60513198618E+02  0.26939271145E+02  0.69791597256E+02  0.00000000000E+00 0. -1.
          2    1    1    2  501    0  0.14975675122E+03 -0.42539860557E+02 -0.12026012017E+04  0.12126361262E+04  0.00000000000E+00 0.  1.
<scales pt_clust_3="14000.00000" pt_clust_4="55.80709" pt_clust_5="63.73969" pt_clust_6="123.88171"></scales>
<clustering>
<clus scale="   55.807">  2  4  1 -1</clus>
<clus scale="   63.740">  1  5  2 -1</clus>
<clus scale="  123.882">  2  6  1 -1</clus>
<clus scale="   63.740">  1  3  2 -1</clus>
</clustering>
</event>
<event>
 6    0  0.1361744E+002  0.1451478E+03  0.7546771E-02  0.1206565E+00
         -1   -1    0    0    0  501 -0.00000000000E+00  0.00000000000E+00  0.49567800581E+03  0.49567800581E+03  0.00000000000E+00 0. -1.
         21   -1    0    0  503  502  0.00000000000E+00 -0.00000000000E+00 -0.94517937454E+02  0.94517937454E+02  0.00000000000E+00 0. -1.
         21    1    1    2  503  504 -0.39782672775E+02  0.17093320946E+02  0.37164490836E+02  0.57061738961E+02  0.00000000000E+00 0. -1.
         21    1    1    2  504  501 -0.10461376796E+03 -0.58187203770E+02  0.70435911212E+02  0.13889207579E+03  0.00000000000E+00 0. -1.
         21    1    1    2  505  502  0.55853401060E+02 -0.51315917030E+02  0.20503014886E+01  0.75875750321E+02  0.00000000000E+00 0. -1.
         -1    1    1    2    0  505  0.88543039678E+02  0.92409799853E+02  0.29150936481E+03  0.31836637819E+03  0.00000000000E+00 0. -1.
<scales pt_clust_3="39.35088" pt_clust_4="39.35088" pt_clust_5="75.84804" pt_clust_6="129.56413"></scales>
<clustering>
<clus scale="   39.351">  3  4 -1 -1</clus>
<clus scale="   75.848">  2  5  1 -1</clus>
<clus scale="  129.564">  1  6  2 -1</clus>
<clus scale="   75.848">  2  3  1 -1</clus>
</clustering>
</event>
<event>
 6    0  0.1361744E+002  0.1323894E+03  0.7546771E-02  0.1223953E+00
         21   -1    0    0  505  502  0.00000000000E+00  0.00000000000E+00  0.75615387007E+03  0.75615387007E+03  0.00000000000E+00 0. -1.
          2   -1    0    0  504    0 -0.00000000000E+00 -0.00000000000E+00 -0.19746359471E+04  0.19746359471E+04  0.00000000000E+00 0. -1.
         21    1    1    2  503  502  0.23337141524E+02  0.34119183827E+02  0.18097690268E+03  0.18563776605E+03  0.00000000000E+00 0. -1.
         21    1    1    2  504  503 -0.34708686199E+02  0.92314575577E+02 -0.38320437265E+03  0.39569213409E+03  0.00000000000E+00 0.  1.
         21    1    1    2  505  501  0.10025305696E+02  0.29364920385E+02  0.56233985465E+03  0.56319527469E+03  0.00000000000E+00 0. -1.
          2    1    1    2  501    0  0.13462389800E+01 -0.15579867979E+03 -0.15785944618E+04  0.15862646424E+04  0.00000000000E+00 0. -1.
<scales pt_clust_3="70.11931" pt_clust_4="132.38938" pt_clust_5="31.02910" pt_clust_6="14000.00000"></scales>
<clustering>
<clus scale="   31.029">  1  5  2 -1</clus>
<clus scale="   70.119">  1  3  2 -1</clus>
<clus scale="  132.389">  1  4  2 -1</clus>
<clus scale="   31.029">  1  3  2 -1</clus>
</clustering>
</event>
<event>
 6    0  0.1361744E+002  0.2469110E+03  0.7546771E-02  0.1115273E+00
          2   -1    0    0  505    0 -0.00000000000E+00  0.00000000000E+00  0.25594237230E+04  0.25594237230E+04  0.00000000000E+00 0.  1.
         21   -1    0    0  501  502  0.00000000000E+00 -0.00000000000E+00 -0.19671785272E+03  0.19671785272E+03  0.00000000000E+00 0. -1.
         21    1    1    2  503  502 -0.43585988166E+01 -0.34982839237E+02 -0.48860240491E+02  0.60250473240E+02  0.00000000000E+00 0.  1.
         21    1    1    2  504  503 -0.88100004671E+02 -0.18359828520E+03 -0.53633508653E+02  0.21058607362E+03  0.00000000000E+00 0. -1.
         21    1    1    2  505  504  0.36032305688E+02  0.98928695398E+02  0.33852762111E+03  0.35452244510E+03  0.00000000000E+00 0.  1.
          2    1    1    2  501    0  0.56426297800E+02  0.11965242904E+03  0.21266719983E+04  0.21307825838E+04  0.00000000000E+00 0.  1.
<scales pt_clust_3="33.59922" pt_clust_4="33.59922" pt_clust_5="105.28634" pt_clust_6="233.33215"></scales>
<clustering>
<clus scale="   33.599">  3  4 -1 -1</clus>
<clus scale="  105.286">  1  5  2 -1</clus>
<clus scale="  233.332">  1  6  2 -1</clus>
<clus scale="  246.911">  2  3  1 -1</clus>
</clustering>
</event>
<event>
 6    0  0.1361744E+002  0.1468630E+03  0.7546771E-02  0.1204382E+00
         -1   -1    0    0    0  501 -0.00000000000E+00  0.00000000000E+00  0.76285340605E+03  0.76285340605E+03  0.00000000000E+00 0. -1.
         21   -1    0    0  505  502  0.00000000000E+00 -0.00000000000E+00 -0.10798345798E+03  0.10798345798E+03  0.00000000000E+00 0. -1.
         21    1    1    2  503  502  0.38985244828E+02  0.76175831406E+02  0.31457806932E+02  0.91171268619E+02  0.00000000000E+00 0. -1.
         21    1    1    2  504  501 -0.42672569640E+02 -0.37311480623E+02  0.98677222087E+02  0.11379933631E+03  0.00000000000E+00 0.  1.
         21    1    1    2  505  504  0.12265397818E+03 -0.33580743478E+02 -0.63473848526E+00  0.12716944440E+03  0.00000000000E+00 0. -1.
         -1    1    1    2    0  503 -0.11896665336E+03 -0.52836073043E+01  0.52536965753E+03  0.53869681470E+03  0.00000000000E+00 0. -1.
<scales pt_clust_3="80.67910" pt_clust_4="56.68417" pt_clust_5="14000.00000" pt_clust_6="146.86297"></scales>
<clustering>
<clus scale="   56.684">  1  4  2 -1</clus>
<clus scale="   80.679">  2  3  1 -1</clus>
<clus scale="  146.863">  1  6  2 -1</clus>
<clus scale="   80.679">  2  3  1 -1</clus>
</clustering>
</event>
<event>
 6    0  0.1361744E+002  0.2292753E+03  0.7546771E-02  0.1127151E+00
         21   -1    0    0  501  502  0.00000000000E+00  0.00000000000E+00  0.27487455602E+03  0.27487455602E+03  0.00000000000E+00 0.  1.
          2   -1    0    0  504    0 -0.00000000000E+00 -0.00000000000E+00 -0.73946426097E+03  0.73946426097E+03  0.00000000000E+00 0. -1.
         21    1    1    2  503  502 -0.58570793685E+02  0.50834676250E+02  0.69563970717E+02  0.10418180361E+03  0.00000000000E+00 0.  1.
         21    1    1    2  504  505  0.40054744527E+02  0.42016996065E+02 -0.73407550808E+02  0.93586746034E+02  0.00000000000E+00 0.  1.
         21    1    1    2  505  503 -0.18284157917E+03 -0.85004083129E+02  0.96842980624E+02  0.22368571729E+03  0.00000000000E+00 0.  1.
          2    1    1    2  501    0  0.20135762833E+03 -0.78475891857E+01 -0.55758910548E+03  0.59288455006E+03  0.00000000000E+00 0. -1.
<scales pt_clust_3="77.49813" pt_clust_4="58.05007" pt_clust_5="229.27528" pt_clust_6="14000.00000"></scales>
<clustering>
<clus scale="   58.050">  2  4  1 -1</clus>
<clus scale="   77.498">  1  3  2 -1</clus>
<clus scale="  229.275">  1  5  2 -1</clus>
<clus scale="   77.498">  1  3  2 -1</clus>
</clustering>
</event>
<event>
 6    0  0.1389637E+002  0.2561198E+03  0.7546771E-02  0.1109497E+00
          2   -1    0    0  504    0 -0.00000000000E+00  0.00000000000E+00  0.61486409549E+03  0.61486409549E+03  0.00000000000E+00 0.  1.
         21   -1    0    0  501  502  0.00000000000E+00 -0.00000000000E+00 -0.26461824901E+03  0.26461824901E+03  0.00000000000E+00 0.  1.
         21    1    1    2  503  505 -0.65262695081E+02 -0.11658308734E+02 -0.57023366939E+02  0.87445982806E+02  0.00000000000E+00 0. -1.
         21    1    1    2  504  503  0.23208099490E+02  0.28373504029E+02  0.19832705547E+02  0.41677425810E+02  0.00000000000E+00 0. -1.
         21    1    1    2  505  502 -0.11298980026E+03 -0.15560551017E+03 -0.10258895641E+03  0.21795472864E+03  0.00000000000E+00 0.  1.
          2    1    1    2  501    0  0.15504439585E+03  0.13889031488E+03  0.49002546428E+03  0.53240420724E+03  0.00000000000E+00 0.  1.
<scales pt_clust_3="52.86713" pt_clust_4="36.65613" pt_clust_5="52.86713" pt_clust_6="239.90624"></scales>
<clustering>
<clus scale="   36.656">  1  4  2 -1</clus>
<clus scale="   52.867">  3  5 -1 -1</clus>
<clus scale="  239.906">  1  6  2 -1</clus>
<clus scale="  256.120">  2  3  1 -1</clus>
</clustering>
</event>
<event>
 6    0  0.1361744E+002  0.6546320E+02  0.7546771E-02  0.1376238E+00
         21   -1    0    0  503  502  0.00000000000E+00  0.00000000000E+00  0.41736733586E+02  0.41736733586E+02  0.00000000000E+00 0. -1.
          1   -1    0    0  504    0 -0.00000000000E+00 -0.00000000000E+00 -0.30189085842E+04  0.30189085842E+04  0.00000000000E+00 0. -1.
         21    1    1    2  503  501  0.70722667718E+02 -0.12296838889E+02 -0.21016075529E+01  0.71814516152E+02  0.00000000000E+00 0. -1.
         21    1    1    2  504  505 -0.31004066402E+01  0.35006299908E+02 -0.48967693046E+03  0.49093640095E+03  0.00000000000E+00 0.  1.
         21    1    1    2  505  502 -0.19301111387E+02  0.51558887669E+02 -0.13448724720E+03  0.14531920540E+03  0.00000000000E+00 0.  1.
          1    1    1    2  501    0 -0.48321149691E+02 -0.74268348688E+02 -0.23509060654E+04  0.23525751953E+04  0.00000000000E+00 0. -1.
<scales pt_clust_3="14000.00000" pt_clust_4="35.14333" pt_clust_5="56.92958" pt_clust_6="65.46320"></scales>
<clustering>
<clus scale="   35.143">  2  4  1 -1</clus>
<clus scale="   56.930">  1  5  2 -1</clus>
<clus scale="   65.463">  2  6  1 -1</clus>
<clus scale="   56.930">  1  3  2 -1</clus>
</clustering>
</event>
<event>
 6    0  0.1361744E+002  0.1518081E+03  0.7546771E-02  0.1198269E+00
          1   -1    0    0  503    0 -0.00000000000E+00  0.00000000000E+00  0.39281871453E+03  0.39281871453E+03  0.00000000000E+00 0.  1.
         21   -1    0    0  501  502  0.00000000000E+00 -0.00000000000E+00 -0.47255516852E+03  0.47255516852E+03  0.00000000000E+00 0. -1.
         21    1    1    2  503  504 -0.75864853489E+02  0.10566007515E+02  0.65394071882E+02  0.10071494997E+03  0.00000000000E+00 0.  1.
         21    1    1    2  504  505 -0.43452184576E+02  0.14924720859E+02  0.47256851821E+01  0.46186272176E+02  0.00000000000E+00 0.  1.
         21    1    1    2  505  502  0.14343122344E+03  0.45667177197E+02 -0.41575367202E+03  0.44216413550E+03  0.00000000000E+00 0. -1.
          1    1    1    2  501    0 -0.24114185376E+02 -0.71157905571E+02  0.26589746096E+03  0.27630852540E+03  0.00000000000E+00 0.  1.
<scales pt_clust_3="32.64628" pt_clust_4="32.64628" pt_clust_5="145.83844" pt_clust_6="75.13283"></scales>
<clustering>
<clus scale="   32.646">  3  4 -1 -1</clus>
<clus scale="   75.133">  1  6  2 -1</clus>
<clus scale="  145.838">  2  5  1 -1</clus>
<clus scale="  145.838">  2  3  1 -1</clus>
</clustering>
</event>
<event>
 6    0  0.1361744E+002  0.1726661E+03  0.7546771E-02  0.1175096E+00
         21   -1    0    0  504  502  0.00000000000E+00  0.00000000000E+00  0.73057214810E+03  0.73057214810E+03  0.00000000000E+00 0. -1.
          4   -1    0    0  502    0 -0.00000000000E+00 -0.00000000000E+00 -0.31297128382E+03  0.31297128382E+03  0.00000000000E+00 0. -1.
         21    1    1    2  503  505  0.32814911302E+02  0.17750771257E+02  0.75378071669E+01  0.38062144197E+02  0.00000000000E+00 0. -1.
         21    1    1    2  504  503 -0.37904896109E+02 -0.17673797998E+03  0.61277634794E+03  0.63888022924E+03  0.00000000000E+00 0. -1.
         21    1    1    2  505  501  0.26138898082E+02  0.87928905695E+02  0.49143843898E+02  0.10406657409E+03  0.00000000000E+00 0. -1.
          4    1    1    2  501    0 -0.21048913275E+02  0.71058303032E+02 -0.25185713473E+03  0.26253448439E+03  0.00000000000E+00 0. -1.
<scales pt_clust_3="30.87614" pt_clust_4="165.73949" pt_clust_5="30.87614" pt_clust_6="74.11032"></scales>
<clustering>
<clus scale="   30.876">  3  5 -1 -1</clus>
<clus scale="   74.110">  2  6  1 -1</clus>
<clus scale="  165.739">  1  4  2 -1</clus>
<clus scale="  165.739">  1  3  2 -1</clus>
</clustering>
</event>
<event>
 6    0  0.1361744E+002  0.2178231E+03  0.7546771E-02  0.1135516E+00
         21   -1    0    0  504  502  0.00000000000E+00  0.00000000000E+00  0.38977785460E+03  0.38977785460E+03  0.00000000000E+00 0.  1.
          1   -1    0    0  503    0 -0.00000000000E+00 -0.00000000000E+00 -0.27845933469E+04  0.27845933469E+04  0.00000000000E+00 0. -1.
         21    1    1    2  503  502  0.18026426388E+02  0.46019015546E+02 -0.43737202103E+03  0.44015563909E+03  0.00000000000E+00 0. -1.
         21    1    1    2  504  505  0.96111055739E+02  0.30760431812E+02  0.17738919834E+03  0.20408446018E+03  0.00000000000E+00 0.  1.
         21    1    1    2  505  501  0.11606762051E+03  0.15485999168E+01  0.17365140395E+03  0.20887532354E+03  0.00000000000E+00 0.  1.
          1    1    1    2  501    0 -0.23020510264E+03 -0.78328047275E+02 -0.23084840735E+04  0.23212557787E+04  0.00000000000E+00 0. -1.
<scales pt_clust_3="49.42370" pt_clust_4="32.86760" pt_clust_5="32.86760" pt_clust_6="214.95184"></scales>
<clustering>
<clus scale="   32.868">  4  5 -1 -1</clus>
<clus scale="   49.424">  2  3  1 -1</clus>
<clus scale="  214.952">  2  6  1 -1</clus>
<clus scale="  217.823">  1  3  2 -1</clus>
</clustering>
</event>
<event>
 6    0  0.1361744E+002  0.1940838E+03  0.7546771E-02  0.1154829E+00
         21   -1    0    0  503  502  0.00000000000E+00  0.00000000000E+00  0.13814969975E+03  0.13814969975E+03  0.00000000000E+00 0. -1.
          2   -1    0    0  505    0 -0.00000000000E+00 -0.00000000000E+00 -0.16713122154E+04  0.16713122154E+04  0.00000000000E+00 0.  1.
         21    1    1    2  503  501  0.52813095961E+02 -0.41756025494E+02 -0.33780557332E+03  0.34444940722E+03  0.00000000000E+00 0.  1.
         21    1    1    2  504  502 -0.15131022001E+02 -0.49397245674E+02  0.53540270047E+02  0.74401587508E+02  0.00000000000E+00 0. -1.
         21    1    1    2  505  504 -0.92743549144E+02  0.19119527285E+03 -0.97910345115E+02  0.23397314792E+03  0.00000000000E+00 0. -1.
          2    1    1    2  501    0  0.55061475185E+02 -0.10004200168E+03 -0.11509868672E+04  0.11566377725E+04  0.00000000000E+00 0.  1.
<scales pt_clust_3="54.40679" pt_clust_4="51.66271" pt_clust_5="180.69960" pt_clust_6="54.40679"></scales>
<clustering>
<clus scale="   51.663">  1  4  2 -1</clus>
<clus scale="   54.407">  3  6 -1 -1</clus>
<clus scale="  180.700">  1  5  2 -1</clus>
<clus scale="   51.663">  1  3  2 -1</clus>
</clustering>
</event>
<event>
 6    0  0.1361744E+002  0.3094563E+03  0.7546771E-02  0.1080607E+00
         21   -1    0    0  505  502  0.00000000000E+00  0.00000000000E+00  0.54848845912E+02  0.54848845912E+02  0.00000000000E+00 0. -1.
          2   -1    0    0  503    0 -0.00000000000E+00 -0.00000000000E+00 -0.29438294697E+04  0.29438294697E+04  0.00000000000E+00 0.  1.
         21    1    1    2  503  502 -0.28538394940E+03  0.11512307343E+03 -0.10739625311E+04  0.11171807547E+04  0.00000000000E+00 0.  1.
         21    1    1    2  504  501  0.24536416246E+03  0.23369805734E+02 -0.95491045041E+03  0.98620671684E+03  0.00000000000E+00 0. -1.
         21    1    1    2  505  504  0.75566663559E+02  0.24176895845E+02 -0.21956550586E+03  0.23346060545E+03  0.00000000000E+00 0. -1.
          2    1    1    2  501    0 -0.35546876620E+02 -0.16266977501E+03 -0.64054213642E+03  0.66183023855E+03  0.00000000000E+00 0.  1.
<scales pt_clust_3="304.67339" pt_clust_4="30.74935" pt_clust_5="30.74935" pt_clust_6="166.50837"></scales>
<clustering>
<clus scale="   30.749">  4  5 -1 -1</clus>
<clus scale="  166.508">  2  6  1 -1</clus>
<clus scale="  304.673">  1  3  2 -1</clus>
<clus scale="  304.673">  1  3  2 -1</clus>
</clustering>
</event>
<event>
 6    0  0.1361744E+002  0.1323978E+03  0.7546771E-02  0.1223941E+00
          1   -1    0    0  502    0 -0.00000000000E+00  0.00000000000E+00  0.16216069043E+04  0.16216069043E+04  0.00000000000E+00 0.  1.
         21   -1    0    0  504  502  0.00000000000E+00 -0.00000000000E+00 -0.59896166175E+02  0.59896166175E+02  0.00000000000E+00 0.  1.
         21    1    1    2  503  505  0.57138683761E+02  0.59347334006E+01  0.24978773577E+02  0.62641754221E+02  0.00000000000E+00 0.  1.
         21    1    1    2  504  503  0.55916606895E+02  0.54942246310E+02  0.36388629346E+01  0.78476484884E+02  0.00000000000E+00 0.  1.
         21    1    1    2  505  501 -0.63158431771E+02 -0.52447204348E+02  0.56095164998E+03  0.56692720024E+03  0.00000000000E+00 0.  1.
          1    1    1    2  501    0 -0.49896858885E+02 -0.84297753630E+01  0.97214145168E+03  0.97345763118E+03  0.00000000000E+00 0.  1.
<scales pt_clust_3="43.71577" pt_clust_4="43.71577" pt_clust_5="122.15271" pt_clust_6="50.60393"></scales>
<clustering>
<clus scale="   43.716">  3  4 -1 -1</clus>
<clus scale="   50.604">  1  6  2 -1</clus>
<clus scale="  122.153">  1  5  2 -1</clus>
<clus scale="  132.398">  2  3  1 -1</clus>
</clustering>
</event>
<event>
 6    0  0.1361744E+002  0.1899087E+03  0.7546771E-02  0.1158544E+00
         21   -1    0    0  505  502  0.00000000000E+00  0.00000000000E+00  0.65244768945E+03  0.65244768945E+03  0.00000000000E+00 0. -1.
         -3   -1    0    0    0  501 -0.00000000000E+00 -0.00000000000E+00 -0.72387557562E+03  0.72387557562E+03  0.00000000000E+00 0.  1.
         21    1    1    2  503  502  0.12139283093E+03 -0.10943131870E+03  0.45695305623E+03  0.48530148209E+03  0.00000000000E+00 0. -1.
         21    1    1    2  504  503 -0.59649860247E+02 -0.33329461072E+02 -0.16058868150E+03  0.17452129792E+03  0.00000000000E+00 0. -1.
         21    1    1    2  505  501  0.47666833728E+02  0.19345182849E+03  0.10733500707E+03  0.22631071722E+03  0.00000000000E+00 0. -1.
         -3    1    1    2    0  504 -0.10940980441E+03 -0.50691048719E+02 -0.47512726798E+03  0.49018976784E+03  0.00000000000E+00 0.  1.
<scales pt_clust_3="163.43633" pt_clust_4="34.21110" pt_clust_5="184.39057" pt_clust_6="34.21110"></scales>
<clustering>
<clus scale="   34.211">  4  6 -1 -1</clus>
<clus scale="  163.436">  1  3  2 -1</clus>
<clus scale="  184.391">  1  5  2 -1</clus>
<clus scale="  163.436">  1  3  2 -1</clus>
</clustering>
</event>
<event>
 6    0  0.1361744E+002  0.1418842E+03  0.7546771E-02  0.1210816E+00
         21   -1    0    0  504  502  0.00000000000E+00  0.00000000000E+00  0.22274536707E+03  0.22274536707E+03  0.00000000000E+00 0. -1.
         -1   -1    0    0    0  501 -0.00000000000E+00 -0.00000000000E+00 -0.76794975027E+03  0.76794975027E+03  0.00000000000E+00 0. -1.
         21    1    1    2  503  502  0.44437085477E+02  0.22331608180E+01 -0.97661826652E+02  0.10731949477E+03  0.00000000000E+00 0. -1.
         21    1    1    2  504  501 -0.13241918240E+03  0.11944276302E+02  0.17702160395E+03  0.22139140423E+03  0.00000000000E+00 0. -1.
         21    1    1    2  505  503  0.47768472868E+02 -0.15591343647E+02 -0.16937054682E+02  0.53026227644E+02  0.00000000000E+00 0. -1.
         -1    1    1    2    0  505  0.40213624054E+02  0.14139065272E+01 -0.60762710582E+03  0.60895799069E+03  0.00000000000E+00 0. -1.
<scales pt_clust_3="56.99328" pt_clust_4="127.41112" pt_clust_5="56.99328" pt_clust_6="40.23847"></scales>
<clustering>
<clus scale="   40.238">  2  6  1 -1</clus>
<clus scale="   56.993">  3  5 -1 -1</clus>
<clus scale="  127.411">  1  4  2 -1</clus>
<clus scale="  127.411">  1  3  2 -1</clus>
</clustering>
</event>
<event>
 6    0  0.1361744E+002  0.1230131E+03  0.7546771E-02  0.1238208E+00
         21   -1    0    0  504  502  0.00000000000E+00  0.00000000000E+00  0.72967186176E+02  0.72967186176E+02  0.00000000000E+00 0. -1.
          2   -1    0    0  505    0 -0.00000000000E+00 -0.00000000000E+00 -0.30347715866E+04  0.30347715866E+04  0.00000000000E+00 0. -1.
         21    1    1    2  503  501 -0.16157773792E+02 -0.94816749504E+02 -0.40217260122E+02  0.10425314217E+03  0.00000000000E+00 0. -1.
         21    1    1    2  504  503  0.97031168962E+02 -0.31169919674E+01 -0.24937008134E+02  0.10023281780E+03  0.00000000000E+00 0. -1.
         21    1    1    2  505  502 -0.74124993048E+01 -0.29983859040E+02 -0.18234559022E+03  0.18494294045E+03  0.00000000000E+00 0. -1.
          2    1    1    2  501    0 -0.73460895865E+02  0.12791760051E+03 -0.27143045419E+04  0.27183098724E+04  0.00000000000E+00 0. -1.
<scales pt_clust_3="14000.00000" pt_clust_4="96.94199" pt_clust_5="30.88652" pt_clust_6="123.01305"></scales>
<clustering>
<clus scale="   30.887">  2  5  1 -1</clus>
<clus scale="   96.942">  1  4  2 -1</clus>
<clus scale="  123.013">  2  6  1 -1</clus>
<clus scale="   96.942">  1  3  2 -1</clus>
</clustering>
</event>
<event>
 6    0  0.1361744E+002  0.2061246E+03  0.7546771E-02  0.1144672E+00
          2   -1    0    0  503    0 -0.00000000000E+00  0.00000000000E+00  0.37314086498E+03  0.37314086498E+03  0.00000000000E+00 0. -1.
         21   -1    0    0  505  502  0.00000000000E+00 -0.00000000000E+00 -0.19811731706E+03  0.19811731706E+03  0.00000000000E+00 0. -1.
         21    1    1    2  503  504  0.25422898727E+02 -0.17589677121E+03 -0.35534090925E+02  0.18124201919E+03  0.00000000000E+00 0. -1.
         21    1    1    2  504  502 -0.22991487797E+02 -0.21289333046E+02 -0.47323131922E+02  0.56756700289E+02  0.00000000000E+00 0. -1.
         21    1    1    2  505  501  0.25023123870E+02  0.17189110273E+03  0.21517837919E+03  0.27654012873E+03  0.00000000000E+00 0. -1.
          2    1    1    2  501    0 -0.27454534799E+02  0.25295001529E+02  0.42702391579E+02  0.56719333829E+02  0.00000000000E+00 0. -1.
<scales pt_clust_3="191.87561" pt_clust_4="31.33439" pt_clust_5="35.50273" pt_clust_6="35.50273"></scales>
<clustering>
<clus scale="   31.334">  2  4  1 -1</clus>
<clus scale="   35.503">  5  6 -1 -1</clus>
<clus scale="  191.876">  2  3  1 -1</clus>
<clus scale="   31.334">  2  3  1 -1</clus>
</clustering>
</event>
<event>
 6    0  0.1361744E+002  0.8603342E+02  0.7546771E-02  0.1312752E+00
          1   -1    0    0  504    0 -0.00000000000E+00  0.00000000000E+00  0.39362096554E+04  0.39362096554E+04  0.00000000000E+00 0.  1.
         21   -1    0    0  501  502  0.00000000000E+00 -0.00000000000E+00 -0.10681061636E+03  0.10681061636E+03  0.00000000000E+00 0. -1.
         21    1    1    2  503  505 -0.56257303878E+02  0.20135598051E+02  0.13433299326E+04  0.13446581850E+04  0.00000000000E+00 0. -1.
         21    1    1    2  504  503  0.32663166840E+02  0.30772954807E+02  0.15151793893E+03  0.15802386855E+03  0.00000000000E+00 0. -1.
         21    1    1    2  505  502 -0.72985353027E+02 -0.45647425246E+02 -0.83750620301E+02  0.12010293747E+03  0.00000000000E+00 0. -1.
          1    1    1    2  501    0  0.96579490065E+02 -0.52611276121E+01  0.24183017877E+04  0.24202352807E+04  0.00000000000E+00 0.  1.
<scales pt_clust_3="54.39656" pt_clust_4="44.87602" pt_clust_5="86.03342" pt_clust_6="14000.00000"></scales>
<clustering>
<clus scale="   44.876">  1  4  2 -1</clus>
<clus scale="   54.397">  1  3  2 -1</clus>
<clus scale="   86.033">  2  5  1 -1</clus>
<clus scale="   86.033">  2  3  1 -1</clus>
</clustering>
</event>
<event>
 6    0  0.1361744E+002  0.1335264E+03  0.7546771E-02  0.1222315E+00
         21   -1    0    0  504  502  0.00000000000E+00  0.00000000000E+00  0.38651071951E+02  0.38651071951E+02  0.00000000000E+00 0.  1.
          2   -1    0    0  502    0 -0.00000000000E+00 -0.00000000000E+00 -0.24109164329E+04  0.24109164329E+04  0.00000000000E+00 0.  1.
         21    1    1    2  503  501 -0.70830179864E+02  0.13181064315E+02 -0.61322010342E+03  0.61743789167E+03  0.00000000000E+00 0. -1.
         21    1    1    2  504  505  0.86122081499E+02  0.76829093301E+01 -0.76539412707E+02  0.11547433358E+03  0.00000000000E+00 0.  1.
         21    1    1    2  505  503  0.53708289792E+02 -0.25077482693E+02 -0.37377627428E+02  0.70075299234E+02  0.00000000000E+00 0.  1.
          2    1    1    2  501    0 -0.69000191427E+02  0.42135090472E+01 -0.16451282174E+04  0.16465799803E+04  0.00000000000E+00 0.  1.
<scales pt_clust_3="127.40816" pt_clust_4="33.08234" pt_clust_5="33.08234" pt_clust_6="69.12872"></scales>
<clustering>
<clus scale="   33.082">  4  5 -1 -1</clus>
<clus scale="   69.129">  2  6  1 -1</clus>
<clus scale="  127.408">  2  3  1 -1</clus>
<clus scale="  133.526">  1  3  2 -1</clus>
</clustering>
</event>
<event>
 6    0  0.1361744E+002  0.1329904E+03  0.7546771E-02  0.1223085E+00
         21   -1    0    0  504  502  0.00000000000E+00  0.00000000000E+00  0.20650393660E+03  0.20650393660E+03  0.00000000000E+00 0.  1.
          1   -1    0    0  505    0 -0.00000000000E+00 -0.00000000000E+00 -0.92851330216E+03  0.92851330216E+03  0.00000000000E+00 0. -1.
         21    1    1    2  503  502  0.13260276431E+02  0.36061306584E+02  0.26220952705E+02  0.46516568277E+02  0.00000000000E+00 0.  1.
         21    1    1    2  504  501  0.12028944756E+03 -0.10080068218E+02  0.14024609493E+03  0.18504087687E+03  0.00000000000E+00 0.  1.
         21    1    1    2  505  503 -0.34825249661E+02 -0.42335617193E+02 -0.18660301090E+03  0.19448852453E+03  0.00000000000E+00 0. -1.
          1    1    1    2  501    0 -0.98724474331E+02  0.16354378827E+02 -0.70187340229E+03  0.70897126908E+03  0.00000000000E+00 0. -1.
<scales pt_clust_3="38.42203" pt_clust_4="14000.00000" pt_clust_5="53.97900" pt_clust_6="132.99040"></scales>
<clustering>
<clus scale="   38.422">  1  3  2 -1</clus>
<clus scale="   53.979">  2  5  1 -1</clus>
<clus scale="  132.990">  2  6  1 -1</clus>
<clus scale="   38.422">  1  3  2 -1</clus>
</clustering>
</event>
<event>
 6    0  0.1361744E+002  0.1780320E+03  0.7546771E-02  0.1169721E+00
         21   -1    0    0  503  502  0.00000000000E+00  0.00000000000E+00  0.11269021828E+03  0.11269021828E+03  0.00000000000E+00 0.  1.
          2   -1    0    0  504    0 -0.00000000000E+00 -0.00000000000E+00 -0.25120571490E+04  0.25120571490E+04  0.00000000000E+00 0.  1.
         21    1    1    2  503  505 -0.54306287777E+02 -0.14780172582E+02  0.51983685937E+02  0.76615468394E+02  0.00000000000E+00 0.  1.
         21    1    1    2  504  502 -0.31892202245E+02 -0.13878454589E+03 -0.67762866128E+02  0.15770246913E+03  0.00000000000E+00 0.  1.
         21    1    1    2  505  501  0.17472917732E+02  0.64372358995E+02 -0.74654348164E+03  0.74951736033E+03  0.00000000000E+00 0.  1.
          2    1    1    2  501    0  0.68725572290E+02  0.89192359480E+02 -0.16370442689E+04  0.16409120694E+04  0.00000000000E+00 0.  1.
<scales pt_clust_3="56.28167" pt_clust_4="173.33607" pt_clust_5="31.26383" pt_clust_6="31.26383"></scales>
<clustering>
<clus scale="   31.264">  5  6 -1 -1</clus>
<clus scale="   56.282">  1  3  2 -1</clus>
<clus scale="  173.336">  1  4  2 -1</clus>
<clus scale="   56.282">  1  3  2 -1</clus>
</clustering>
</event>
<event>
 6    0  0.1361744E+002  0.1724291E+03  0.7546771E-02  0.1175338E+00
          2   -1    0    0  505    0 -0.00000000000E+00  0.00000000000E+00  0.10386635195E+04  0.10386635195E+04  0.00000000000E+00 0.  1.
         21   -1    0    0  503  502  0.00000000000E+00 -0.00000000000E+00 -0.59494954835E+02  0.59494954835E+02  0.00000000000E+00 0.  1.
         21    1    1    2  503  501 -0.12882699020E+03  0.52861600032E+02  0.17665581678E+03  0.22494003593E+03  0.00000000000E+00 0.  1.
         21    1    1    2  504  502  0.64519422399E+02 -0.21799889095E+02  0.36594952283E+02  0.77312234244E+02  0.00000000000E+00 0. -1.
         21    1    1    2  505  504  0.90591605334E+02 -0.60348566391E+02  0.19254041964E+03  0.22118002083E+03  0.00000000000E+00 0.  1.
          2    1    1    2  501    0 -0.26284037530E+02  0.29286855454E+02  0.57337737594E+03  0.57472618330E+03  0.00000000000E+00 0.  1.
<scales pt_clust_3="154.74170" pt_clust_4="63.42485" pt_clust_5="63.42485" pt_clust_6="39.35188"></scales>
<clustering>
<clus scale="   39.352">  1  6  2 -1</clus>
<clus scale="   63.425">  4  5 -1 -1</clus>
<clus scale="  154.742">  2  3  1 -1</clus>
<clus scale="  154.742">  2  3  1 -1</clus>
</clustering>
</event>
<event>
 6    0  0.1361744E+002  0.1300885E+03  0.7546771E-02  0.1227325E+00
         21   -1    0    0  504  502  0.00000000000E+00  0.00000000000E+00  0.35198026266E+03  0.35198026266E+03  0.00000000000E+00 0. -1.
          1   -1    0    0  503    0 -0.00000000000E+00 -0.00000000000E+00 -0.98480026530E+03  0.98480026530E+03  0.00000000000E+00 0.  1.
         21    1    1    2  503  505 -0.20696159292E+02  0.46391942695E+02  0.56947822066E+02  0.76312500906E+02  0.00000000000E+00 0. -1.
         21    1    1    2  504  501 -0.13578246140E+02 -0.93479860683E+02  0.24448614395E+02  0.97573499822E+02  0.00000000000E+00 0.  1.
         21    1    1    2  505  502 -0.38601568912E+02  0.85624463046E+02  0.21259798164E+03  0.23242102227E+03  0.00000000000E+00 0. -1.
          1    1    1    2  501    0  0.72875974345E+02 -0.38536545058E+02 -0.92681442074E+03  0.93047350496E+03  0.00000000000E+00 0.  1.
<scales pt_clust_3="30.47282" pt_clust_4="123.31308" pt_clust_5="30.47282" pt_clust_6="82.43769"></scales>
<clustering>
<clus scale="   30.473">  3  5 -1 -1</clus>
<clus scale="   82.438">  2  6  1 -1</clus>
<clus scale="  123.313">  2  4  1 -1</clus>
<clus scale="  130.088">  1  3  2 -1</clus>
</clustering>
</event>
<event>
 6    0  0.1361744E+002  0.1204422E+03  0.7546771E-02  0.1242369E+00
         21   -1    0    0  503  502  0.00000000000E+00  0.00000000000E+00  0.38918358474E+02  0.38918358474E+02  0.00000000000E+00 0.  1.
          2   -1    0    0  505    0 -0.00000000000E+00 -0.00000000000E+00 -0.16342825242E+04  0.16342825242E+04  0.00000000000E+00 0.  1.
         21    1    1    2  503  504  0.11600166088E+02 -0.40039020896E+02 -0.84078361627E+02  0.93844861028E+02  0.00000000000E+00 0.  1.
         21    1    1    2  504  501 -0.71367386042E+00 -0.12097881092E+03 -0.67834173726E+03  0.68904564038E+03  0.00000000000E+00 0.  1.
         21    1    1    2  505  502  0.42685251060E+02  0.47258935938E+02 -0.18638657386E+02  0.66353878810E+02  0.00000000000E+00 0.  1.
          2    1    1    2  501    0 -0.53571743287E+02  0.11375889588E+03 -0.81430540949E+03  0.82395650249E+03  0.00000000000E+00 0.  1.
<scales pt_clust_3="41.68557" pt_clust_4="120.44221" pt_clust_5="54.32027" pt_clust_6="14000.00000"></scales>
<clustering>
<clus scale="   41.686">  1  3  2 -1</clus>
<clus scale="   54.320">  1  5  2 -1</clus>
<clus scale="  120.442">  1  4  2 -1</clus>
<clus scale="   41.686">  1  3  2 -1</clus>
</clustering>
</event>
<event>
 6    0  0.1361744E+002  0.1474467E+03  0.7546771E-02  0.1203646E+00
          1   -1    0    0  503    0 -0.00000000000E+00  0.00000000000E+00  0.46244906660E+03  0.46244906660E+03  0.00000000000E+00 0.  1.
         21   -1    0    0  504  502  0.00000000000E+00 -0.00000000000E+00 -0.14447544956E+03  0.14447544956E+03  0.00000000000E+00 0.  1.
         21    1    1    2  503  502  0.61698041969E+02 -0.66123718255E+02  0.19693529691E+03  0.21670834240E+03  0.00000000000E+00 0.  1.
         21    1    1    2  504  505 -0.73383055261E+02  0.79104480050E+01 -0.61777219565E+02  0.96250053736E+02  0.00000000000E+00 0.  1.
         21    1    1    2  505  501 -0.77312722393E+02  0.13136256473E+02 -0.78148976632E+01  0.78809205703E+02  0.00000000000E+00 0.  1.
          1    1    1    2  501    0  0.88997735685E+02  0.45077013777E+02  0.19063043737E+03  0.21515691432E+03  0.00000000000E+00 0.  1.
<scales pt_clust_3="90.43779" pt_clust_4="49.94599" pt_clust_5="49.94599" pt_clust_6="138.16666"></scales>
<clustering>
<clus scale="   49.946">  4  5 -1 -1</clus>
<clus scale="   90.438">  1  3  2 -1</clus>
<clus scale="  138.167">  1  6  2 -1</clus>
<clus scale="  147.447">  2  3  1 -1</clus>
</clustering>
</event>
<event>
 6    0  0.1361744E+002  0.1568734E+03  0.7546771E-02  0.1192273E+00
         21   -1    0    0  504  502  0.00000000000E+00  0.00000000000E+00  0.16826371914E+03  0.16826371914E+03  0.00000000000E+00 0. -1.
          2   -1    0    0  505    0 -0.00000000000E+00 -0.00000000000E+00 -0.35953031604E+04  0.35953031604E+04  0.00000000000E+00 0.  1.
         21    1    1    2  503  501  0.84155840874E+02 -0.49355174630E+02 -0.16538253082E+04  0.16567004222E+04  0.00000000000E+00 0. -1.
         21    1    1    2  504  503 -0.69854744089E+02  0.48240388782E+02  0.14619829005E+03  0.16905845260E+03  0.00000000000E+00 0. -1.
         21    1    1    2  505  502 -0.54332872851E+02  0.31712326109E+02 -0.10297156172E+03  0.12066845164E+03  0.00000000000E+00 0.  1.
          2    1    1    2  501    0  0.40031776066E+02 -0.30597540261E+02 -0.18164408614E+04  0.18171395531E+04  0.00000000000E+00 0.  1.
<scales pt_clust_3="39.37442" pt_clust_4="146.99453" pt_clust_5="62.91051" pt_clust_6="39.37442"></scales>
<clustering>
<clus scale="   39.374">  3  6 -1 -1</clus>
<clus scale="   62.911">  1  5  2 -1</clus>
<clus scale="  146.995">  1  4  2 -1</clus>
<clus scale="   62.911">  1  3  2 -1</clus>
</clustering>
</event>
<event>
 6    0  0.1361744E+002  0.2235989E+03  0.7546771E-02  0.1131228E+00
          2   -1    0    0  504    0 -0.00000000000E+00  0.00000000000E+00  0.70260923325E+03  0.70260923325E+03  0.00000000000E+00 0. -1.
         21   -1    0    0  503  502  0.00000000000E+00 -0.00000000000E+00 -0.96547545820E+03  0.96547545820E+03  0.00000000000E+00 0. -1.
         21    1    1    2  503  501  0.16769773831E+03  0.28106062103E+02 -0.84559055314E+03  0.86251716836E+03  0.00000000000E+00 0. -1.
         21    1    1    2  504  505 -0.17934313438E+02  0.30212531242E+02  0.43568237928E+01  0.35403651734E+02  0.00000000000E+00 0. -1.
         21    1    1    2  505  502  0.56563406249E+02  0.11204842946E+01 -0.68354078018E+02  0.88729670309E+02  0.00000000000E+00 0.  1.
          2    1    1    2  501    0 -0.20632683112E+03 -0.59439077639E+02  0.64672158241E+03  0.68143420104E+03  0.00000000000E+00 0. -1.
<scales pt_clust_3="14000.00000" pt_clust_4="35.13455" pt_clust_5="56.31771" pt_clust_6="223.59889"></scales>
<clustering>
<clus scale="   35.135">  1  4  2 -1</clus>
<clus scale="   56.318">  2  5  1 -1</clus>
<clus scale="  223.599">  1  6  2 -1</clus>
<clus scale="   56.318">  2  3  1 -1</clus>
</clustering>
</event>
<event>
 6    0  0.1361744E+002  0.2257586E+03  0.7546771E-02  0.1129661E+00
         21   -1    0    0  505  502  0.00000000000E+00  0.00000000000E+00  0.49506979763E+03  0.49506979763E+03  0.00000000000E+00 0.  1.
          2   -1    0    0  502    0 -0.00000000000E+00 -0.00000000000E+00 -0.80677644731E+03  0.80677644731E+03  0.00000000000E+00 0. -1.
         21    1    1    2  503  501  0.16090916061E+02  0.54418483520E+02 -0.14167171402E+03  0.15261442751E+03  0.00000000000E+00 0.  1.
         21    1    1    2  504  503 -0.55717737436E+02 -0.12773988490E+03  0.32302105107E+03  0.35180185317E+03  0.00000000000E+00 0.  1.
         21    1    1    2  505  504 -0.60304111972E+02 -0.57248591998E+02  0.12929560888E+03  0.15372488960E+03  0.00000000000E+00 0. -1.
          2    1    1    2  501    0  0.99930933348E+02  0.13056999338E+03 -0.62235159560E+03  0.64370507467E+03  0.00000000000E+00 0. -1.
<scales pt_clust_3="30.59033" pt_clust_4="44.27256" pt_clust_5="44.27256" pt_clust_6="224.48415"></scales>
<clustering>
<clus scale="   30.590">  3  6 -1 -1</clus>
<clus scale="   44.273">  4  5 -1 -1</clus>
<clus scale="  224.484">  2  3  1 -1</clus>
<clus scale="  225.759">  1  3  2 -1</clus>
</clustering>
</event>
<event>
 6    0  0.1361744E+002  0.1691084E+03  0.7546771E-02  0.1178781E+00
         21   -1    0    0  505  502  0.00000000000E+00  0.00000000000E+00  0.63365089285E+02  0.63365089285E+02  0.00000000000E+00 0.  1.
          2   -1    0    0  503    0 -0.00000000000E+00 -0.00000000000E+00 -0.37089629741E+04  0.37089629741E+04  0.00000000000E+00 0.  1.
         21    1    1    2  503  502 -0.22662386315E+02  0.28305621055E+02 -0.10281881972E+04  0.10288273718E+04  0.00000000000E+00 0. -1.
         21    1    1    2  504  501  0.13883607523E+02  0.42396845157E+02 -0.40926910151E+02  0.60541382637E+02  0.00000000000E+00 0. -1.
         21    1    1    2  505  504  0.43552616209E+02  0.10790415913E+03 -0.17683096922E+02  0.11769804523E+03  0.00000000000E+00 0.  1.
          2    1    1    2  501    0 -0.34773837416E+02 -0.17860662534E+03 -0.25587996806E+04  0.25652612638E+04  0.00000000000E+00 0.  1.
<scales pt_clust_3="36.26006" pt_clust_4="30.61590" pt_clust_5="30.61590" pt_clust_6="161.71823"></scales>
<clustering>
<clus scale="   30.616">  4  5 -1 -1</clus>
<clus scale="   36.260">  2  3  1 -1</clus>
<clus scale="  161.718">  2  6  1 -1</clus>
<clus scale="  169.108">  1  3  2 -1</clus>
</clustering>
</event>
<event>
 6    0  0.1361744E+002  0.2118897E+03  0.7546771E-02  0.1140078E+00
         21   -1    0    0  503  502  0.00000000000E+00  0.00000000000E+00  0.24622277140E+03  0.24622277140E+03  0.00000000000E+00 0. -1.
          1   -1    0    0  504    0 -0.00000000000E+00 -0.00000000000E+00 -0.24220336200E+04  0.24220336200E+04  0.00000000000E+00 0.  1.
         21    1    1    2  503  501  0.13946645024E+03 -0.26777720767E+02  0.15173875178E+03  0.20782826051E+03  0.00000000000E+00 0. -1.
         21    1    1    2  504  505  0.13078296304E+03 -0.43024410493E+02 -0.24766818317E+03  0.28336339261E+03  0.00000000000E+00 0. -1.
         21    1    1    2  505  502  0.54813000190E+02 -0.68159915001E+02 -0.23477989228E+02  0.90561884813E+02  0.00000000000E+00 0. -1.
          1    1    1    2  501    0 -0.32506241347E+03  0.13796204626E+03 -0.20564034280E+04  0.20865028535E+04  0.00000000000E+00 0.  1.
<scales pt_clust_3="14000.00000" pt_clust_4="143.89051" pt_clust_5="87.46564" pt_clust_6="211.88973"></scales>
<clustering>
<clus scale="   87.466">  1  5  2 -1</clus>
<clus scale="  143.891">  2  4  1 -1</clus>
<clus scale="  211.890">  2  6  1 -1</clus>
<clus scale="   87.466">  1  3  2 -1</clus>
</clustering>
</event>
<event>
 6    0  0.1361744E+002  0.1098801E+03  0.7546771E-02  0.1260792E+00
         21   -1    0    0  503  502  0.00000000000E+00  0.00000000000E+00  0.27740458458E+03  0.27740458458E+03  0.00000000000E+00 0. -1.
         -3   -1    0    0    0  501 -0.00000000000E+00 -0.00000000000E+00 -0.34048438213E+03  0.34048438213E+03  0.00000000000E+00 0. -1.
         21    1    1    2  503  505 -0.56318303819E+01 -0.41728852983E+02  0.60820888526E+02  0.73974287193E+02  0.00000000000E+00 0. -1.
         21    1    1    2  504  501  0.11005917126E+03  0.61099169129E+01 -0.29759352601E+03  0.31735194813E+03  0.00000000000E+00 0. -1.
         21    1    1    2  505  504 -0.10434727239E+03 -0.44371928947E+01  0.13675156717E+03  0.17207275514E+03  0.00000000000E+00 0. -1.
         -3    1    1    2    0  502 -0.80068483271E-01  0.40056128964E+02  0.36941272763E+02  0.54489976252E+02  0.00000000000E+00 0. -1.
<scales pt_clust_3="30.60368" pt_clust_4="14000.00000" pt_clust_5="109.88015" pt_clust_6="40.05621"></scales>
<clustering>
<clus scale="   40.056">  1  6  2 -1</clus>
<clus scale="   30.604">  1  3  2 -1</clus>
<clus scale="  109.880">  1  5  2 -1</clus>
<clus scale="   40.056">  1  3  2 -1</clus>
</clustering>
</event>
<event>
 6    0  0.1361744E+002  0.6565154E+02  0.7546771E-02  0.1375537E+00
         -1   -1    0    0    0  501 -0.00000000000E+00  0.00000000000E+00  0.25146080912E+03  0.25146080912E+03  0.00000000000E+00 0. -1.
         21   -1    0    0  503  502  0.00000000000E+00 -0.00000000000E+00 -0.14938128241E+03  0.14938128241E+03  0.00000000000E+00 0. -1.
         21    1    1    2  503  505  0.40408379506E+02  0.40640459972E+02 -0.67097829352E+02  0.88241729498E+02  0.00000000000E+00 0. -1.
         21    1    1    2  504  502 -0.59061022188E+02  0.76178774414E+01  0.12373465209E+02  0.60822192002E+02  0.00000000000E+00 0. -1.
         21    1    1    2  505  501  0.80573162208E+02 -0.29351731787E+02  0.40248171732E+01  0.85847293378E+02  0.00000000000E+00 0. -1.
         -1    1    1    2    0  504 -0.61920519526E+02 -0.18906605627E+02  0.15277907367E+03  0.16593087665E+03  0.00000000000E+00 0. -1.
<scales pt_clust_3="57.31042" pt_clust_4="50.17789" pt_clust_5="65.65154" pt_clust_6="14000.00000"></scales>
<clustering>
<clus scale="   57.310">  2  3  1 -1</clus>
<clus scale="   50.178">  2  4  1 -1</clus>
<clus scale="   65.652">  2  5  1 -1</clus>
<clus scale="   57.310">  2  3  1 -1</clus>
</clustering>
</event>
<event>
 6    0  0.1361744E+002  0.1535796E+03  0.7546771E-02  0.1196142E+00
         21   -1    0    0  505  502  0.00000000000E+00  0.00000000000E+00  0.10139990344E+04  0.10139990344E+04  0.00000000000E+00 0. -1.
         -2   -1    0    0    0  501 -0.00000000000E+00 -0.00000000000E+00 -0.39841274476E+03  0.39841274476E+03  0.00000000000E+00 0. -1.
         21    1    1    2  503  504  0.12138900526E+03  0.71236617180E+02  0.55771873372E+03  0.57520442641E+03  0.00000000000E+00 0. -1.
         21    1    1    2  504  502  0.33789492419E+02 -0.18730763312E+02  0.42178180810E+03  0.42354747660E+03  0.00000000000E+00 0. -1.
         21    1    1    2  505  501 -0.71292817110E+02 -0.26851951223E+02 -0.28718186235E+03  0.29711464979E+03  0.00000000000E+00 0. -1.
         -2    1    1    2    0  503 -0.83885680565E+02 -0.25653902644E+02 -0.76732389862E+02  0.11654522632E+03  0.00000000000E+00 0. -1.
<scales pt_clust_3="14000.00000" pt_clust_4="38.63381" pt_clust_5="75.97225" pt_clust_6="153.57959"></scales>
<clustering>
<clus scale="   38.634">  1  4  2 -1</clus>
<clus scale="   75.972">  2  5  1 -1</clus>
<clus scale="  153.580">  2  6  1 -1</clus>
<clus scale="   38.634">  1  3  2 -1</clus>
</clustering>
</event>
<event>
 6    0  0.1361744E+002  0.8980454E+02  0.7546771E-02  0.1303326E+00
         21   -1    0    0  501  502  0.00000000000E+00  0.00000000000E+00  0.44046720735E+02  0.44046720735E+02  0.00000000000E+00 0.  1.
          2   -1    0    0  505    0 -0.00000000000E+00 -0.00000000000E+00 -0.29032906706E+04  0.29032906706E+04  0.00000000000E+00 0.  1.
         21    1    1    2  503  504 -0.70735666234E+02  0.28622319166E+01 -0.41405512692E+02  0.82013068046E+02  0.00000000000E+00 0.  1.
         21    1    1    2  504  502 -0.82541912699E+01 -0.47895180623E+02 -0.73934565455E+01  0.49160382425E+02  0.00000000000E+00 0.  1.
         21    1    1    2  505  503 -0.22905052265E+02 -0.40118488549E+02 -0.64648423273E+03  0.64813270070E+03  0.00000000000E+00 0. -1.
          2    1    1    2  501    0  0.10189490977E+03  0.85151437256E+02 -0.21639607479E+04  0.21680312402E+04  0.00000000000E+00 0.  1.
<scales pt_clust_3="14000.00000" pt_clust_4="49.14594" pt_clust_5="46.19669" pt_clust_6="89.80454"></scales>
<clustering>
<clus scale="   46.197">  2  5  1 -1</clus>
<clus scale="   49.146">  1  4  2 -1</clus>
<clus scale="   89.805">  2  6  1 -1</clus>
<clus scale="   49.146">  1  3  2 -1</clus>
</clustering>
</event>
<event>
 6    0  0.1361744E+002  0.1013841E+03  0.7546771E-02  0.1277412E+00
          1   -1    0    0  505    0 -0.00000000000E+00  0.00000000000E+00  0.15029462150E+03  0.15029462150E+03  0.00000000000E+00 0.  1.
         21   -1    0    0  503  502  0.00000000000E+00 -0.00000000000E+00 -0.45287641000E+03  0.45287641000E+03  0.00000000000E+00 0.  1.
         21    1    1    2  503  501 -0.33155852878E+02 -0.20254943953E+02 -0.61770041512E+02  0.72973360640E+02  0.00000000000E+00 0.  1.
         21    1    1    2  504  502 -0.74983684459E+02  0.39636912150E+02 -0.32339091197E+03  0.33432816167E+03  0.00000000000E+00 0.  1.
         21    1    1    2  505  504  0.18390188701E+02 -0.71498193180E+02  0.34734905722E+02  0.81588628766E+02  0.00000000000E+00 0.  1.
          1    1    1    2  501    0  0.89749348636E+02  0.52116224983E+02  0.47844259264E+02  0.11428088043E+03  0.00000000000E+00 0.  1.
<scales pt_clust_3="38.85323" pt_clust_4="101.38406" pt_clust_5="74.54978" pt_clust_6="14000.00000"></scales>
<clustering>
<clus scale="   38.853">  2  3  1 -1</clus>
<clus scale="   74.550">  1  5  2 -1</clus>
<clus scale="  101.384">  2  4  1 -1</clus>
<clus scale="   38.853">  2  3  1 -1</clus>
</clustering>
</event>
<event>
 6    0  0.1361744E+002  0.1254079E+03  0.7546771E-02  0.1234433E+00
         21   -1    0    0  505  502  0.00000000000E+00  0.00000000000E+00  0.14167879681E+03  0.14167879681E+03  0.00000000000E+00 0. -1.
          2   -1    0    0  504    0 -0.00000000000E+00 -0.00000000000E+00 -0.19885224570E+04  0.19885224570E+04  0.00000000000E+00 0. -1.
         21    1    1    2  503  501 -0.40093889394E+02  0.34781002124E+02 -0.12391329515E+03  0.13480260676E+03  0.00000000000E+00 0. -1.
         21    1    1    2  504  502  0.20299739801E+02  0.56288694916E+02  0.17485356702E+02  0.62339668834E+02  0.00000000000E+00 0. -1.
         21    1    1    2  505  503  0.21071135811E+02  0.38270274717E+02  0.88964098088E+02  0.99112145774E+02  0.00000000000E+00 0. -1.
          2    1    1    2  501    0 -0.12769862175E+01 -0.12933997176E+03 -0.18293798198E+04  0.18339468324E+04  0.00000000000E+00 0. -1.
<scales pt_clust_3="54.34437" pt_clust_4="125.40789" pt_clust_5="43.68760" pt_clust_6="14000.00000"></scales>
<clustering>
<clus scale="   43.688">  1  5  2 -1</clus>
<clus scale="   54.344">  1  3  2 -1</clus>
<clus scale="  125.408">  1  4  2 -1</clus>
<clus scale="   43.688">  1  3  2 -1</clus>
</clustering>
</event>
<event>
 6    0  0.1361744E+002  0.1090878E+03  0.7546771E-02  0.1262269E+00
          2   -1    0    0  505    0 -0.00000000000E+00  0.00000000000E+00  0.12470767199E+04  0.12470767199E+04  0.00000000000E+00 0. -1.
         21   -1    0    0  503  502  0.00000000000E+00 -0.00000000000E+00 -0.86693140590E+02  0.86693140590E+02  0.00000000000E+00 0. -1.
         21    1    1    2  503  501  0.21004117709E+02  0.61793312420E+02  0.77476891461E+03  0.77751299504E+03  0.00000000000E+00 0. -1.
         21    1    1    2  504  502 -0.23556382103E+02  0.39761584883E+02 -0.10446420810E+02  0.47381583743E+02  0.00000000000E+00 0. -1.
         21    1    1    2  505  504 -0.37885640008E+02 -0.11401590427E+03  0.10064543151E+02  0.12056634346E+03  0.00000000000E+00 0. -1.
          2    1    1    2  501    0  0.40437904402E+02  0.12461006968E+02  0.38599654240E+03  0.38830893829E+03  0.00000000000E+00 0. -1.
<scales pt_clust_3="40.06212" pt_clust_4="46.21566" pt_clust_5="97.08056" pt_clust_6="40.06212"></scales>
<clustering>
<clus scale="   40.062">  3  6 -1 -1</clus>
<clus scale="   46.216">  2  4  1 -1</clus>
<clus scale="   97.081">  2  5  1 -1</clus>
<clus scale="   46.216">  2  3  1 -1</clus>
</clustering>
</event>
<event>
 6    0  0.1361744E+002  0.1127941E+03  0.7546771E-02  0.1255481E+00
          2   -1    0    0  503    0 -0.00000000000E+00  0.00000000000E+00  0.98237167423E+03  0.98237167423E+03  0.00000000000E+00 0.  1.
         21   -1    0    0  504  502  0.00000000000E+00 -0.00000000000E+00 -0.47722585566E+02  0.47722585566E+02  0.00000000000E+00 0. -1.
         21    1    1    2  503  502  0.23752460316E+01 -0.64328220713E+02  0.15024040713E+03  0.16345011994E+03  0.00000000000E+00 0.  1.
         21    1    1    2  504  505 -0.65797637588E+02 -0.67704627360E+02  0.34460058932E+02  0.10050244445E+03  0.00000000000E+00 0. -1.
         21    1    1    2  505  501 -0.80828220477E+01  0.35263374932E+02  0.15813081993E+03  0.16221650297E+03  0.00000000000E+00 0.  1.
          2    1    1    2  501    0  0.71505213604E+02  0.96769473141E+02  0.59181780268E+03  0.60392519245E+03  0.00000000000E+00 0.  1.
<scales pt_clust_3="64.37206" pt_clust_4="98.11942" pt_clust_5="30.50604" pt_clust_6="30.50604"></scales>
<clustering>
<clus scale="   30.506">  5  6 -1 -1</clus>
<clus scale="   64.372">  1  3  2 -1</clus>
<clus scale="   98.119">  2  4  1 -1</clus>
<clus scale="   98.119">  2  3  1 -1</clus>
</clustering>
</event>
<event>
 6    0  0.1361744E+002  0.1297789E+03  0.7546771E-02  0.1227784E+00
         21   -1    0    0  503  502  0.00000000000E+00  0.00000000000E+00  0.45692835818E+02  0.45692835818E+02  0.00000000000E+00 0. -1.
          1   -1    0    0  505    0 -0.00000000000E+00 -0.00000000000E+00 -0.21060590322E+04  0.21060590322E+04  0.00000000000E+00 0.  1.
         21    1    1    2  503  501  0.11040351217E+03 -0.34560256490E+02 -0.48195183218E+02  0.12532406997E+03  0.00000000000E+00 0. -1.
         21    1    1    2  504  502 -0.58238871541E+02 -0.31972124011E+02 -0.25925123033E+03  0.26762881627E+03  0.00000000000E+00 0.  1.
         21    1    1    2  505  504 -0.60599261159E+02  0.19549771056E+02 -0.39991397647E+03  0.40495142002E+03  0.00000000000E+00 0.  1.
          1    1    1    2  501    0  0.84346205306E+01  0.46982609445E+02 -0.13530058063E+04  0.13538475617E+04  0.00000000000E+00 0.  1.
<scales pt_clust_3="115.12586" pt_clust_4="53.60941" pt_clust_5="53.60941" pt_clust_6="47.73372"></scales>
<clustering>
<clus scale="   47.734">  2  6  1 -1</clus>
<clus scale="   53.609">  4  5 -1 -1</clus>
<clus scale="  115.126">  1  3  2 -1</clus>
<clus scale="  115.126">  1  3  2 -1</clus>
</clustering>
</event>
<event>
 6    0  0.1361744E+002  0.2605959E+03  0.7546771E-02  0.1106786E+00
          2   -1    0    0  502    0 -0.00000000000E+00  0.00000000000E+00  0.14505855915E+04  0.14505855915E+04  0.00000000000E+00 0.  1.
         21   -1    0    0  505  502  0.00000000000E+00 -0.00000000000E+00 -0.70316797950E+02  0.70316797950E+02  0.00000000000E+00 0. -1.
         21    1    1    2  503  501  0.14977160411E+02  0.66856827187E+02  0.19414460891E+03  0.20587928464E+03  0.00000000000E+00 0.  1.
         21    1    1    2  504  503 -0.78559651935E+02 -0.77614177525E+02  0.77385408139E+02  0.13484836246E+03  0.00000000000E+00 0. -1.
         21    1    1    2  505  504 -0.43029065172E+02 -0.13919830835E+03  0.17143741222E+03  0.22498545688E+03  0.00000000000E+00 0. -1.
          2    1    1    2  501    0  0.10661155670E+03  0.14995565869E+03  0.93730136432E+03  0.95518928551E+03  0.00000000000E+00 0.  1.
<scales pt_clust_3="47.73344" pt_clust_4="66.16721" pt_clust_5="259.93765" pt_clust_6="47.73344"></scales>
<clustering>
<clus scale="   47.733">  3  6 -1 -1</clus>
<clus scale="   66.167">  4  5 -1 -1</clus>
<clus scale="  259.938">  2  4  1 -1</clus>
<clus scale="  259.938">  2  3  1 -1</clus>
</clustering>
</event>
<event>
 6    0  0.1361744E+002  0.2605754E+03  0.7546771E-02  0.1106798E+00
         21   -1    0    0  505  502  0.00000000000E+00  0.00000000000E+00  0.14642994889E+03  0.14642994889E+03  0.00000000000E+00 0.  1.
          2   -1    0    0  503    0 -0.00000000000E+00 -0.00000000000E+00 -0.15074708289E+04  0.15074708289E+04  0.00000000000E+00 0. -1.
         21    1    1    2  503  504 -0.55864738344E+02 -0.16206527776E+02 -0.27763890778E+02  0.64454279640E+02  0.00000000000E+00 0.  1.
         21    1    1    2  504  502 -0.19066687608E+03 -0.23640542199E+02  0.36107579923E+02  0.19549038390E+03  0.00000000000E+00 0.  1.
         21    1    1    2  505  501  0.83426024201E+02  0.17995200574E+02 -0.29701707496E+03  0.30903538887E+03  0.00000000000E+00 0. -1.
          2    1    1    2  501    0  0.16310559022E+03  0.21851869401E+02 -0.10723674942E+04  0.10849207254E+04  0.00000000000E+00 0. -1.
<scales pt_clust_3="39.43302" pt_clust_4="259.81072" pt_clust_5="53.57216" pt_clust_6="53.57216"></scales>
<clustering>
<clus scale="   39.433">  3  4 -1 -1</clus>
<clus scale="   53.572">  5  6 -1 -1</clus>
<clus scale="  259.811">  1  3  2 -1</clus>
<clus scale="  259.811">  1  3  2 -1</clus>
</clustering>
</event>
<event>
 6    0  0.1361744E+002  0.1431928E+03  0.7546771E-02  0.1209096E+00
         21   -1    0    0  503  502  0.00000000000E+00  0.00000000000E+00  0.25925445081E+03  0.25925445081E+03  0.00000000000E+00 0.  1.
          2   -1    0    0  504    0 -0.00000000000E+00 -0.00000000000E+00 -0.19970057131E+04  0.19970057131E+04  0.00000000000E+00 0. -1.
         21    1    1    2  503  505  0.72692145805E+01  0.40083921219E+02  0.18051117085E+03  0.18505092549E+03  0.00000000000E+00 0.  1.
         21    1    1    2  504  502 -0.45204632706E+02  0.23801513383E+02 -0.18706192740E+03  0.19391270082E+03  0.00000000000E+00 0. -1.
         21    1    1    2  505  501  0.13479517104E+03 -0.70605886340E+02 -0.90767267175E+01  0.15243790962E+03  0.00000000000E+00 0.  1.
          2    1    1    2  501    0 -0.96859752919E+02  0.67204517376E+01 -0.17221237790E+04  0.17248586279E+04  0.00000000000E+00 0. -1.
<scales pt_clust_3="40.73772" pt_clust_4="51.66557" pt_clust_5="143.19279" pt_clust_6="14000.00000"></scales>
<clustering>
<clus scale="   40.738">  1  3  2 -1</clus>
<clus scale="   51.666">  2  4  1 -1</clus>
<clus scale="  143.193">  1  5  2 -1</clus>
<clus scale="   40.738">  1  3  2 -1</clus>
</clustering>
</event>
<event>
 6    0  0.1361744E+002  0.1520927E+03  0.7546771E-02  0.1197925E+00
         21   -1    0    0  501  502  0.00000000000E+00  0.00000000000E+00  0.54560277376E+02  0.54560277376E+02  0.00000000000E+00 0.  1.
          1   -1    0    0  503    0 -0.00000000000E+00 -0.00000000000E+00 -0.77653783074E+03  0.77653783074E+03  0.00000000000E+00 0.  1.
         21    1    1    2  503  504  0.32044049676E+02 -0.36080449850E+01 -0.12677182382E+03  0.13080877044E+03  0.00000000000E+00 0. -1.
         21    1    1    2  504  505 -0.39748357377E+02 -0.77591046820E+02 -0.38009657131E+02  0.95105396777E+02  0.00000000000E+00 0.  1.
         21    1    1    2  505  502 -0.43582494782E+02 -0.48293154125E+02 -0.58782450982E+02  0.87675761361E+02  0.00000000000E+00 0.  1.
          1    1    1    2  501    0  0.51286802484E+02  0.12949224593E+03 -0.49841362143E+03  0.51750817954E+03  0.00000000000E+00 0.  1.
<scales pt_clust_3="32.24654" pt_clust_4="30.53281" pt_clust_5="30.53281" pt_clust_6="147.92842"></scales>
<clustering>
<clus scale="   30.533">  4  5 -1 -1</clus>
<clus scale="   32.247">  2  3  1 -1</clus>
<clus scale="  147.928">  2  6  1 -1</clus>
<clus scale="  152.093">  1  3  2 -1</clus>
</clustering>
</event>
<event>
 6    0  0.1361744E+002  0.1501915E+03  0.7546771E-02  0.1200238E+00
         21   -1    0    0  504  502  0.00000000000E+00  0.00000000000E+00  0.11270027096E+04  0.11270027096E+04  0.00000000000E+00 0. -1.
          1   -1    0    0  505    0 -0.00000000000E+00 -0.00000000000E+00 -0.60322589070E+03  0.60322589070E+03  0.00000000000E+00 0. -1.
         21    1    1    2  503  501  0.11581677678E+02 -0.76599217373E+02 -0.26734902468E+03  0.27834704302E+03  0.00000000000E+00 0. -1.
         21    1    1    2  504  503  0.78770724322E+02  0.10063802075E+03  0.75439888036E+03  0.76514737726E+03  0.00000000000E+00 0. -1.
         21    1    1    2  505  502 -0.55062861123E+02  0.38713058074E+02  0.35453789695E+03  0.36087080779E+03  0.00000000000E+00 0. -1.
          1    1    1    2  501    0 -0.35289540878E+02 -0.62751861447E+02 -0.31781093369E+03  0.32586337227E+03  0.00000000000E+00 0. -1.
<scales pt_clust_3="49.88013" pt_clust_4="140.99722" pt_clust_5="67.30988" pt_clust_6="49.88013"></scales>
<clustering>
<clus scale="   49.880">  3  6 -1 -1</clus>
<clus scale="   67.310">  1  5  2 -1</clus>
<clus scale="  140.997">  1  4  2 -1</clus>
<clus scale="   67.310">  1  3  2 -1</clus>
</clustering>
</event>
<event>
 6    0  0.1361744E+002  0.1671972E+03  0.7546771E-02  0.1180803E+00
         21   -1    0    0  503  502  0.00000000000E+00  0.00000000000E+00  0.46417139704E+03  0.46417139704E+03  0.00000000000E+00 0. -1.
          2   -1    0    0  504    0 -0.00000000000E+00 -0.00000000000E+00 -0.92205516036E+03  0.92205516036E+03  0.00000000000E+00 0.  1.
         21    1    1    2  503  501  0.55608682940E+02  0.10991298396E+03  0.40517900916E+03  0.42348933767E+03  0.00000000000E+00 0. -1.
         21    1    1    2  504  505 -0.18368572451E+02 -0.43491345182E+02 -0.47237113304E+03  0.47472454001E+03  0.00000000000E+00 0.  1.
         21    1    1    2  505  502  0.26690647514E+02  0.40952849250E+02  0.24317389705E+02  0.54597270706E+02  0.00000000000E+00 0.  1.
          2    1    1    2  501    0 -0.63930758003E+02 -0.10737448803E+03 -0.41500902914E+03  0.43341540901E+03  0.00000000000E+00 0.  1.
<scales pt_clust_3="167.19717" pt_clust_4="47.21124" pt_clust_5="47.31512" pt_clust_6="14000.00000"></scales>
<clustering>
<clus scale="   47.211">  2  4  1 -1</clus>
<clus scale="   47.315">  1  5  2 -1</clus>
<clus scale="  167.197">  1  3  2 -1</clus>
<clus scale="   47.315">  1  3  2 -1</clus>
</clustering>
</event>
<event>
 6    0  0.1361744E+002  0.1734629E+03  0.7546771E-02  0.1174284E+00
          1   -1    0    0  504    0 -0.00000000000E+00  0.00000000000E+00  0.20429246748E+04  0.20429246748E+04  0.00000000000E+00 0.  1.
         21   -1    0    0  501  502  0.00000000000E+00 -0.00000000000E+00 -0.28662532419E+03  0.28662532419E+03  0.00000000000E+00 0. -1.
         21    1    1    2  503  502  0.11454443615E+03 -0.50071304701E+02 -0.23328055420E+03  0.26466465645E+03  0.00000000000E+00 0. -1.
         21    1    1    2  504  505 -0.27039302362E+02  0.18022676782E+02  0.13299073464E+03  0.13690316377E+03  0.00000000000E+00 0. -1.
         21    1    1    2  505  503  0.37203329651E+02 -0.97783281827E+01 -0.22320681188E+02  0.44473770336E+02  0.00000000000E+00 0. -1.
          1    1    1    2  501    0 -0.12470846344E+03  0.41826956102E+02  0.18789098513E+04  0.18835084084E+04  0.00000000000E+00 0.  1.
<scales pt_clust_3="33.35692" pt_clust_4="32.49524" pt_clust_5="33.35692" pt_clust_6="162.67812"></scales>
<clustering>
<clus scale="   32.495">  1  4  2 -1</clus>
<clus scale="   33.357">  3  5 -1 -1</clus>
<clus scale="  162.678">  1  6  2 -1</clus>
<clus scale="  173.463">  2  3  1 -1</clus>
</clustering>
</event>
<event>
 6    0  0.1361744E+002  0.2125771E+03  0.7546771E-02  0.1139541E+00
         21   -1    0    0  503  502  0.00000000000E+00  0.00000000000E+00  0.65409996942E+02  0.65409996942E+02  0.00000000000E+00 0. -1.
          1   -1    0    0  502    0 -0.00000000000E+00 -0.00000000000E+00 -0.10064636753E+04  0.10064636753E+04  0.00000000000E+00 0. -1.
         21    1    1    2  503  504 -0.13574009170E+03  0.82383014178E+02 -0.87262386167E+02  0.18118238755E+03  0.00000000000E+00 0. -1.
         21    1    1    2  504  505 -0.24000804728E+02  0.34912031913E+02 -0.75407290328E+02  0.86493630022E+02  0.00000000000E+00 0. -1.
         21    1    1    2  505  501  0.75553797536E+02 -0.79387647321E+02 -0.40468862561E+03  0.41926561816E+03  0.00000000000E+00 0.  1.
          1    1    1    2  501    0  0.84187098891E+02 -0.37907398770E+02 -0.37369537626E+03  0.38493203652E+03  0.00000000000E+00 0. -1.
<scales pt_clust_3="39.72258" pt_clust_4="39.72258" pt_clust_5="36.44854" pt_clust_6="202.11930"></scales>
<clustering>
<clus scale="   36.449">  5  6 -1 -1</clus>
<clus scale="   39.723">  3  4 -1 -1</clus>
<clus scale="  202.119">  2  5  1 -1</clus>
<clus scale="  212.577">  1  3  2 -1</clus>
</clustering>
</event>
<event>
 6    0  0.1361744E+002  0.1172590E+03  0.7546771E-02  0.1247689E+00
          3   -1    0    0  502    0 -0.00000000000E+00  0.00000000000E+00  0.27796748702E+04  0.27796748702E+04  0.00000000000E+00 0. -1.
         21   -1    0    0  504  502  0.00000000000E+00 -0.00000000000E+00 -0.11081620105E+02  0.11081620105E+02  0.00000000000E+00 0. -1.
         21    1    1    2  503  501  0.23621796895E+02 -0.53172671410E+02  0.71191965715E+03  0.71429330146E+03  0.00000000000E+00 0. -1.
         21    1    1    2  504  505 -0.62672514967E+02 -0.42951689348E+01  0.33865023715E+03  0.34442746077E+03  0.00000000000E+00 0. -1.
         21    1    1    2  505  503 -0.35282804988E+01  0.99865858190E+02  0.38818868020E+03  0.40084422140E+03  0.00000000000E+00 0. -1.
          3    1    1    2  501    0  0.42578998571E+02 -0.42398017845E+02  0.13298346756E+04  0.13311915067E+04  0.00000000000E+00 0. -1.
<scales pt_clust_3="40.94117" pt_clust_4="62.81952" pt_clust_5="109.62946" pt_clust_6="40.94117"></scales>
<clustering>
<clus scale="   40.941">  3  6 -1 -1</clus>
<clus scale="   62.820">  2  4  1 -1</clus>
<clus scale="  109.629">  2  5  1 -1</clus>
<clus scale="   62.820">  2  3  1 -1</clus>
</clustering>
</event>
<event>
 6    0  0.1361744E+002  0.2108636E+03  0.7546771E-02  0.1140884E+00
          2   -1    0    0  505    0 -0.00000000000E+00  0.00000000000E+00  0.12342481536E+04  0.12342481536E+04  0.00000000000E+00 0. -1.
         21   -1    0    0  504  502  0.00000000000E+00 -0.00000000000E+00 -0.72319746989E+03  0.72319746989E+03  0.00000000000E+00 0.  1.
         21    1    1    2  503  502 -0.26611431248E+03 -0.65504643069E+02 -0.54622081639E+03  0.61111771847E+03  0.00000000000E+00 0.  1.
         21    1    1    2  504  501  0.56394250181E+02  0.84807603597E+02 -0.10890125345E+03  0.14910440666E+03  0.00000000000E+00 0.  1.
         21    1    1    2  505  503  0.29739540937E+02  0.30637959229E+02  0.50987107604E+02  0.66504210263E+02  0.00000000000E+00 0. -1.
          2    1    1    2  501    0  0.17998052136E+03 -0.49940919757E+02  0.11151856459E+04  0.11307192880E+04  0.00000000000E+00 0. -1.
<scales pt_clust_3="14000.00000" pt_clust_4="102.56412" pt_clust_5="42.69807" pt_clust_6="210.86357"></scales>
<clustering>
<clus scale="   42.698">  1  5  2 -1</clus>
<clus scale="  102.564">  2  4  1 -1</clus>
<clus scale="  210.864">  1  6  2 -1</clus>
<clus scale="  102.564">  2  3  1 -1</clus>
</clustering>
</event>
<event>
 6    0  0.1361744E+002  0.7740849E+02  0.7546771E-02  0.1336571E+00
         -2   -1    0    0    0  501 -0.00000000000E+00  0.00000000000E+00  0.33000604622E+03  0.33000604622E+03  0.00000000000E+00 0. -1.
         21   -1    0    0  505  502  0.00000000000E+00 -0.00000000000E+00 -0.25964772462E+03  0.25964772462E+03  0.00000000000E+00 0. -1.
         21    1    1    2  503  501  0.26909553622E+02 -0.54821061813E+02  0.77792853566E+02  0.98899954299E+02  0.00000000000E+00 0.  1.
         21    1    1    2  504  502 -0.34256371363E+02 -0.15551038994E+01 -0.15610448334E+02  0.37677624982E+02  0.00000000000E+00 0.  1.
         21    1    1    2  505  503  0.56506658276E+02  0.81815543318E+02 -0.20766952204E+03  0.23024642439E+03  0.00000000000E+00 0. -1.
         -2    1    1    2    0  504 -0.49159840536E+02 -0.25439377606E+02  0.21584543841E+03  0.22282976717E+03  0.00000000000E+00 0. -1.
<scales pt_clust_3="77.40849" pt_clust_4="34.29165" pt_clust_5="14000.00000" pt_clust_6="55.81918"></scales>
<clustering>
<clus scale="   34.292">  2  4  1 -1</clus>
<clus scale="   55.819">  1  6  2 -1</clus>
<clus scale="   77.408">  1  3  2 -1</clus>
<clus scale="   34.292">  2  3  1 -1</clus>
</clustering>
</event>
<event>
 6    0  0.1361744E+002  0.2154377E+03  0.7546771E-02  0.1137331E+00
          1   -1    0    0  502    0 -0.00000000000E+00  0.00000000000E+00  0.65505995494E+03  0.65505995494E+03  0.00000000000E+00 0.  1.
         21   -1    0    0  504  502  0.00000000000E+00 -0.00000000000E+00 -0.16306562546E+03  0.16306562546E+03  0.00000000000E+00 0. -1.
         21    1    1    2  503  505  0.35536063057E+02 -0.72320750222E+02 -0.46184328201E+02  0.92876772455E+02  0.00000000000E+00 0. -1.
         21    1    1    2  504  503  0.71185232094E+02 -0.10086440564E+03 -0.21703563174E+02  0.12534755780E+03  0.00000000000E+00 0. -1.
         21    1    1    2  505  501 -0.64217713090E+02  0.64752289116E+02  0.32759829828E+03  0.34005502298E+03  0.00000000000E+00 0.  1.
          1    1    1    2  501    0 -0.42503582061E+02  0.10843286675E+03  0.23228392258E+03  0.25984622716E+03  0.00000000000E+00 0.  1.
<scales pt_clust_3="32.62333" pt_clust_4="207.39598" pt_clust_5="62.76415" pt_clust_6="62.76415"></scales>
<clustering>
<clus scale="   32.623">  3  4 -1 -1</clus>
<clus scale="   62.764">  5  6 -1 -1</clus>
<clus scale="  207.396">  2  3  1 -1</clus>
<clus scale="  207.396">  2  3  1 -1</clus>
</clustering>
</event>
<event>
 6    0  0.1361744E+002  0.1001939E+03  0.7546771E-02  0.1279889E+00
          2   -1    0    0  505    0 -0.00000000000E+00  0.00000000000E+00  0.11181975526E+04  0.11181975526E+04  0.00000000000E+00 0. -1.
         21   -1    0    0  503  502  0.00000000000E+00 -0.00000000000E+00 -0.88897217394E+02  0.88897217394E+02  0.00000000000E+00 0. -1.
         21    1    1    2  503  501 -0.76163611253E+02 -0.46505192964E+02 -0.21035336389E+02  0.91684862593E+02  0.00000000000E+00 0. -1.
         21    1    1    2  504  502 -0.25228508228E+02  0.29963187155E+02 -0.15546973489E+02  0.42142361070E+02  0.00000000000E+00 0. -1.
         21    1    1    2  505  504  0.11122383080E+02  0.31547709058E+02  0.33935802743E+03  0.34100269226E+03  0.00000000000E+00 0. -1.
          2    1    1    2  501    0  0.90269736401E+02 -0.15005703250E+02  0.72652461764E+03  0.73226485405E+03  0.00000000000E+00 0. -1.
<scales pt_clust_3="100.19389" pt_clust_4="39.46287" pt_clust_5="33.45094" pt_clust_6="14000.00000"></scales>
<clustering>
<clus scale="   33.451">  1  5  2 -1</clus>
<clus scale="   39.463">  2  4  1 -1</clus>
<clus scale="  100.194">  2  3  1 -1</clus>
<clus scale="   39.463">  2  3  1 -1</clus>
</clustering>
</event>
<event>
 6    0  0.1361744E+002  0.2918626E+03  0.7546771E-02  0.1089381E+00
          2   -1    0    0  503    0 -0.00000000000E+00  0.00000000000E+00  0.12709802765E+04  0.12709802765E+04  0.00000000000E+00 0. -1.
         21   -1    0    0  501  502  0.00000000000E+00 -0.00000000000E+00 -0.57325659848E+03  0.57325659848E+03  0.00000000000E+00 0.  1.
         21    1    1    2  503  505  0.39715082829E+02  0.83774206793E+01  0.62416431438E+02  0.74453206075E+02  0.00000000000E+00 0. -1.
         21    1    1    2  504  502 -0.18387253325E+03 -0.70748840265E+02 -0.45195241097E+03  0.49302686404E+03  0.00000000000E+00 0.  1.
         21    1    1    2  505  504 -0.76823302310E+02  0.12118141209E+02 -0.65654863586E+02  0.10178030378E+03  0.00000000000E+00 0. -1.
          2    1    1    2  501    0  0.22098075273E+03  0.50253278376E+02  0.11529145212E+04  0.11749765011E+04  0.00000000000E+00 0. -1.
<scales pt_clust_3="40.58903" pt_clust_4="75.45480" pt_clust_5="75.45480" pt_clust_6="265.90482"></scales>
<clustering>
<clus scale="   40.589">  1  3  2 -1</clus>
<clus scale="   75.455">  4  5 -1 -1</clus>
<clus scale="  265.905">  1  6  2 -1</clus>
<clus scale="  291.863">  2  3  1 -1</clus>
</clustering>
</event>
<event>
 6    0  0.1361744E+002  0.9995418E+02  0.7546771E-02  0.1280392E+00
          2   -1    0    0  503    0 -0.00000000000E+00  0.00000000000E+00  0.20843792701E+04  0.20843792701E+04  0.00000000000E+00 0.  1.
         21   -1    0    0  505  502  0.00000000000E+00 -0.00000000000E+00 -0.15384505546E+03  0.15384505546E+03  0.00000000000E+00 0. -1.
         21    1    1    2  503  504  0.32016858934E+02  0.28999266162E+02 -0.28465439898E+02  0.51733141820E+02  0.00000000000E+00 0. -1.
         21    1    1    2  504  502 -0.36024362904E+02  0.22423351887E+02 -0.10156046773E+03  0.11006856971E+03  0.00000000000E+00 0. -1.
         21    1    1    2  505  501  0.14316705467E+02  0.58084832960E+02  0.13426141833E+03  0.14698620455E+03  0.00000000000E+00 0. -1.
          2    1    1    2  501    0 -0.10309201497E+02 -0.10950745101E+03  0.19262987040E+04  0.19294364095E+04  0.00000000000E+00 0.  1.
<scales pt_clust_3="47.75933" pt_clust_4="42.43302" pt_clust_5="14000.00000" pt_clust_6="99.95418"></scales>
<clustering>
<clus scale="   42.433">  2  4  1 -1</clus>
<clus scale="   47.759">  2  3  1 -1</clus>
<clus scale="   99.954">  1  6  2 -1</clus>
<clus scale="   42.433">  2  3  1 -1</clus>
</clustering>
</event>
<event>
 6    0  0.1361744E+002  0.1086473E+03  0.7546771E-02  0.1263096E+00
         21   -1    0    0  505  502  0.00000000000E+00  0.00000000000E+00  0.56555956932E+02  0.56555956932E+02  0.00000000000E+00 0. -1.
          2   -1    0    0  503    0 -0.00000000000E+00 -0.00000000000E+00 -0.35425096129E+03  0.35425096129E+03  0.00000000000E+00 0. -1.
         21    1    1    2  503  502  0.50569617246E+02 -0.20169185766E+01 -0.11523651510E+03  0.12586027396E+03  0.00000000000E+00 0. -1.
         21    1    1    2  504  501 -0.12757081224E+02 -0.48702464972E+02 -0.52172874135E+02  0.72502979327E+02  0.00000000000E+00 0. -1.
         21    1    1    2  505  504 -0.33433801030E+02 -0.45646787008E+02 -0.87125035291E+01  0.57248195895E+02  0.00000000000E+00 0. -1.
          2    1    1    2  501    0 -0.43787349926E+01  0.96366170557E+02 -0.12157311159E+03  0.15519546904E+03  0.00000000000E+00 0. -1.
<scales pt_clust_3="50.60982" pt_clust_4="43.15432" pt_clust_5="43.15432" pt_clust_6="98.54583"></scales>
<clustering>
<clus scale="   43.154">  4  5 -1 -1</clus>
<clus scale="   50.610">  2  3  1 -1</clus>
<clus scale="   98.546">  2  6  1 -1</clus>
<clus scale="  108.647">  1  3  2 -1</clus>
</clustering>
</event>
<event>
 6    0  0.1361744E+002  0.7644686E+02  0.7546771E-02  0.1339448E+00
         21   -1    0    0  501  502  0.00000000000E+00  0.00000000000E+00  0.76886102742E+02  0.76886102742E+02  0.00000000000E+00 0. -1.
          1   -1    0    0  505    0 -0.00000000000E+00 -0.00000000000E+00 -0.34145410093E+03  0.34145410093E+03  0.00000000000E+00 0. -1.
         21    1    1    2  503  502  0.92738374255E+01 -0.36660899964E+02  0.26632065725E+02  0.46252487193E+02  0.00000000000E+00 0. -1.
         21    1    1    2  504  503  0.35838778749E+02 -0.22073872853E+02 -0.12624473283E+02  0.43943728229E+02  0.00000000000E+00 0. -1.
         21    1    1    2  505  504  0.53646688373E+02  0.50694667726E+02 -0.13164282098E+03  0.15092298972E+03  0.00000000000E+00 0. -1.
          1    1    1    2  501    0 -0.98759304548E+02  0.80401050914E+01 -0.14693276965E+03  0.17722099854E+03  0.00000000000E+00 0. -1.
<scales pt_clust_3="37.81568" pt_clust_4="53.57344" pt_clust_5="14000.00000" pt_clust_6="76.44686"></scales>
<clustering>
<clus scale="   37.816">  1  3  2 -1</clus>
<clus scale="   53.573">  1  4  2 -1</clus>
<clus scale="   76.447">  1  6  2 -1</clus>
<clus scale="   37.816">  1  3  2 -1</clus>
</clustering>
</event>
<event>
 6    0  0.1361744E+002  0.2727766E+03  0.7546771E-02  0.1099701E+00
         21   -1    0    0  504  502  0.00000000000E+00  0.00000000000E+00  0.25754721998E+03  0.25754721998E+03  0.00000000000E+00 0. -1.
          2   -1    0    0  505    0 -0.00000000000E+00 -0.00000000000E+00 -0.21114180745E+04  0.21114180745E+04  0.00000000000E+00 0. -1.
         21    1    1    2  503  501  0.68166376188E+02 -0.31826748151E+02  0.65864653648E+00  0.75233174569E+02  0.00000000000E+00 0. -1.
         21    1    1    2  504  503  0.18146131106E+03 -0.22472256134E+01  0.16694181092E+03  0.24658228985E+03  0.00000000000E+00 0. -1.
         21    1    1    2  505  502 -0.47376799568E+02  0.51203869432E+02 -0.15873450994E+03  0.17338697191E+03  0.00000000000E+00 0. -1.
          2    1    1    2  501    0 -0.20225088768E+03 -0.17129895667E+02 -0.18627368021E+04  0.18737628582E+04  0.00000000000E+00 0. -1.
<scales pt_clust_3="70.13913" pt_clust_4="70.13913" pt_clust_5="69.75957" pt_clust_6="249.81358"></scales>
<clustering>
<clus scale="   69.760">  2  5  1 -1</clus>
<clus scale="   70.139">  3  4 -1 -1</clus>
<clus scale="  249.814">  2  6  1 -1</clus>
<clus scale="  272.777">  1  3  2 -1</clus>
</clustering>
</event>
<event>
 6    0  0.1361744E+002  0.8735369E+02  0.7546771E-02  0.1309390E+00
         21   -1    0    0  503  502  0.00000000000E+00  0.00000000000E+00  0.23220962461E+03  0.23220962461E+03  0.00000000000E+00 0.  1.
          2   -1    0    0  504    0 -0.00000000000E+00 -0.00000000000E+00 -0.12975430524E+04  0.12975430524E+04  0.00000000000E+00 0.  1.
         21    1    1    2  503  505  0.35483733679E+02 -0.11923974888E+03 -0.84171455636E+02  0.15020668098E+03  0.00000000000E+00 0. -1.
         21    1    1    2  504  502  0.47465569154E+02  0.66710662829E+02  0.18507312609E+03  0.20237429380E+03  0.00000000000E+00 0.  1.
         21    1    1    2  505  501 -0.60838856316E+02  0.28186148114E+02 -0.21157795803E+03  0.22194832215E+03  0.00000000000E+00 0.  1.
          2    1    1    2  501    0 -0.22110446517E+02  0.24342937936E+02 -0.95465714025E+03  0.95522338011E+03  0.00000000000E+00 0.  1.
<scales pt_clust_3="87.35369" pt_clust_4="82.05481" pt_clust_5="14000.00000" pt_clust_6="32.88541"></scales>
<clustering>
<clus scale="   32.885">  2  6  1 -1</clus>
<clus scale="   82.055">  1  4  2 -1</clus>
<clus scale="   87.354">  1  3  2 -1</clus>
<clus scale="   82.055">  1  3  2 -1</clus>
</clustering>
</event>
<event>
 6    0  0.1361744E+002  0.8788593E+02  0.7546771E-02  0.1308053E+00
         21   -1    0    0  503  502  0.00000000000E+00  0.00000000000E+00  0.13156812803E+03  0.13156812803E+03  0.00000000000E+00 0.  1.
          3   -1    0    0  505    0 -0.00000000000E+00 -0.00000000000E+00 -0.96911902011E+03  0.96911902011E+03  0.00000000000E+00 0.  1.
         21    1    1    2  503  504  0.62955627199E+01 -0.30280450199E+02  0.19276749647E+02  0.36443557060E+02  0.00000000000E+00 0. -1.
         21    1    1    2  504  501 -0.89469802579E+02  0.59272457666E+02  0.64082626449E+02  0.12499861129E+03  0.00000000000E+00 0.  1.
         21    1    1    2  505  502  0.60655664835E+02  0.46620236875E+02 -0.20170480549E+03  0.21572525285E+03  0.00000000000E+00 0.  1.
          3    1    1    2  501    0  0.22518575025E+02 -0.75612244341E+02 -0.71920546269E+03  0.72351972694E+03  0.00000000000E+00 0.  1.
<scales pt_clust_3="30.92798" pt_clust_4="87.88593" pt_clust_5="75.61550" pt_clust_6="14000.00000"></scales>
<clustering>
<clus scale="   30.928">  1  3  2 -1</clus>
<clus scale="   75.615">  2  5  1 -1</clus>
<clus scale="   87.886">  1  4  2 -1</clus>
<clus scale="   30.928">  1  3  2 -1</clus>
</clustering>
</event>
<event>
 6    0  0.1361744E+002  0.8946478E+02  0.7546771E-02  0.1304153E+00
          1   -1    0    0  503    0 -0.00000000000E+00  0.00000000000E+00  0.20925902617E+04  0.20925902617E+04  0.00000000000E+00 0.  1.
         21   -1    0    0  505  502  0.00000000000E+00 -0.00000000000E+00 -0.30594426638E+03  0.30594426638E+03  0.00000000000E+00 0. -1.
         21    1    1    2  503  504  0.40369808288E+00 -0.40503701198E+02  0.10566524549E+03  0.11316296606E+03  0.00000000000E+00 0. -1.
         21    1    1    2  504  502  0.79113126869E+02 -0.56755335371E+02 -0.20391840842E+03  0.22597073312E+03  0.00000000000E+00 0. -1.
         21    1    1    2  505  501 -0.93110708130E+02 -0.25747466772E+02 -0.57924214737E+02  0.11263991596E+03  0.00000000000E+00 0.  1.
          1    1    1    2  501    0  0.13593883178E+02  0.12300650334E+03  0.19428233730E+04  0.19467609130E+04  0.00000000000E+00 0.  1.
<scales pt_clust_3="40.50571" pt_clust_4="14000.00000" pt_clust_5="89.46478" pt_clust_6="84.45351"></scales>
<clustering>
<clus scale="   40.506">  1  3  2 -1</clus>
<clus scale="   84.454">  1  6  2 -1</clus>
<clus scale="   89.465">  1  5  2 -1</clus>
<clus scale="   89.465">  2  3  1 -1</clus>
</clustering>
</event>
<event>
 6    0  0.1400532E+002  0.1006447E+03  0.7546771E-02  0.1278946E+00
          1   -1    0    0  503    0 -0.00000000000E+00  0.00000000000E+00  0.15493958235E+04  0.15493958235E+04  0.00000000000E+00 0. -1.
         21   -1    0    0  504  502  0.00000000000E+00 -0.00000000000E+00 -0.14819701661E+04  0.14819701661E+04  0.00000000000E+00 0.  1.
         21    1    1    2  503  505 -0.12482074491E+02 -0.52499012309E+02  0.32938283165E+03  0.33377387295E+03  0.00000000000E+00 0. -1.
         21    1    1    2  504  501  0.27266424209E+02 -0.36196266027E+02 -0.61815035928E+02  0.76646762685E+02  0.00000000000E+00 0.  1.
         21    1    1    2  505  502 -0.41370104988E+02  0.13616711345E+03 -0.14063393525E+04  0.14135216103E+04  0.00000000000E+00 0.  1.
          1    1    1    2  501    0  0.26585755269E+02 -0.47471835118E+02  0.12061972141E+04  0.12074237437E+04  0.00000000000E+00 0. -1.
<scales pt_clust_3="54.00743" pt_clust_4="45.31697" pt_clust_5="100.64467" pt_clust_6="14000.00000"></scales>
<clustering>
<clus scale="   45.317">  2  4  1 -1</clus>
<clus scale="   54.007">  1  3  2 -1</clus>
<clus scale="  100.645">  2  5  1 -1</clus>
<clus scale="   45.317">  2  3  1 -1</clus>
</clustering>
</event>
<event>
 6    0  0.1361744E+002  0.1077256E+03  0.7546771E-02  0.1264841E+00
         21   -1    0    0  504  502  0.00000000000E+00  0.00000000000E+00  0.12077955353E+03  0.12077955353E+03  0.00000000000E+00 0. -1.
         -1   -1    0    0    0  501 -0.00000000000E+00 -0.00000000000E+00 -0.91589819662E+03  0.91589819662E+03  0.00000000000E+00 0.  1.
         21    1    1    2  503  502  0.44548622932E+02  0.33588268680E+02  0.68153684881E+00  0.55796201399E+02  0.00000000000E+00 0. -1.
         21    1    1    2  504  505  0.65154061103E+02 -0.47057388368E+02  0.64140270145E+02  0.10282715465E+03  0.00000000000E+00 0. -1.
         21    1    1    2  505  501  0.40046121285E+01 -0.41918411675E+02 -0.11530089066E+03  0.12274968652E+03  0.00000000000E+00 0.  1.
         -1    1    1    2    0  503 -0.11370729616E+03  0.55387531362E+02 -0.74463955943E+03  0.75530470758E+03  0.00000000000E+00 0.  1.
<scales pt_clust_3="55.04390" pt_clust_4="14000.00000" pt_clust_5="42.10926" pt_clust_6="107.72557"></scales>
<clustering>
<clus scale="   42.109">  2  5  1 -1</clus>
<clus scale="   55.044">  1  3  2 -1</clus>
<clus scale="  107.726">  2  6  1 -1</clus>
<clus scale="   55.044">  1  3  2 -1</clus>
</clustering>
</event>
<event>
 6    0  0.1361744E+002  0.6439406E+02  0.7546771E-02  0.1380265E+00
          2   -1    0    0  503    0 -0.00000000000E+00  0.00000000000E+00  0.11279320725E+04  0.11279320725E+04  0.00000000000E+00 0.  1.
         21   -1    0    0  504  502  0.00000000000E+00 -0.00000000000E+00 -0.11108430118E+03  0.11108430118E+03  0.00000000000E+00 0. -1.
         21    1    1    2  503  505  0.30402557502E+02 -0.53280805345E+02  0.70942246249E+03  0.71206979293E+03  0.00000000000E+00 0.  1.
         21    1    1    2  504  501  0.47489296125E+02  0.13656013587E+02 -0.14725222050E+02  0.51561149307E+02  0.00000000000E+00 0. -1.
         21    1    1    2  505  502 -0.67519719432E+02 -0.37248269846E+02 -0.52176299603E+02  0.93105920107E+02  0.00000000000E+00 0. -1.
          2    1    1    2  501    0 -0.10372134195E+02  0.76873061605E+02  0.37432683049E+03  0.38227951134E+03  0.00000000000E+00 0.  1.
<scales pt_clust_3="64.39406" pt_clust_4="49.41376" pt_clust_5="33.79773" pt_clust_6="14000.00000"></scales>
<clustering>
<clus scale="   49.414">  2  4  1 -1</clus>
<clus scale="   33.798">  2  5  1 -1</clus>
<clus scale="   64.394">  1  3  2 -1</clus>
<clus scale="   49.414">  2  3  1 -1</clus>
</clustering>
</event>
<event>
 6    0  0.1361744E+002  0.1368029E+03  0.7546771E-02  0.1217697E+00
         21   -1    0    0  503  502  0.00000000000E+00  0.00000000000E+00  0.15826613665E+03  0.15826613665E+03  0.00000000000E+00 0.  1.
          1   -1    0    0  504    0 -0.00000000000E+00 -0.00000000000E+00 -0.34816018268E+03  0.34816018268E+03  0.00000000000E+00 0.  1.
         21    1    1    2  503  501  0.68974365980E+02 -0.58154851811E+02 -0.65030206542E+02  0.11121320836E+03  0.00000000000E+00 0.  1.
         21    1    1    2  504  505 -0.36948306159E+02  0.36879332112E+02  0.15222994303E+01  0.52226237282E+02  0.00000000000E+00 0.  1.
         21    1    1    2  505  502 -0.26353389201E+02  0.85347358867E+02  0.84226312235E+02  0.12277110597E+03  0.00000000000E+00 0.  1.
          1    1    1    2  501    0 -0.56726706205E+01 -0.64071839168E+02 -0.21061245116E+03  0.22021576771E+03  0.00000000000E+00 0.  1.
<scales pt_clust_3="119.95940" pt_clust_4="50.27491" pt_clust_5="50.27491" pt_clust_6="64.32247"></scales>
<clustering>
<clus scale="   50.275">  4  5 -1 -1</clus>
<clus scale="   64.322">  2  6  1 -1</clus>
<clus scale="  119.959">  2  3  1 -1</clus>
<clus scale="  136.803">  1  3  2 -1</clus>
</clustering>
</event>
<event>
 6    0  0.1361744E+002  0.8664850E+02  0.7546771E-02  0.1311177E+00
         21   -1    0    0  504  502  0.00000000000E+00  0.00000000000E+00  0.44182275144E+03  0.44182275144E+03  0.00000000000E+00 0. -1.
          1   -1    0    0  503    0 -0.00000000000E+00 -0.00000000000E+00 -0.37344865040E+03  0.37344865040E+03  0.00000000000E+00 0. -1.
         21    1    1    2  503  502 -0.85990445764E+02  0.41989984010E+02  0.39299551737E+03  0.40447866717E+03  0.00000000000E+00 0. -1.
         21    1    1    2  504  505 -0.16151273236E+01 -0.35788898733E+02  0.22002030118E+02  0.42042160246E+02  0.00000000000E+00 0. -1.
         21    1    1    2  505  501  0.68330860328E+02 -0.41431983017E+02 -0.17331545771E+03  0.19085063157E+03  0.00000000000E+00 0. -1.
          1    1    1    2  501    0  0.19274712760E+02  0.35230897740E+02 -0.17330798873E+03  0.17789994285E+03  0.00000000000E+00 0. -1.
<scales pt_clust_3="86.64850" pt_clust_4="35.82532" pt_clust_5="14000.00000" pt_clust_6="39.97866"></scales>
<clustering>
<clus scale="   35.825">  1  4  2 -1</clus>
<clus scale="   39.979">  2  6  1 -1</clus>
<clus scale="   86.648">  1  3  2 -1</clus>
<clus scale="   35.825">  1  3  2 -1</clus>
</clustering>
</event>
<event>
 6    0  0.1361744E+002  0.2144455E+03  0.7546771E-02  0.1138093E+00
          2   -1    0    0  503    0 -0.00000000000E+00  0.00000000000E+00  0.19243920066E+04  0.19243920066E+04  0.00000000000E+00 0.  1.
         21   -1    0    0  504  502  0.00000000000E+00 -0.00000000000E+00 -0.56476470841E+03  0.56476470841E+03  0.00000000000E+00 0.  1.
         21    1    1    2  503  502 -0.96116712591E+02  0.11297684151E+03  0.43523116841E+03  0.45981339597E+03  0.00000000000E+00 0. -1.
         21    1    1    2  504  505  0.37778604453E+02 -0.21550795667E+03 -0.50580268167E+03  0.55109641183E+03  0.00000000000E+00 0.  1.
         21    1    1    2  505  501  0.50730645163E+02  0.61702538349E+02  0.43557589018E+02  0.90983873068E+02  0.00000000000E+00 0.  1.
          2    1    1    2  501    0  0.76074629747E+01  0.40828576810E+02  0.13866412224E+04  0.13872630341E+04  0.00000000000E+00 0.  1.
<scales pt_clust_3="14000.00000" pt_clust_4="214.44547" pt_clust_5="84.46950" pt_clust_6="41.53127"></scales>
<clustering>
<clus scale="   41.531">  1  6  2 -1</clus>
<clus scale="   84.469">  1  5  2 -1</clus>
<clus scale="  214.445">  2  4  1 -1</clus>
<clus scale="  214.445">  2  3  1 -1</clus>
</clustering>
</event>
<event>
 6    0  0.1361744E+002  0.1425989E+03  0.7546771E-02  0.1209874E+00
         21   -1    0    0  504  502  0.00000000000E+00  0.00000000000E+00  0.46599663277E+03  0.46599663277E+03  0.00000000000E+00 0.  1.
          2   -1    0    0  503    0 -0.00000000000E+00 -0.00000000000E+00 -0.23422442114E+04  0.23422442114E+04  0.00000000000E+00 0.  1.
         21    1    1    2  503  505 -0.40551730224E+02 -0.36641174931E+01 -0.17020412424E+03  0.17500660699E+03  0.00000000000E+00 0. -1.
         21    1    1    2  504  501  0.21233770367E+02 -0.62998698210E+02  0.11073836397E+03  0.12916150446E+03  0.00000000000E+00 0.  1.
         21    1    1    2  505  502 -0.53718345466E+02 -0.76584802385E+02  0.33422244546E+03  0.34706704776E+03  0.00000000000E+00 0.  1.
          2    1    1    2  501    0  0.73036305323E+02  0.14324761809E+03 -0.21510042638E+04  0.21570056849E+04  0.00000000000E+00 0.  1.
<scales pt_clust_3="40.71693" pt_clust_4="66.44086" pt_clust_5="142.59895" pt_clust_6="14000.00000"></scales>
<clustering>
<clus scale="   40.717">  2  3  1 -1</clus>
<clus scale="   66.441">  1  4  2 -1</clus>
<clus scale="  142.599">  1  5  2 -1</clus>
<clus scale="   66.441">  1  3  2 -1</clus>
</clustering>
</event>
<event>
 6    0  0.1361744E+002  0.1409363E+03  0.7546771E-02  0.1212075E+00
         21   -1    0    0  505  502  0.00000000000E+00  0.00000000000E+00  0.10896747527E+04  0.10896747527E+04  0.00000000000E+00 0.  1.
          2   -1    0    0  504    0 -0.00000000000E+00 -0.00000000000E+00 -0.17638855573E+03  0.17638855573E+03  0.00000000000E+00 0.  1.
         21    1    1    2  503  501  0.19983930825E+02 -0.15274873265E+03  0.41072569090E+02  0.15943176831E+03  0.00000000000E+00 0.  1.
         21    1    1    2  504  502 -0.33069199024E+02  0.10725097954E+03  0.91164821009E+03  0.91853078527E+03  0.00000000000E+00 0.  1.
         21    1    1    2  505  503 -0.26132369358E+02  0.23392169060E+02  0.65287739003E+02  0.74111963716E+02  0.00000000000E+00 0. -1.
          2    1    1    2  501    0  0.39217637557E+02  0.22105584048E+02 -0.10472232121E+03  0.11398879112E+03  0.00000000000E+00 0.  1.
<scales pt_clust_3="14000.00000" pt_clust_4="140.93626" pt_clust_5="35.07270" pt_clust_6="44.96768"></scales>
<clustering>
<clus scale="   35.073">  1  5  2 -1</clus>
<clus scale="   44.968">  2  6  1 -1</clus>
<clus scale="  140.936">  1  4  2 -1</clus>
<clus scale="   35.073">  1  3  2 -1</clus>
</clustering>
</event>
<event>
 6    0  0.1361744E+002  0.9490527E+02  0.7546771E-02  0.1291390E+00
         21   -1    0    0  504  502  0.00000000000E+00  0.00000000000E+00  0.76294422930E+02  0.76294422930E+02  0.00000000000E+00 0.  1.
          4   -1    0    0  503    0 -0.00000000000E+00 -0.00000000000E+00 -0.10024810023E+04  0.10024810023E+04  0.00000000000E+00 0.  1.
         21    1    1    2  503  505  0.10833458640E+03  0.37587441647E+02 -0.69847451380E+03  0.70782472746E+03  0.00000000000E+00 0.  1.
         21    1    1    2  504  501 -0.97749561863E+01 -0.31653621950E+02 -0.39027750233E+02  0.51192449045E+02  0.00000000000E+00 0.  1.
         21    1    1    2  505  502 -0.23214036004E+02 -0.28078643878E+02  0.53743255675E+02  0.64927954228E+02  0.00000000000E+00 0.  1.
          4    1    1    2  501    0 -0.75345594212E+02  0.22144824181E+02 -0.24242757100E+03  0.25483029448E+03  0.00000000000E+00 0.  1.
<scales pt_clust_3="94.90527" pt_clust_4="33.12856" pt_clust_5="63.22075" pt_clust_6="14000.00000"></scales>
<clustering>
<clus scale="   33.129">  1  4  2 -1</clus>
<clus scale="   63.221">  1  5  2 -1</clus>
<clus scale="   94.905">  2  3  1 -1</clus>
<clus scale="   33.129">  1  3  2 -1</clus>
</clustering>
</event>
<event>
 6    0  0.1361744E+002  0.9425177E+02  0.7546771E-02  0.1292870E+00
          2   -1    0    0  502    0 -0.00000000000E+00  0.00000000000E+00  0.17202545512E+04  0.17202545512E+04  0.00000000000E+00 0.  1.
         21   -1    0    0  504  502  0.00000000000E+00 -0.00000000000E+00 -0.15564872456E+03  0.15564872456E+03  0.00000000000E+00 0. -1.
         21    1    1    2  503  505  0.32899091129E+02 -0.31532160512E+02 -0.11339561377E+02  0.46959695441E+02  0.00000000000E+00 0. -1.
         21    1    1    2  504  503  0.35276228461E+02 -0.55073980743E+01 -0.99652532112E+02  0.10585542444E+03  0.00000000000E+00 0. -1.
         21    1    1    2  505  501 -0.29493581946E+02  0.12248292599E+03  0.15564009728E+03  0.20023930288E+03  0.00000000000E+00 0. -1.
          2    1    1    2  501    0 -0.38681737644E+02 -0.85443367402E+02  0.15199578229E+04  0.15228488530E+04  0.00000000000E+00 0.  1.
<scales pt_clust_3="62.72402" pt_clust_4="35.70355" pt_clust_5="94.25177" pt_clust_6="14000.00000"></scales>
<clustering>
<clus scale="   35.704">  2  4  1 -1</clus>
<clus scale="   62.724">  2  3  1 -1</clus>
<clus scale="   94.252">  2  5  1 -1</clus>
<clus scale="   35.704">  2  3  1 -1</clus>
</clustering>
</event>
<event>
 6    0  0.1361744E+002  0.8807229E+02  0.7546771E-02  0.1307588E+00
         21   -1    0    0  501  502  0.00000000000E+00  0.00000000000E+00  0.53358944347E+03  0.53358944347E+03  0.00000000000E+00 0.  1.
          4   -1    0    0  505    0 -0.00000000000E+00 -0.00000000000E+00 -0.21970363283E+03  0.21970363283E+03  0.00000000000E+00 0. -1.
         21    1    1    2  503  504 -0.65426703727E+01  0.52761912484E+02  0.23335191094E+03  0.23933186225E+03  0.00000000000E+00 0.  1.
         21    1    1    2  504  502  0.35003991371E+02 -0.56982479650E+01  0.21900605090E+03  0.22185896370E+03  0.00000000000E+00 0.  1.
         21    1    1    2  505  503 -0.10440391349E+03 -0.77089738448E+02  0.17970048824E+01  0.12979304354E+03  0.00000000000E+00 0. -1.
          4    1    1    2  501    0  0.75942592490E+02  0.30026073929E+02 -0.14026915609E+03  0.16230920682E+03  0.00000000000E+00 0. -1.
<scales pt_clust_3="52.37869" pt_clust_4="35.46476" pt_clust_5="14000.00000" pt_clust_6="88.07229"></scales>
<clustering>
<clus scale="   35.465">  1  4  2 -1</clus>
<clus scale="   52.379">  1  3  2 -1</clus>
<clus scale="   88.072">  2  6  1 -1</clus>
<clus scale="   35.465">  1  3  2 -1</clus>
</clustering>
</event>
<event>
 6    0  0.1361744E+002  0.1963757E+03  0.7546771E-02  0.1152833E+00
         -2   -1    0    0    0  501 -0.00000000000E+00  0.00000000000E+00  0.13548706032E+04  0.13548706032E+04  0.00000000000E+00 0.  1.
         21   -1    0    0  505  502  0.00000000000E+00 -0.00000000000E+00 -0.92425767444E+02  0.92425767444E+02  0.00000000000E+00 0. -1.
         21    1    1    2  503  501  0.19213440113E+01 -0.91648250146E+02  0.26258568311E+02  0.95355155746E+02  0.00000000000E+00 0. -1.
         21    1    1    2  504  502  0.29254189104E+02  0.54490668066E+02  0.27687665144E+03  0.28370005393E+03  0.00000000000E+00 0.  1.
         21    1    1    2  505  503 -0.13195994743E+02 -0.90688543176E+02 -0.83350811169E+01  0.92021843700E+02  0.00000000000E+00 0. -1.
         -2    1    1    2    0  504 -0.17979538372E+02  0.12784612526E+03  0.96764469716E+03  0.97621931731E+03  0.00000000000E+00 0.  1.
<scales pt_clust_3="186.51780" pt_clust_4="49.86045" pt_clust_5="37.61225" pt_clust_6="49.86045"></scales>
<clustering>
<clus scale="   37.612">  3  5 -1 -1</clus>
<clus scale="   49.860">  4  6 -1 -1</clus>
<clus scale="  186.518">  2  3  1 -1</clus>
<clus scale="  186.518">  2  3  1 -1</clus>
</clustering>
</event>
<event>
 6    0  0.1361744E+002  0.1276608E+03  0.7546771E-02  0.1230968E+00
         21   -1    0    0  504  502  0.00000000000E+00  0.00000000000E+00  0.96267474822E+03  0.96267474822E+03  0.00000000000E+00 0.  1.
         -2   -1    0    0    0  501 -0.00000000000E+00 -0.00000000000E+00 -0.16038284998E+03  0.16038284998E+03  0.00000000000E+00 0. -1.
         21    1    1    2  503  501  0.14759220383E+03 -0.37460067631E+02 -0.50496183201E+02  0.16042624416E+03  0.00000000000E+00 0. -1.
         21    1    1    2  504  503 -0.27240490287E+02  0.59773651705E+02  0.28058613133E+03  0.28817271010E+03  0.00000000000E+00 0.  1.
         21    1    1    2  505  502 -0.81340611933E+02  0.15231963110E+02  0.60534569158E+03  0.61097603403E+03  0.00000000000E+00 0.  1.
         -2    1    1    2    0  505 -0.39011101608E+02 -0.37545547183E+02 -0.33143741471E+02  0.63482609907E+02  0.00000000000E+00 0. -1.
<scales pt_clust_3="127.66085" pt_clust_4="65.10228" pt_clust_5="14000.00000" pt_clust_6="54.14364"></scales>
<clustering>
<clus scale="   54.144">  2  6  1 -1</clus>
<clus scale="   65.102">  1  4  2 -1</clus>
<clus scale="  127.661">  2  3  1 -1</clus>
<clus scale="   65.102">  1  3  2 -1</clus>
</clustering>
</event>
<event>
 6    0  0.1361744E+002  0.1984190E+03  0.7546771E-02  0.1151080E+00
          1   -1    0    0  503    0 -0.00000000000E+00  0.00000000000E+00  0.11911181502E+04  0.11911181502E+04  0.00000000000E+00 0.  1.
         21   -1    0    0  501  502  0.00000000000E+00 -0.00000000000E+00 -0.92809668666E+02  0.92809668666E+02  0.00000000000E+00 0. -1.
         21    1    1    2  503  504  0.67173918105E+02  0.38204968686E+02  0.29260278614E+03  0.30263566439E+03  0.00000000000E+00 0. -1.
         21    1    1    2  504  505  0.97581256797E+02 -0.17597588269E+02  0.57399809753E+02  0.11457100397E+03  0.00000000000E+00 0. -1.
         21    1    1    2  505  502  0.85207719978E+02  0.33080782724E+01  0.87750032969E+01  0.85722223539E+02  0.00000000000E+00 0. -1.
          1    1    1    2  501    0 -0.24996289488E+03 -0.23915458689E+02  0.73953088237E+03  0.78099892699E+03  0.00000000000E+00 0.  1.
<scales pt_clust_3="77.27842" pt_clust_4="42.72139" pt_clust_5="42.72139" pt_clust_6="192.99698"></scales>
<clustering>
<clus scale="   42.721">  4  5 -1 -1</clus>
<clus scale="   77.278">  1  3  2 -1</clus>
<clus scale="  192.997">  1  6  2 -1</clus>
<clus scale="  198.419">  2  3  1 -1</clus>
</clustering>
</event>
<event>
 6    0  0.1361744E+002  0.6809304E+02  0.7546771E-02  0.1366700E+00
         21   -1    0    0  503  502  0.00000000000E+00  0.00000000000E+00  0.89982521791E+02  0.89982521791E+02  0.00000000000E+00 0. -1.
          1   -1    0    0  505    0 -0.00000000000E+00 -0.00000000000E+00 -0.84456357087E+03  0.84456357087E+03  0.00000000000E+00 0. -1.
         21    1    1    2  503  501 -0.11592444747E+03  0.70113403239E+01 -0.31758157171E+02  0.12040023655E+03  0.00000000000E+00 0. -1.
         21    1    1    2  504  502  0.56414791241E+02  0.45094677037E+01  0.24779422405E+02  0.61781742808E+02  0.00000000000E+00 0. -1.
         21    1    1    2  505  504  0.37846633297E+02  0.22599295886E+02 -0.39749754228E+03  0.39993423452E+03  0.00000000000E+00 0. -1.
          1    1    1    2  501    0  0.21663022934E+02 -0.34120103914E+02 -0.35010477203E+03  0.35242987878E+03  0.00000000000E+00 0. -1.
<scales pt_clust_3="14000.00000" pt_clust_4="68.09304" pt_clust_5="55.57963" pt_clust_6="40.41619"></scales>
<clustering>
<clus scale="   40.416">  2  6  1 -1</clus>
<clus scale="   55.580">  2  5  1 -1</clus>
<clus scale="   68.093">  1  4  2 -1</clus>
<clus scale="   68.093">  1  3  2 -1</clus>
</clustering>
</event>
<event>
 6    0  0.1361744E+002  0.1472918E+03  0.7546771E-02  0.1203841E+00
         21   -1    0    0  501  502  0.00000000000E+00  0.00000000000E+00  0.33467405861E+03  0.33467405861E+03  0.00000000000E+00 0.  1.
          1   -1    0    0  504    0 -0.00000000000E+00 -0.00000000000E+00 -0.84094474453E+03  0.84094474453E+03  0.00000000000E+00 0.  1.
         21    1    1    2  503  505 -0.23021042258E+02 -0.20525171573E+02  0.10365233650E+03  0.10814369106E+03  0.00000000000E+00 0.  1.
         21    1    1    2  504  503 -0.34597781855E+02 -0.21806908981E+01 -0.61888832182E+02  0.70936517189E+02  0.00000000000E+00 0. -1.
         21    1    1    2  505  502 -0.11125195641E+03  0.94132003047E+01  0.20027633189E+03  0.22929503976E+03  0.00000000000E+00 0.  1.
          1    1    1    2  501    0  0.16887078052E+03  0.13292662166E+02 -0.74831052211E+03  0.76724355513E+03  0.00000000000E+00 0.  1.
<scales pt_clust_3="30.37311" pt_clust_4="34.66644" pt_clust_5="30.37311" pt_clust_6="135.48179"></scales>
<clustering>
<clus scale="   30.373">  3  5 -1 -1</clus>
<clus scale="   34.666">  2  4  1 -1</clus>
<clus scale="  135.482">  2  6  1 -1</clus>
<clus scale="  147.292">  1  3  2 -1</clus>
</clustering>
</event>
<event>
 6    0  0.1361744E+002  0.1948120E+03  0.7546771E-02  0.1154191E+00
         21   -1    0    0  505  502  0.00000000000E+00  0.00000000000E+00  0.70905599211E+02  0.70905599211E+02  0.00000000000E+00 0. -1.
          1   -1    0    0  503    0 -0.00000000000E+00 -0.00000000000E+00 -0.10605971354E+04  0.10605971354E+04  0.00000000000E+00 0. -1.
         21    1    1    2  503  504 -0.47763974796E+02 -0.40595238448E+02 -0.12885173381E+03  0.14329040435E+03  0.00000000000E+00 0.  1.
         21    1    1    2  504  502 -0.66055281017E+02 -0.15055078217E+03 -0.10430353656E+03  0.19469993812E+03  0.00000000000E+00 0. -1.
         21    1    1    2  505  501  0.10232455070E+03  0.93306142988E+02 -0.38537136876E+03  0.40949657124E+03  0.00000000000E+00 0.  1.
          1    1    1    2  501    0  0.11494705116E+02  0.97839877635E+02 -0.37116489710E+03  0.38401582095E+03  0.00000000000E+00 0. -1.
<scales pt_clust_3="62.68469" pt_clust_4="173.57580" pt_clust_5="75.67313" pt_clust_6="75.67313"></scales>
<clustering>
<clus scale="   62.685">  2  3  1 -1</clus>
<clus scale="   75.673">  5  6 -1 -1</clus>
<clus scale="  173.576">  1  4  2 -1</clus>
<clus scale="  173.576">  1  3  2 -1</clus>
</clustering>
</event>
<event>
 6    0  0.1361744E+002  0.4480778E+03  0.7546771E-02  0.1028297E+00
          2   -1    0    0  503    0 -0.00000000000E+00  0.00000000000E+00  0.10476083898E+04  0.10476083898E+04  0.00000000000E+00 0. -1.
         21   -1    0    0  504  502  0.00000000000E+00 -0.00000000000E+00 -0.71926611171E+03  0.71926611171E+03  0.00000000000E+00 0. -1.
         21    1    1    2  503  502  0.20756353316E+02  0.27664948544E+02 -0.21003292726E+02  0.40463735446E+02  0.00000000000E+00 0.  1.
         21    1    1    2  504  505 -0.21471564491E+03 -0.41599464409E+03 -0.55029255554E+03  0.72247923760E+03  0.00000000000E+00 0. -1.
         21    1    1    2  505  501  0.56992010505E+02  0.64089810280E+02  0.11069732693E+03  0.14003389316E+03  0.00000000000E+00 0.  1.
          2    1    1    2  501    0  0.13696728109E+03  0.32423988526E+03  0.78894079947E+03  0.86389763535E+03  0.00000000000E+00 0. -1.
<scales pt_clust_3="34.58577" pt_clust_4="436.65102" pt_clust_5="49.71505" pt_clust_6="49.71505"></scales>
<clustering>
<clus scale="   34.586">  2  3  1 -1</clus>
<clus scale="   49.715">  5  6 -1 -1</clus>
<clus scale="  436.651">  2  4  1 -1</clus>
<clus scale="   34.586">  2  3  1 -1</clus>
</clustering>
</event>
<event>
 6    0  0.1361744E+002  0.1231213E+03  0.7546771E-02  0.1238035E+00
          2   -1    0    0  502    0 -0.00000000000E+00  0.00000000000E+00  0.82564291605E+03  0.82564291605E+03  0.00000000000E+00 0.  1.
         21   -1    0    0  505  502  0.00000000000E+00 -0.00000000000E+00 -0.19465266227E+03  0.19465266227E+03  0.00000000000E+00 0. -1.
         21    1    1    2  503  501 -0.60152945036E+02 -0.22573252636E+01  0.28421536621E+03  0.29051995922E+03  0.00000000000E+00 0. -1.
         21    1    1    2  504  503  0.57056177956E+02 -0.35072471820E+02  0.39717568037E+02  0.77865081605E+02  0.00000000000E+00 0. -1.
         21    1    1    2  505  504  0.62657559514E+02 -0.93016055205E+01 -0.16348448771E+03  0.17532731490E+03  0.00000000000E+00 0. -1.
          2    1    1    2  501    0 -0.59560792434E+02  0.46631402604E+02  0.47054180724E+03  0.47658322260E+03  0.00000000000E+00 0.  1.
<scales pt_clust_3="44.50003" pt_clust_4="112.56288" pt_clust_5="63.34422" pt_clust_6="44.50003"></scales>
<clustering>
<clus scale="   44.500">  3  6 -1 -1</clus>
<clus scale="   63.344">  2  5  1 -1</clus>
<clus scale="  112.563">  2  4  1 -1</clus>
<clus scale="   63.344">  2  3  1 -1</clus>
</clustering>
</event>
<event>
 6    0  0.2048996E+002  0.1080401E+03  0.7546771E-02  0.1264243E+00
          2   -1    0    0  504    0 -0.00000000000E+00  0.00000000000E+00  0.20270719494E+04  0.20270719494E+04  0.00000000000E+00 0. -1.
         21   -1    0    0  503  502  0.00000000000E+00 -0.00000000000E+00 -0.76703178654E+03  0.76703178654E+03  0.00000000000E+00 0. -1.
         21    1    1    2  503  501 -0.35519974884E+02 -0.13988963489E+02 -0.26785631970E+03  0.27056305682E+03  0.00000000000E+00 0. -1.
         21    1    1    2  504  505  0.23280575710E+02 -0.21389585261E+02  0.38302441145E+02  0.49664640951E+02  0.00000000000E+00 0.  1.
         21    1    1    2  505  502 -0.14284675402E+02  0.11005571247E+03 -0.48507960850E+03  0.49761283985E+03  0.00000000000E+00 0. -1.
          2    1    1    2  501    0  0.26524074575E+02 -0.74677163722E+02  0.19746736499E+04  0.19762631983E+04  0.00000000000E+00 0. -1.
<scales pt_clust_3="38.16595" pt_clust_4="31.61486" pt_clust_5="14000.00000" pt_clust_6="108.04012"></scales>
<clustering>
<clus scale="   31.615">  1  4  2 -1</clus>
<clus scale="   38.166">  2  3  1 -1</clus>
<clus scale="  108.040">  1  6  2 -1</clus>
<clus scale="   38.166">  2  3  1 -1</clus>
</clustering>
</event>
<event>
 6    0  0.1361744E+002  0.1514741E+03  0.7546771E-02  0.1198673E+00
         21   -1    0    0  503  502  0.00000000000E+00  0.00000000000E+00  0.10857093894E+03  0.10857093894E+03  0.00000000000E+00 0.  1.
          1   -1    0    0  505    0 -0.00000000000E+00 -0.00000000000E+00 -0.23255788183E+04  0.23255788183E+04  0.00000000000E+00 0. -1.
         21    1    1    2  503  504 -0.32089531396E+02 -0.63309765123E+01  0.45541874451E+02  0.56070327423E+02  0.00000000000E+00 0.  1.
         21    1    1    2  504  501  0.93768612828E+02 -0.13064910322E+03 -0.75693878818E+02  0.17773942786E+03  0.00000000000E+00 0.  1.
         21    1    1    2  505  502 -0.12488188733E+03  0.11206431363E+03 -0.17756206015E+04  0.17835308847E+04  0.00000000000E+00 0. -1.
          1    1    1    2  501    0  0.63202805899E+02  0.24915766103E+02 -0.41123527345E+03  0.41680911723E+03  0.00000000000E+00 0. -1.
<scales pt_clust_3="32.70809" pt_clust_4="151.47413" pt_clust_5="14000.00000" pt_clust_6="66.38493"></scales>
<clustering>
<clus scale="   32.708">  1  3  2 -1</clus>
<clus scale="   66.385">  2  6  1 -1</clus>
<clus scale="  151.474">  1  4  2 -1</clus>
<clus scale="   32.708">  1  3  2 -1</clus>
</clustering>
</event>
<event>
 6    0  0.1361744E+002  0.1031557E+03  0.7546771E-02  0.1273796E+00
          2   -1    0    0  503    0 -0.00000000000E+00  0.00000000000E+00  0.26335121537E+04  0.26335121537E+04  0.00000000000E+00 0. -1.
         21   -1    0    0  504  502  0.00000000000E+00 -0.00000000000E+00 -0.55056284879E+02  0.55056284879E+02  0.00000000000E+00 0.  1.
         21    1    1    2  503  505 -0.83623801115E+00  0.35678815645E+02  0.34629780569E+03  0.34813193965E+03  0.00000000000E+00 0. -1.
         21    1    1    2  504  501  0.11509832831E+03 -0.72938007597E+02  0.11681416960E+03  0.17948016144E+03  0.00000000000E+00 0.  1.
         21    1    1    2  505  502 -0.79260997654E+02 -0.26953604775E+02  0.56924791934E+02  0.10123850303E+03  0.00000000000E+00 0.  1.
          2    1    1    2  501    0 -0.35001092643E+02  0.64212796728E+02  0.20584191016E+04  0.20597178344E+04  0.00000000000E+00 0. -1.
<scales pt_clust_3="35.68861" pt_clust_4="103.15572" pt_clust_5="83.35697" pt_clust_6="14000.00000"></scales>
<clustering>
<clus scale="   35.689">  1  3  2 -1</clus>
<clus scale="   83.357">  2  5  1 -1</clus>
<clus scale="  103.156">  2  4  1 -1</clus>
<clus scale="   83.357">  2  3  1 -1</clus>
</clustering>
</event>
<event>
 6    0  0.1361744E+002  0.1230115E+03  0.7546771E-02  0.1238210E+00
         21   -1    0    0  505  502  0.00000000000E+00  0.00000000000E+00  0.11297625936E+03  0.11297625936E+03  0.00000000000E+00 0.  1.
          2   -1    0    0  504    0 -0.00000000000E+00 -0.00000000000E+00 -0.19675640060E+04  0.19675640060E+04  0.00000000000E+00 0.  1.
         21    1    1    2  503  502 -0.79379555945E+02 -0.12216187898E+02  0.81531701114E+02  0.11444547800E+03  0.00000000000E+00 0.  1.
         21    1    1    2  504  503  0.56568216458E+02 -0.33287012323E+02 -0.14595241965E+03  0.16003155034E+03  0.00000000000E+00 0. -1.
         21    1    1    2  505  501 -0.44749597937E+02 -0.27089244548E+02 -0.98817351601E+02  0.11180886666E+03  0.00000000000E+00 0.  1.
          2    1    1    2  501    0  0.67560937424E+02  0.72592444769E+02 -0.16913496765E+04  0.16942543704E+04  0.00000000000E+00 0.  1.
<scales pt_clust_3="123.01149" pt_clust_4="64.06611" pt_clust_5="52.31017" pt_clust_6="14000.00000"></scales>
<clustering>
<clus scale="   52.310">  1  5  2 -1</clus>
<clus scale="   64.066">  2  4  1 -1</clus>
<clus scale="  123.011">  1  3  2 -1</clus>
<clus scale="   52.310">  1  3  2 -1</clus>
</clustering>
</event>
<event>
 6    0  0.1361744E+002  0.1164981E+03  0.7546771E-02  0.1248989E+00
          2   -1    0    0  503    0 -0.00000000000E+00  0.00000000000E+00  0.45504843446E+03  0.45504843446E+03  0.00000000000E+00 0. -1.
         21   -1    0    0  504  502  0.00000000000E+00 -0.00000000000E+00 -0.82863264555E+03  0.82863264555E+03  0.00000000000E+00 0.  1.
         21    1    1    2  503  505  0.10689509900E+03  0.59021702632E+02  0.16759110692E+03  0.20735694512E+03  0.00000000000E+00 0. -1.
         21    1    1    2  504  501  0.23478622906E+02  0.54560455787E+02 -0.42842025417E+02  0.73236112752E+02  0.00000000000E+00 0. -1.
         21    1    1    2  505  502 -0.13216910910E+03 -0.17750170638E+01 -0.73210851843E+03  0.74394536550E+03  0.00000000000E+00 0.  1.
          2    1    1    2  501    0  0.17953871945E+01 -0.11180714135E+03  0.23377522585E+03  0.25914265664E+03  0.00000000000E+00 0. -1.
<scales pt_clust_3="14000.00000" pt_clust_4="59.39772" pt_clust_5="116.49809" pt_clust_6="110.93055"></scales>
<clustering>
<clus scale="   59.398">  2  4  1 -1</clus>
<clus scale="  110.931">  1  6  2 -1</clus>
<clus scale="  116.498">  2  5  1 -1</clus>
<clus scale="   59.398">  2  3  1 -1</clus>
</clustering>
</event>
<event>
 6    0  0.1361744E+002  0.1708394E+03  0.7546771E-02  0.1176975E+00
          2   -1    0    0  505    0 -0.00000000000E+00  0.00000000000E+00  0.25185123106E+03  0.25185123106E+03  0.00000000000E+00 0. -1.
         21   -1    0    0  504  502  0.00000000000E+00 -0.00000000000E+00 -0.11535864529E+04  0.11535864529E+04  0.00000000000E+00 0. -1.
         21    1    1    2  503  502 -0.30858504000E+02 -0.23130160080E+02 -0.17452887265E+03  0.17873885689E+03  0.00000000000E+00 0.  1.
         21    1    1    2  504  501  0.29709985291E+02  0.47452839002E+02 -0.73062971006E+02  0.92047014550E+02  0.00000000000E+00 0.  1.
         21    1    1    2  505  503  0.89347867320E+02 -0.16975284486E+03 -0.85223570041E+03  0.87355867506E+03  0.00000000000E+00 0. -1.
          2    1    1    2  501    0 -0.88199348611E+02  0.14543016594E+03  0.19809232226E+03  0.26109313741E+03  0.00000000000E+00 0. -1.
<scales pt_clust_3="38.56490" pt_clust_4="52.95877" pt_clust_5="14000.00000" pt_clust_6="170.83937"></scales>
<clustering>
<clus scale="   38.565">  2  3  1 -1</clus>
<clus scale="   52.959">  2  4  1 -1</clus>
<clus scale="  170.839">  1  6  2 -1</clus>
<clus scale="   38.565">  2  3  1 -1</clus>
</clustering>
</event>
<event>
 6    0  0.1361744E+002  0.1078933E+03  0.7546771E-02  0.1264522E+00
          2   -1    0    0  504    0 -0.00000000000E+00  0.00000000000E+00  0.11974039393E+04  0.11974039393E+04  0.00000000000E+00 0. -1.
         21   -1    0    0  505  502  0.00000000000E+00 -0.00000000000E+00 -0.42692867678E+02  0.42692867678E+02  0.00000000000E+00 0. -1.
         21    1    1    2  503  502  0.49219663521E+02 -0.16019304500E+02  0.29466510211E+02  0.59560629764E+02  0.00000000000E+00 0.  1.
         21    1    1    2  504  503 -0.37681593203E+02  0.75425421814E+01  0.34634136704E+03  0.34846683476E+03  0.00000000000E+00 0. -1.
         21    1    1    2  505  501 -0.12311392366E+03 -0.41927057077E+02  0.18791326847E+03  0.22853076988E+03  0.00000000000E+00 0. -1.
          2    1    1    2  501    0  0.11157585335E+03  0.50403819396E+02  0.59098992595E+03  0.60353857262E+03  0.00000000000E+00 0. -1.
<scales pt_clust_3="49.76277" pt_clust_4="38.42906" pt_clust_5="107.89331" pt_clust_6="14000.00000"></scales>
<clustering>
<clus scale="   38.429">  1  4  2 -1</clus>
<clus scale="   49.763">  2  3  1 -1</clus>
<clus scale="  107.893">  2  5  1 -1</clus>
<clus scale="   49.763">  2  3  1 -1</clus>
</clustering>
</event>
<event>
 6    0  0.1361744E+002  0.1194100E+03  0.7546771E-02  0.1244074E+00
         21   -1    0    0  503  502  0.00000000000E+00  0.00000000000E+00  0.24887602989E+03  0.24887602989E+03  0.00000000000E+00 0.  1.
          1   -1    0    0  504    0 -0.00000000000E+00 -0.00000000000E+00 -0.34586701443E+03  0.34586701443E+03  0.00000000000E+00 0. -1.
         21    1    1    2  503  505 -0.67738622883E+02 -0.37384541288E+02  0.24975171684E+02  0.81301194075E+02  0.00000000000E+00 0.  1.
         21    1    1    2  504  502  0.11909537227E+02 -0.93723996378E+02  0.15803985054E+03  0.18412663831E+03  0.00000000000E+00 0.  1.
         21    1    1    2  505  501 -0.13654244762E+02  0.90780538803E+02 -0.12993758761E+03  0.15909532142E+03  0.00000000000E+00 0. -1.
          1    1    1    2  501    0  0.69483330418E+02  0.40327998863E+02 -0.15006841915E+03  0.17021989051E+03  0.00000000000E+00 0. -1.
<scales pt_clust_3="77.37005" pt_clust_4="119.40996" pt_clust_5="14000.00000" pt_clust_6="76.35684"></scales>
<clustering>
<clus scale="   77.370">  1  3  2 -1</clus>
<clus scale="   76.357">  2  6  1 -1</clus>
<clus scale="  119.410">  1  4  2 -1</clus>
<clus scale="   77.370">  1  3  2 -1</clus>
</clustering>
</event>
<event>
 6    0  0.1361744E+002  0.2385223E+03  0.7546771E-02  0.1120781E+00
         -1   -1    0    0    0  501 -0.00000000000E+00  0.00000000000E+00  0.10263877143E+04  0.10263877143E+04  0.00000000000E+00 0.  1.
         21   -1    0    0  504  502  0.00000000000E+00 -0.00000000000E+00 -0.14546903954E+03  0.14546903954E+03  0.00000000000E+00 0. -1.
         21    1    1    2  503  505  0.57012722066E+02  0.35593412941E+02  0.23166662124E+02  0.71091741828E+02  0.00000000000E+00 0. -1.
         21    1    1    2  504  503  0.14874697656E+03  0.86632543162E+02 -0.27243888175E+02  0.17427877098E+03  0.00000000000E+00 0. -1.
         21    1    1    2  505  501 -0.40357915626E+02 -0.39869729978E+02  0.66577361170E+02  0.87469433190E+02  0.00000000000E+00 0. -1.
         -1    1    1    2    0  502 -0.16540178300E+03 -0.82356226126E+02  0.81841853960E+03  0.83901680780E+03  0.00000000000E+00 0.  1.
<scales pt_clust_3="33.73002" pt_clust_4="33.73002" pt_clust_5="56.73056" pt_clust_6="232.33396"></scales>
<clustering>
<clus scale="   33.730">  3  4 -1 -1</clus>
<clus scale="   56.731">  1  5  2 -1</clus>
<clus scale="  232.334">  1  6  2 -1</clus>
<clus scale="  238.522">  2  3  1 -1</clus>
</clustering>
</event>
<event>
 6    0  0.1361744E+002  0.7914286E+02  0.7546771E-02  0.1331502E+00
          2   -1    0    0  503    0 -0.00000000000E+00  0.00000000000E+00  0.28741913655E+04  0.28741913655E+04  0.00000000000E+00 0. -1.
         21   -1    0    0  504  502  0.00000000000E+00 -0.00000000000E+00 -0.78844858760E+02  0.78844858760E+02  0.00000000000E+00 0. -1.
         21    1    1    2  503  502  0.43647710311E+02 -0.28534820287E+02  0.43813163959E+02  0.68109851860E+02  0.00000000000E+00 0. -1.
         21    1    1    2  504  505 -0.55781456894E+02 -0.39058584729E+01 -0.48592713814E+02  0.74081566529E+02  0.00000000000E+00 0. -1.
         21    1    1    2  505  501  0.38584810757E+02 -0.45535963420E+02  0.18430849403E+03  0.19373159927E+03  0.00000000000E+00 0. -1.
          2    1    1    2  501    0 -0.26451064175E+02  0.77976642180E+02  0.26158175626E+04  0.26171132066E+04  0.00000000000E+00 0. -1.
<scales pt_clust_3="52.14747" pt_clust_4="33.96366" pt_clust_5="79.14286" pt_clust_6="14000.00000"></scales>
<clustering>
<clus scale="   52.147">  2  3  1 -1</clus>
<clus scale="   33.964">  2  4  1 -1</clus>
<clus scale="   79.143">  2  5  1 -1</clus>
<clus scale="   52.147">  2  3  1 -1</clus>
</clustering>
</event>
<event>
 6    0  0.1361744E+002  0.1463072E+03  0.7546771E-02  0.1205086E+00
         21   -1    0    0  503  502  0.00000000000E+00  0.00000000000E+00  0.50470412012E+03  0.50470412012E+03  0.00000000000E+00 0.  1.
          1   -1    0    0  502    0 -0.00000000000E+00 -0.00000000000E+00 -0.27352549804E+03  0.27352549804E+03  0.00000000000E+00 0.  1.
         21    1    1    2  503  505  0.57875876035E+01 -0.78769463736E+02  0.30009108306E+03  0.31031078408E+03  0.00000000000E+00 0.  1.
         21    1    1    2  504  501 -0.40530880625E+02  0.57029132510E+02 -0.62518310206E+02  0.93827572440E+02  0.00000000000E+00 0. -1.
         21    1    1    2  505  504  0.69616224335E+02 -0.40787096150E+02  0.16756324048E+03  0.18597700251E+03  0.00000000000E+00 0.  1.
          1    1    1    2  501    0 -0.34872931313E+02  0.62527427376E+02 -0.17395739126E+03  0.18811425912E+03  0.00000000000E+00 0.  1.
<scales pt_clust_3="78.98180" pt_clust_4="59.23836" pt_clust_5="133.47229" pt_clust_6="59.23836"></scales>
<clustering>
<clus scale="   59.238">  4  6 -1 -1</clus>
<clus scale="   78.982">  1  3  2 -1</clus>
<clus scale="  133.472">  1  5  2 -1</clus>
<clus scale="   78.982">  1  3  2 -1</clus>
</clustering>
</event>
<event>
 6    0  0.1361744E+002  0.8684025E+02  0.7546771E-02  0.1310689E+00
          2   -1    0    0  505    0 -0.00000000000E+00  0.00000000000E+00  0.31592540534E+04  0.31592540534E+04  0.00000000000E+00 0. -1.
         21   -1    0    0  503  502  0.00000000000E+00 -0.00000000000E+00 -0.19473425961E+02  0.19473425961E+02  0.00000000000E+00 0. -1.
         21    1    1    2  503  504  0.42062277546E+02  0.71186016682E+02  0.98071118409E+02  0.12827559561E+03  0.00000000000E+00 0. -1.
         21    1    1    2  504  501 -0.53134175494E+02 -0.67744221088E+02  0.98563398706E+03  0.98938712168E+03  0.00000000000E+00 0.  1.
         21    1    1    2  505  502 -0.37250191985E+02  0.22136395293E+02  0.22282163957E+03  0.22699577058E+03  0.00000000000E+00 0.  1.
          2    1    1    2  501    0  0.48322089933E+02 -0.25578190886E+02  0.18332538824E+04  0.18340689914E+04  0.00000000000E+00 0. -1.
<scales pt_clust_3="14000.00000" pt_clust_4="86.84025" pt_clust_5="43.33125" pt_clust_6="53.65973"></scales>
<clustering>
<clus scale="   43.331">  2  5  1 -1</clus>
<clus scale="   53.660">  1  6  2 -1</clus>
<clus scale="   86.840">  1  4  2 -1</clus>
<clus scale="   43.331">  2  3  1 -1</clus>
</clustering>
</event>
<event>
 6    0  0.1361744E+002  0.1962404E+03  0.7546771E-02  0.1152950E+00
          2   -1    0    0  504    0 -0.00000000000E+00  0.00000000000E+00  0.67702491475E+03  0.67702491475E+03  0.00000000000E+00 0.  1.
         21   -1    0    0  503  502  0.00000000000E+00 -0.00000000000E+00 -0.16061601838E+04  0.16061601838E+04  0.00000000000E+00 0. -1.
         21    1    1    2  503  501 -0.19727183999E+03  0.25464950297E+02  0.27184729251E+03  0.33684654220E+03  0.00000000000E+00 0. -1.
         21    1    1    2  504  505  0.17459353104E+03  0.69981484891E+02 -0.14540234996E+04  0.14661393682E+04  0.00000000000E+00 0. -1.
         21    1    1    2  505  502  0.16939694735E+02 -0.24785029106E+02 -0.10808683208E+03  0.11217849257E+03  0.00000000000E+00 0. -1.
          2    1    1    2  501    0  0.57386142166E+01 -0.70661406082E+02  0.36112777019E+03  0.36802069562E+03  0.00000000000E+00 0.  1.
<scales pt_clust_3="14000.00000" pt_clust_4="196.24040" pt_clust_5="30.02084" pt_clust_6="70.95413"></scales>
<clustering>
<clus scale="   30.021">  2  5  1 -1</clus>
<clus scale="   70.954">  1  6  2 -1</clus>
<clus scale="  196.240">  2  4  1 -1</clus>
<clus scale="   30.021">  2  3  1 -1</clus>
</clustering>
</event>
<event>
 6    0  0.1361744E+002  0.1224351E+03  0.7546771E-02  0.1239133E+00
         21   -1    0    0  503  502  0.00000000000E+00  0.00000000000E+00  0.88073911815E+02  0.88073911815E+02  0.00000000000E+00 0.  1.
         -2   -1    0    0    0  501 -0.00000000000E+00 -0.00000000000E+00 -0.11891319220E+04  0.11891319220E+04  0.00000000000E+00 0. -1.
         21    1    1    2  503  505 -0.33802022364E+02  0.10498904845E+03 -0.59974701525E+02  0.12554776714E+03  0.00000000000E+00 0.  1.
         21    1    1    2  504  502  0.37912501487E+02 -0.43556061022E+02  0.19694998479E+02  0.61011320145E+02  0.00000000000E+00 0.  1.
         21    1    1    2  505  501 -0.20793055508E+02  0.93060607096E+02 -0.32833633648E+03  0.34190258496E+03  0.00000000000E+00 0. -1.
         -2    1    1    2    0  504  0.16682576385E+02 -0.15449359452E+03 -0.73244197067E+03  0.74874416158E+03  0.00000000000E+00 0. -1.
<scales pt_clust_3="75.46332" pt_clust_4="57.74503" pt_clust_5="122.43512" pt_clust_6="14000.00000"></scales>
<clustering>
<clus scale="   57.745">  1  4  2 -1</clus>
<clus scale="   75.463">  1  3  2 -1</clus>
<clus scale="  122.435">  2  5  1 -1</clus>
<clus scale="   57.745">  1  3  2 -1</clus>
</clustering>
</event>
<event>
 6    0  0.1361744E+002  0.9887607E+02  0.7546771E-02  0.1282677E+00
          2   -1    0    0  505    0 -0.00000000000E+00  0.00000000000E+00  0.14648458022E+04  0.14648458022E+04  0.00000000000E+00 0. -1.
         21   -1    0    0  504  502  0.00000000000E+00 -0.00000000000E+00 -0.32218520198E+02  0.32218520198E+02  0.00000000000E+00 0.  1.
         21    1    1    2  503  501  0.11123980329E+03 -0.83074953060E+02  0.34227914547E+03  0.36936534093E+03  0.00000000000E+00 0.  1.
         21    1    1    2  504  503 -0.20611106224E+02  0.39743619168E+02  0.18669121692E+02  0.48506794051E+02  0.00000000000E+00 0.  1.
         21    1    1    2  505  502 -0.19029435162E+02  0.44056664338E+02  0.26245825662E+03  0.26680975533E+03  0.00000000000E+00 0. -1.
          2    1    1    2  501    0 -0.71599261900E+02 -0.72533044584E+00  0.80922075826E+03  0.81238243211E+03  0.00000000000E+00 0. -1.
<scales pt_clust_3="98.87607" pt_clust_4="44.77022" pt_clust_5="53.60880" pt_clust_6="14000.00000"></scales>
<clustering>
<clus scale="   44.770">  2  4  1 -1</clus>
<clus scale="   53.609">  1  5  2 -1</clus>
<clus scale="   98.876">  2  3  1 -1</clus>
<clus scale="   44.770">  2  3  1 -1</clus>
</clustering>
</event>
<event>
 6    0  0.1361744E+002  0.1863175E+03  0.7546771E-02  0.1161825E+00
          1   -1    0    0  505    0 -0.00000000000E+00  0.00000000000E+00  0.27433657157E+04  0.27433657157E+04  0.00000000000E+00 0.  1.
         21   -1    0    0  503  502  0.00000000000E+00 -0.00000000000E+00 -0.70661540652E+02  0.70661540652E+02  0.00000000000E+00 0.  1.
         21    1    1    2  503  504 -0.53479627197E+02  0.40843720316E+02  0.45266371178E+02  0.81100705139E+02  0.00000000000E+00 0.  1.
         21    1    1    2  504  501 -0.10299821252E+02  0.11664710548E+03  0.20630346509E+02  0.11890435119E+03  0.00000000000E+00 0.  1.
         21    1    1    2  505  502  0.47542261092E+02 -0.32588730662E+02  0.47270778369E+03  0.47620892549E+03  0.00000000000E+00 0. -1.
          1    1    1    2  501    0  0.16237187357E+02 -0.12490209513E+03  0.21340996737E+04  0.21378132745E+04  0.00000000000E+00 0.  1.
<scales pt_clust_3="62.00664" pt_clust_4="62.00664" pt_clust_5="57.63933" pt_clust_6="167.10996"></scales>
<clustering>
<clus scale="   57.639">  1  5  2 -1</clus>
<clus scale="   62.007">  3  4 -1 -1</clus>
<clus scale="  167.110">  1  6  2 -1</clus>
<clus scale="  186.317">  2  3  1 -1</clus>
</clustering>
</event>
<event>
 6    0  0.1361744E+002  0.2499132E+03  0.7546771E-02  0.1113360E+00
         21   -1    0    0  503  502  0.00000000000E+00  0.00000000000E+00  0.18892068945E+04  0.18892068945E+04  0.00000000000E+00 0.  1.
          2   -1    0    0  505    0 -0.00000000000E+00 -0.00000000000E+00 -0.10063934034E+03  0.10063934034E+03  0.00000000000E+00 0. -1.
         21    1    1    2  503  501  0.79896948123E+02 -0.36180236008E+02  0.29992428071E+02  0.92693460064E+02  0.00000000000E+00 0.  1.
         21    1    1    2  504  502 -0.43747229376E+02 -0.20028006490E+02  0.39417235579E+03  0.39709795667E+03  0.00000000000E+00 0. -1.
         21    1    1    2  505  504 -0.18837106253E+03  0.69888451582E+02  0.13277774819E+04  0.13428928082E+04  0.00000000000E+00 0.  1.
          2    1    1    2  501    0  0.15222134378E+03 -0.13680209083E+02  0.36625288460E+02  0.15716200997E+03  0.00000000000E+00 0. -1.
<scales pt_clust_3="30.53624" pt_clust_4="38.19382" pt_clust_5="38.19382" pt_clust_6="240.81079"></scales>
<clustering>
<clus scale="   30.536">  3  6 -1 -1</clus>
<clus scale="   38.194">  4  5 -1 -1</clus>
<clus scale="  240.811">  2  3  1 -1</clus>
<clus scale="  249.913">  1  3  2 -1</clus>
</clustering>
</event>
<event>
 6    0  0.1361744E+002  0.1073026E+03  0.7546771E-02  0.1265648E+00
          1   -1    0    0  503    0 -0.00000000000E+00  0.00000000000E+00  0.63714675177E+03  0.63714675177E+03  0.00000000000E+00 0.  1.
         21   -1    0    0  501  502  0.00000000000E+00 -0.00000000000E+00 -0.51347893976E+02  0.51347893976E+02  0.00000000000E+00 0.  1.
         21    1    1    2  503  505 -0.44787563170E+02 -0.23688557484E+01  0.12838561360E+03  0.13599412882E+03  0.00000000000E+00 0.  1.
         21    1    1    2  504  502 -0.42366921599E+02 -0.79302572717E+02  0.99007724854E+02  0.13373998529E+03  0.00000000000E+00 0.  1.
         21    1    1    2  505  504  0.44036192143E+02  0.12739105317E+03  0.15274476422E+03  0.20371212444E+03  0.00000000000E+00 0.  1.
          1    1    1    2  501    0  0.43118292626E+02 -0.45719624708E+02  0.20566075512E+03  0.21504840720E+03  0.00000000000E+00 0.  1.
<scales pt_clust_3="44.85016" pt_clust_4="14000.00000" pt_clust_5="107.30265" pt_clust_6="52.72398"></scales>
<clustering>
<clus scale="   44.850">  1  3  2 -1</clus>
<clus scale="   52.724">  1  6  2 -1</clus>
<clus scale="  107.303">  1  5  2 -1</clus>
<clus scale="  107.303">  2  3  1 -1</clus>
</clustering>
</event>
<event>
 6    0  0.1361744E+002  0.1941097E+03  0.7546771E-02  0.1154806E+00
          1   -1    0    0  505    0 -0.00000000000E+00  0.00000000000E+00  0.15304714134E+04  0.15304714134E+04  0.00000000000E+00 0.  1.
         21   -1    0    0  503  502  0.00000000000E+00 -0.00000000000E+00 -0.39501955345E+03  0.39501955345E+03  0.00000000000E+00 0.  1.
         21    1    1    2  503  504 -0.57443036747E+02  0.78496156335E+02 -0.77300281486E+02  0.12424444675E+03  0.00000000000E+00 0.  1.
         21    1    1    2  504  501  0.21839786410E+03  0.15635048157E+02 -0.22148828857E+03  0.31144685542E+03  0.00000000000E+00 0.  1.
         21    1    1    2  505  502  0.67031015634E+02  0.35763289084E+02  0.79754026910E+03  0.80115082896E+03  0.00000000000E+00 0. -1.
          1    1    1    2  501    0 -0.22798584299E+03 -0.12989449358E+03  0.63670016093E+03  0.68864883576E+03  0.00000000000E+00 0.  1.
<scales pt_clust_3="96.95523" pt_clust_4="194.10973" pt_clust_5="75.97480" pt_clust_6="14000.00000"></scales>
<clustering>
<clus scale="   75.975">  1  5  2 -1</clus>
<clus scale="   96.955">  2  3  1 -1</clus>
<clus scale="  194.110">  2  4  1 -1</clus>
<clus scale="   96.955">  2  3  1 -1</clus>
</clustering>
</event>
<event>
 6    0  0.1361744E+002  0.1145043E+03  0.7546771E-02  0.1252449E+00
         21   -1    0    0  503  502  0.00000000000E+00  0.00000000000E+00  0.39168637904E+03  0.39168637904E+03  0.00000000000E+00 0. -1.
         -2   -1    0    0    0  501 -0.00000000000E+00 -0.00000000000E+00 -0.80726696261E+03  0.80726696261E+03  0.00000000000E+00 0.  1.
         21    1    1    2  503  504 -0.24246348512E+02 -0.26103248591E+02  0.21732008088E+03  0.22022098573E+03  0.00000000000E+00 0. -1.
         21    1    1    2  504  501 -0.10502731527E+03 -0.22525530320E+02 -0.60994867833E+03  0.61933474524E+03  0.00000000000E+00 0.  1.
         21    1    1    2  505  502 -0.53806180928E+02 -0.26749340755E+02  0.10689558436E+03  0.12262666224E+03  0.00000000000E+00 0. -1.
         -2    1    1    2    0  505  0.18307984471E+03  0.75378119667E+02 -0.12984757047E+03  0.23677094844E+03  0.00000000000E+00 0.  1.
<scales pt_clust_3="35.62675" pt_clust_4="114.50431" pt_clust_5="82.63303" pt_clust_6="14000.00000"></scales>
<clustering>
<clus scale="   35.627">  1  3  2 -1</clus>
<clus scale="   82.633">  1  5  2 -1</clus>
<clus scale="  114.504">  2  4  1 -1</clus>
<clus scale="   35.627">  1  3  2 -1</clus>
</clustering>
</event>
<event>
 6    0  0.1361744E+002  0.7935334E+02  0.7546771E-02  0.1330897E+00
         21   -1    0    0  503  502  0.00000000000E+00  0.00000000000E+00  0.79785802098E+03  0.79785802098E+03  0.00000000000E+00 0. -1.
          2   -1    0    0  505    0 -0.00000000000E+00 -0.00000000000E+00 -0.29377245555E+04  0.29377245555E+04  0.00000000000E+00 0. -1.
         21    1    1    2  503  504  0.17443635758E+02 -0.48949942330E+02  0.72720684580E+03  0.72906115921E+03  0.00000000000E+00 0. -1.
         21    1    1    2  504  501 -0.89935768720E+02 -0.20940349123E+02 -0.27639358639E+03  0.29141097323E+03  0.00000000000E+00 0. -1.
         21    1    1    2  505  502  0.50517008040E+02  0.59008914455E+01  0.51314880455E+02  0.72249606070E+02  0.00000000000E+00 0. -1.
          2    1    1    2  501    0  0.21975124922E+02  0.63989400008E+02 -0.26419946744E+04  0.26428608380E+04  0.00000000000E+00 0. -1.
<scales pt_clust_3="79.35334" pt_clust_4="14000.00000" pt_clust_5="50.86048" pt_clust_6="67.67053"></scales>
<clustering>
<clus scale="   50.860">  1  5  2 -1</clus>
<clus scale="   67.671">  2  6  1 -1</clus>
<clus scale="   79.353">  1  3  2 -1</clus>
<clus scale="   50.860">  1  3  2 -1</clus>
</clustering>
</event>
<event>
 6    0  0.1361744E+002  0.9217077E+02  0.7546771E-02  0.1297678E+00
         21   -1    0    0  503  502  0.00000000000E+00  0.00000000000E+00  0.93406050806E+02  0.93406050806E+02  0.00000000000E+00 0.  1.
          2   -1    0    0  504    0 -0.00000000000E+00 -0.00000000000E+00 -0.12883584641E+04  0.12883584641E+04  0.00000000000E+00 0.  1.
         21    1    1    2  503  501  0.84964371525E+02 -0.83546577498E+02  0.21236340265E+02  0.12103700751E+03  0.00000000000E+00 0.  1.
         21    1    1    2  504  505  0.21226528478E+02  0.34518861407E+02 -0.93539258968E+02  0.10193973844E+03  0.00000000000E+00 0.  1.
         21    1    1    2  505  502 -0.36243515975E+01  0.44825535271E+02 -0.16527437663E+02  0.47912636460E+02  0.00000000000E+00 0.  1.
          2    1    1    2  501    0 -0.10256654841E+03  0.42021808197E+01 -0.11061220569E+04  0.11108751325E+04  0.00000000000E+00 0.  1.
<scales pt_clust_3="92.17077" pt_clust_4="40.52305" pt_clust_5="45.86120" pt_clust_6="14000.00000"></scales>
<clustering>
<clus scale="   40.523">  2  4  1 -1</clus>
<clus scale="   45.861">  1  5  2 -1</clus>
<clus scale="   92.171">  1  3  2 -1</clus>
<clus scale="   45.861">  1  3  2 -1</clus>
</clustering>
</event>
<event>
 6    0  0.1361744E+002  0.1989695E+03  0.7546771E-02  0.1150611E+00
         21   -1    0    0  503  502  0.00000000000E+00  0.00000000000E+00  0.10570391406E+03  0.10570391406E+03  0.00000000000E+00 0.  1.
          4   -1    0    0  505    0 -0.00000000000E+00 -0.00000000000E+00 -0.58901743163E+03  0.58901743163E+03  0.00000000000E+00 0.  1.
         21    1    1    2  503  501  0.12988867443E+02  0.16271260102E+03 -0.27153085742E+03  0.31681715190E+03  0.00000000000E+00 0.  1.
         21    1    1    2  504  502  0.43025800149E+02 -0.39608624306E+02 -0.29340743453E+02  0.65428906642E+02  0.00000000000E+00 0.  1.
         21    1    1    2  505  504 -0.78132205018E+02 -0.15239084292E+03 -0.55021518250E+02  0.17987489524E+03  0.00000000000E+00 0.  1.
          4    1    1    2  501    0  0.22117537426E+02  0.29286866208E+02 -0.12742039844E+03  0.13260039191E+03  0.00000000000E+00 0.  1.
<scales pt_clust_3="32.56885" pt_clust_4="58.48130" pt_clust_5="186.73801" pt_clust_6="32.56885"></scales>
<clustering>
<clus scale="   32.569">  3  6 -1 -1</clus>
<clus scale="   58.481">  1  4  2 -1</clus>
<clus scale="  186.738">  1  5  2 -1</clus>
<clus scale="   58.481">  1  3  2 -1</clus>
</clustering>
</event>
<event>
 6    0  0.1361744E+002  0.1405295E+03  0.7546771E-02  0.1212618E+00
         21   -1    0    0  505  502  0.00000000000E+00  0.00000000000E+00  0.12519808258E+03  0.12519808258E+03  0.00000000000E+00 0.  1.
          2   -1    0    0  503    0 -0.00000000000E+00 -0.00000000000E+00 -0.13929751513E+04  0.13929751513E+04  0.00000000000E+00 0.  1.
         21    1    1    2  503  504 -0.36140858927E+02  0.43483486494E+02 -0.31064970271E+03  0.31575340549E+03  0.00000000000E+00 0.  1.
         21    1    1    2  504  502 -0.72207654733E+02  0.83783074211E+01 -0.50670623226E+02  0.88609556456E+02  0.00000000000E+00 0.  1.
         21    1    1    2  505  501  0.79327330785E+02 -0.15360540671E+03  0.26477634068E+02  0.17489571603E+03  0.00000000000E+00 0.  1.
          2    1    1    2  501    0  0.29021182875E+02  0.10174361279E+03 -0.93293437687E+03  0.93891455593E+03  0.00000000000E+00 0.  1.
<scales pt_clust_3="56.54180" pt_clust_4="75.37275" pt_clust_5="14000.00000" pt_clust_6="140.52955"></scales>
<clustering>
<clus scale="   56.542">  2  3  1 -1</clus>
<clus scale="   75.373">  1  4  2 -1</clus>
<clus scale="  140.530">  2  6  1 -1</clus>
<clus scale="   75.373">  1  3  2 -1</clus>
</clustering>
</event>
<event>
 6    0  0.1361744E+002  0.7490073E+02  0.7546771E-02  0.1344179E+00
         21   -1    0    0  503  502  0.00000000000E+00  0.00000000000E+00  0.89784164768E+03  0.89784164768E+03  0.00000000000E+00 0. -1.
         -2   -1    0    0    0  501 -0.00000000000E+00 -0.00000000000E+00 -0.15462283005E+03  0.15462283005E+03  0.00000000000E+00 0. -1.
         21    1    1    2  503  501  0.52987721266E+02  0.10371890454E+02 -0.12421085480E+02  0.55403592673E+02  0.00000000000E+00 0. -1.
         21    1    1    2  504  505  0.62848101666E+02  0.93328769700E+01  0.11493306965E+03  0.13132629963E+03  0.00000000000E+00 0. -1.
         21    1    1    2  505  502 -0.62574897756E+02 -0.49332643113E+02  0.74267665056E+03  0.74693904356E+03  0.00000000000E+00 0. -1.
         -2    1    1    2    0  504 -0.53260925176E+02  0.29627875689E+02 -0.10196981710E+03  0.11879554187E+03  0.00000000000E+00 0. -1.
<scales pt_clust_3="53.99328" pt_clust_4="14000.00000" pt_clust_5="74.90073" pt_clust_6="39.40662"></scales>
<clustering>
<clus scale="   53.993">  2  3  1 -1</clus>
<clus scale="   39.407">  2  6  1 -1</clus>
<clus scale="   74.901">  1  5  2 -1</clus>
<clus scale="   74.901">  1  3  2 -1</clus>
</clustering>
</event>
<event>
 6    0  0.1361744E+002  0.1514710E+03  0.7546771E-02  0.1198677E+00
         21   -1    0    0  505  502  0.00000000000E+00  0.00000000000E+00  0.78962981094E+03  0.78962981094E+03  0.00000000000E+00 0.  1.
         -2   -1    0    0    0  501 -0.00000000000E+00 -0.00000000000E+00 -0.34620481231E+03  0.34620481231E+03  0.00000000000E+00 0.  1.
         21    1    1    2  503  502  0.79610640298E+02 -0.47786491694E+02 -0.13129667740E+03  0.16081113249E+03  0.00000000000E+00 0. -1.
         21    1    1    2  504  501 -0.29312313352E+02  0.18183315591E+02  0.94776953989E+02  0.10085888998E+03  0.00000000000E+00 0.  1.
         21    1    1    2  505  504 -0.61535948902E+02  0.93699826077E+02  0.66687506451E+03  0.67623123417E+03  0.00000000000E+00 0.  1.
         -2    1    1    2    0  503  0.11237621955E+02 -0.64096649975E+02 -0.18693034246E+03  0.19793336661E+03  0.00000000000E+00 0.  1.
<scales pt_clust_3="141.27792" pt_clust_4="30.30200" pt_clust_5="30.30200" pt_clust_6="65.07430"></scales>
<clustering>
<clus scale="   30.302">  4  5 -1 -1</clus>
<clus scale="   65.074">  2  6  1 -1</clus>
<clus scale="  141.278">  2  3  1 -1</clus>
<clus scale="  151.471">  1  3  2 -1</clus>
</clustering>
</event>
<event>
 6    0  0.1361744E+002  0.1289332E+03  0.7546771E-02  0.1229047E+00
         21   -1    0    0  501  502  0.00000000000E+00  0.00000000000E+00  0.25874446108E+04  0.25874446108E+04  0.00000000000E+00 0. -1.
          2   -1    0    0  505    0 -0.00000000000E+00 -0.00000000000E+00 -0.41469046136E+02  0.41469046136E+02  0.00000000000E+00 0. -1.
         21    1    1    2  503  502 -0.51742887377E+02 -0.12219312387E+03  0.16063969661E+04  0.16118683875E+04  0.00000000000E+00 0. -1.
         21    1    1    2  504  503  0.10750623657E+03  0.80220689782E+02  0.92327450725E+03  0.93296771954E+03  0.00000000000E+00 0. -1.
         21    1    1    2  505  504 -0.24957820801E+02  0.41016198536E+02  0.21869288147E+02  0.52758763495E+02  0.00000000000E+00 0. -1.
          2    1    1    2  501    0 -0.30805528397E+02  0.95623555059E+00 -0.55651968282E+01  0.31318786407E+02  0.00000000000E+00 0. -1.
<scales pt_clust_3="14000.00000" pt_clust_4="128.93323" pt_clust_5="61.77794" pt_clust_6="30.82037"></scales>
<clustering>
<clus scale="   30.820">  2  6  1 -1</clus>
<clus scale="   61.778">  2  5  1 -1</clus>
<clus scale="  128.933">  2  4  1 -1</clus>
<clus scale="  128.933">  1  3  2 -1</clus>
</clustering>
</event>
<event>
 6    0  0.1361744E+002  0.2651691E+03  0.7546771E-02  0.1104077E+00
         21   -1    0    0  505  502  0.00000000000E+00  0.00000000000E+00  0.14496123576E+04  0.14496123576E+04  0.00000000000E+00 0. -1.
          1   -1    0    0  503    0 -0.00000000000E+00 -0.00000000000E+00 -0.20307562952E+03  0.20307562952E+03  0.00000000000E+00 0. -1.
         21    1    1    2  503  502  0.12605485928E+03 -0.17384368010E+03  0.11415640225E+04  0.11615850680E+04  0.00000000000E+00 0. -1.
         21    1    1    2  504  501 -0.75492411848E+02  0.65456485086E+02  0.72175758145E+01  0.10017858597E+03  0.00000000000E+00 0. -1.
         21    1    1    2  505  504  0.63689707759E+02  0.46348170948E+01  0.19723141622E+03  0.20731158180E+03  0.00000000000E+00 0. -1.
          1    1    1    2  501    0 -0.11425215519E+03  0.10375237792E+03 -0.99476286478E+02  0.18361275136E+03  0.00000000000E+00 0. -1.
<scales pt_clust_3="250.84547" pt_clust_4="68.83752" pt_clust_5="63.85813" pt_clust_6="68.83752"></scales>
<clustering>
<clus scale="   63.858">  1  5  2 -1</clus>
<clus scale="   68.838">  4  6 -1 -1</clus>
<clus scale="  250.845">  1  3  2 -1</clus>
<clus scale="   63.858">  1  3  2 -1</clus>
</clustering>
</event>
<event>
 6    0  0.1361744E+002  0.2007831E+03  0.7546771E-02  0.1149080E+00
         21   -1    0    0  503  502  0.00000000000E+00  0.00000000000E+00  0.59154839589E+02  0.59154839589E+02  0.00000000000E+00 0.  1.
          2   -1    0    0  504    0 -0.00000000000E+00 -0.00000000000E+00 -0.89738146784E+03  0.89738146784E+03  0.00000000000E+00 0. -1.
         21    1    1    2  503  501  0.38931951808E+02 -0.62443465424E+01 -0.28104677526E+02  0.48420673623E+02  0.00000000000E+00 0.  1.
         21    1    1    2  504  505 -0.10712919639E+03  0.38529588339E+02 -0.17530849246E+03  0.20903172349E+03  0.00000000000E+00 0.  1.
         21    1    1    2  505  502 -0.97285552915E+02 -0.53791489411E+02 -0.15249543261E+03  0.18871369878E+03  0.00000000000E+00 0.  1.
          2    1    1    2  501    0  0.16548279750E+03  0.21506247614E+02 -0.48231802565E+03  0.51037021153E+03  0.00000000000E+00 0. -1.
<scales pt_clust_3="39.42954" pt_clust_4="93.21313" pt_clust_5="93.21313" pt_clust_6="177.72495"></scales>
<clustering>
<clus scale="   39.430">  1  3  2 -1</clus>
<clus scale="   93.213">  4  5 -1 -1</clus>
<clus scale="  177.725">  2  6  1 -1</clus>
<clus scale="   39.430">  1  3  2 -1</clus>
</clustering>
</event>
<event>
 6    0  0.1361744E+002  0.1645115E+03  0.7546771E-02  0.1183695E+00
          2   -1    0    0  503    0 -0.00000000000E+00  0.00000000000E+00  0.32134545068E+03  0.32134545068E+03  0.00000000000E+00 0. -1.
         21   -1    0    0  505  502  0.00000000000E+00 -0.00000000000E+00 -0.11193431313E+04  0.11193431313E+04  0.00000000000E+00 0. -1.
         21    1    1    2  503  502 -0.60919729066E+02  0.42291585898E+02  0.67305754099E+02  0.10014916955E+03  0.00000000000E+00 0.  1.
         21    1    1    2  504  501  0.14725921521E+02 -0.57370467116E+02 -0.50841066861E+03  0.51184922704E+03  0.00000000000E+00 0. -1.
         21    1    1    2  505  504  0.92874900379E+02 -0.46072659375E+02 -0.58181236109E+03  0.59097720817E+03  0.00000000000E+00 0. -1.
          2    1    1    2  501    0 -0.46681092834E+02  0.61151540593E+02  0.22491959496E+03  0.23771297723E+03  0.00000000000E+00 0. -1.
<scales pt_clust_3="74.16058" pt_clust_4="55.34490" pt_clust_5="55.34490" pt_clust_6="147.31790"></scales>
<clustering>
<clus scale="   55.345">  4  5 -1 -1</clus>
<clus scale="   74.161">  1  3  2 -1</clus>
<clus scale="  147.318">  1  6  2 -1</clus>
<clus scale="  164.512">  2  3  1 -1</clus>
</clustering>
</event>
<event>
 6    0  0.1361744E+002  0.1196206E+03  0.7546771E-02  0.1243724E+00
          1   -1    0    0  503    0 -0.00000000000E+00  0.00000000000E+00  0.19977706770E+04  0.19977706770E+04  0.00000000000E+00 0. -1.
         21   -1    0    0  501  502  0.00000000000E+00 -0.00000000000E+00 -0.35778697098E+03  0.35778697098E+03  0.00000000000E+00 0. -1.
         21    1    1    2  503  504  0.44548406561E+02  0.56109743001E+02  0.17191882729E+04  0.17206804414E+04  0.00000000000E+00 0. -1.
         21    1    1    2  504  505  0.72234323409E+02 -0.92116408489E+02 -0.64256589822E+02  0.13353703429E+03  0.00000000000E+00 0. -1.
         21    1    1    2  505  502 -0.22552579604E+02 -0.22880161310E+02 -0.24434506573E+03  0.24644803057E+03  0.00000000000E+00 0. -1.
          1    1    1    2  501    0 -0.94230150365E+02  0.58886826798E+02  0.22939708868E+03  0.25489214170E+03  0.00000000000E+00 0. -1.
<scales pt_clust_3="71.43197" pt_clust_4="119.62064" pt_clust_5="32.12663" pt_clust_6="14000.00000"></scales>
<clustering>
<clus scale="   32.127">  2  5  1 -1</clus>
<clus scale="   71.432">  1  3  2 -1</clus>
<clus scale="  119.621">  2  4  1 -1</clus>
<clus scale="   32.127">  2  3  1 -1</clus>
</clustering>
</event>
<event>
 6    0  0.1361744E+002  0.2480378E+03  0.7546771E-02  0.1114551E+00
          1   -1    0    0  504    0 -0.00000000000E+00  0.00000000000E+00  0.85918301254E+03  0.85918301254E+03  0.00000000000E+00 0.  1.
         21   -1    0    0  505  502  0.00000000000E+00 -0.00000000000E+00 -0.12921125682E+03  0.12921125682E+03  0.00000000000E+00 0.  1.
         21    1    1    2  503  501 -0.98160541120E+02 -0.24990537990E+01  0.28053803019E+03  0.29722604779E+03  0.00000000000E+00 0.  1.
         21    1    1    2  504  502  0.39524849219E+02 -0.24818059415E+02  0.42233150824E+02  0.62942742293E+02  0.00000000000E+00 0.  1.
         21    1    1    2  505  503  0.17898902779E+03  0.12333023286E+03  0.28248842829E+02  0.21919264478E+03  0.00000000000E+00 0.  1.
          1    1    1    2  501    0 -0.12035333589E+03 -0.96013119647E+02  0.37895173188E+03  0.40903283450E+03  0.00000000000E+00 0.  1.
<scales pt_clust_3="63.49055" pt_clust_4="46.67065" pt_clust_5="234.73566" pt_clust_6="63.49055"></scales>
<clustering>
<clus scale="   46.671">  2  4  1 -1</clus>
<clus scale="   63.491">  3  6 -1 -1</clus>
<clus scale="  234.736">  2  5  1 -1</clus>
<clus scale="   46.671">  2  3  1 -1</clus>
</clustering>
</event>
<event>
 6    0  0.1361744E+002  0.1302602E+03  0.7546771E-02  0.1227070E+00
         21   -1    0    0  505  502  0.00000000000E+00  0.00000000000E+00  0.26372388140E+02  0.26372388140E+02  0.00000000000E+00 0. -1.
          1   -1    0    0  504    0 -0.00000000000E+00 -0.00000000000E+00 -0.29128633914E+04  0.29128633914E+04  0.00000000000E+00 0. -1.
         21    1    1    2  503  502  0.28343725741E+02 -0.14131050745E+02 -0.61273454440E+02  0.68974557650E+02  0.00000000000E+00 0.  1.
         21    1    1    2  504  503 -0.46764161147E+02  0.28140126717E+02 -0.51119714180E+03  0.51410239378E+03  0.00000000000E+00 0. -1.
         21    1    1    2  505  501 -0.19400836634E+02  0.13838066956E+03 -0.25183210483E+03  0.28800175554E+03  0.00000000000E+00 0. -1.
          1    1    1    2  501    0  0.37821272040E+02 -0.15238974553E+03 -0.20621883022E+04  0.20681570725E+04  0.00000000000E+00 0. -1.
<scales pt_clust_3="31.67102" pt_clust_4="52.54188" pt_clust_5="130.26022" pt_clust_6="14000.00000"></scales>
<clustering>
<clus scale="   31.671">  1  3  2 -1</clus>
<clus scale="   52.542">  2  4  1 -1</clus>
<clus scale="  130.260">  1  5  2 -1</clus>
<clus scale="   31.671">  1  3  2 -1</clus>
</clustering>
</event>
<event>
 6    0  0.1361744E+002  0.9511243E+02  0.7546771E-02  0.1290923E+00
          2   -1    0    0  505    0 -0.00000000000E+00  0.00000000000E+00  0.74466229724E+02  0.74466229724E+02  0.00000000000E+00 0. -1.
         21   -1    0    0  501  502  0.00000000000E+00 -0.00000000000E+00 -0.70609952259E+03  0.70609952259E+03  0.00000000000E+00 0. -1.
         21    1    1    2  503  504  0.49895898922E+02 -0.38426287751E+02 -0.70744462374E+02  0.94715148081E+02  0.00000000000E+00 0. -1.
         21    1    1    2  504  502 -0.33404534549E+02 -0.91635413491E+02 -0.50922503529E+03  0.51848148327E+03  0.00000000000E+00 0. -1.
         21    1    1    2  505  503  0.20061179193E+02  0.44580672955E+02 -0.55954341892E+02  0.74301922507E+02  0.00000000000E+00 0. -1.
          2    1    1    2  501    0 -0.36552543566E+02  0.85481028287E+02  0.42905466811E+01  0.93067198459E+02  0.00000000000E+00 0. -1.
<scales pt_clust_3="61.52461" pt_clust_4="95.11243" pt_clust_5="48.88647" pt_clust_6="14000.00000"></scales>
<clustering>
<clus scale="   48.886">  1  5  2 -1</clus>
<clus scale="   61.525">  1  3  2 -1</clus>
<clus scale="   95.112">  2  4  1 -1</clus>
<clus scale="   95.112">  2  3  1 -1</clus>
</clustering>
</event>
<event>
 6    0  0.1361744E+002  0.1576761E+03  0.7546771E-02  0.1191346E+00
         21   -1    0    0  505  502  0.00000000000E+00  0.00000000000E+00  0.30646550475E+03  0.30646550475E+03  0.00000000000E+00 0.  1.
          3   -1    0    0  503    0 -0.00000000000E+00 -0.00000000000E+00 -0.59141270610E+03  0.59141270610E+03  0.00000000000E+00 0.  1.
         21    1    1    2  503  502  0.29536021085E+02  0.60059220291E+02 -0.37847545915E+03  0.38434770672E+03  0.00000000000E+00 0.  1.
         21    1    1    2  504  501 -0.70330427997E+02 -0.37707629572E+02  0.95383827873E+02  0.12436361626E+03  0.00000000000E+00 0.  1.
         21    1    1    2  505  504 -0.72835232646E+02 -0.29847816275E+02  0.16750707426E+03  0.18507966711E+03  0.00000000000E+00 0.  1.
          3    1    1    2  501    0  0.11362963956E+03  0.74962255562E+01 -0.16936264433E+03  0.20408722076E+03  0.00000000000E+00 0.  1.
<scales pt_clust_3="66.92897" pt_clust_4="39.51960" pt_clust_5="39.51960" pt_clust_6="152.57257"></scales>
<clustering>
<clus scale="   39.520">  4  5 -1 -1</clus>
<clus scale="   66.929">  2  3  1 -1</clus>
<clus scale="  152.573">  2  6  1 -1</clus>
<clus scale="  157.676">  1  3  2 -1</clus>
</clustering>
</event>
<event>
 6    0  0.1361744E+002  0.1110572E+03  0.7546771E-02  0.1258625E+00
          1   -1    0    0  504    0 -0.00000000000E+00  0.00000000000E+00  0.10924348907E+04  0.10924348907E+04  0.00000000000E+00 0.  1.
         21   -1    0    0  505  502  0.00000000000E+00 -0.00000000000E+00 -0.24877294653E+03  0.24877294653E+03  0.00000000000E+00 0. -1.
         21    1    1    2  503  501 -0.11140903607E+03  0.12232755468E+02 -0.18196041102E+03  0.21370822352E+03  0.00000000000E+00 0. -1.
         21    1    1    2  504  502  0.57986216007E+02 -0.32108763928E+02  0.43857473490E+02  0.79478625735E+02  0.00000000000E+00 0.  1.
         21    1    1    2  505  503 -0.34107228518E+02  0.23111105267E+02 -0.17616838756E+02  0.44808249594E+02  0.00000000000E+00 0.  1.
          1    1    1    2  501    0  0.87530048585E+02 -0.32350968067E+01  0.99938172041E+03  0.10032127383E+04  0.00000000000E+00 0.  1.
<scales pt_clust_3="41.01157" pt_clust_4="66.28253" pt_clust_5="41.01157" pt_clust_6="88.08058"></scales>
<clustering>
<clus scale="   41.012">  3  5 -1 -1</clus>
<clus scale="   66.283">  2  4  1 -1</clus>
<clus scale="   88.081">  1  6  2 -1</clus>
<clus scale="   66.283">  2  3  1 -1</clus>
</clustering>
</event>
<event>
 6    0  0.1361744E+002  0.2155880E+03  0.7546771E-02  0.1137216E+00
          2   -1    0    0  503    0 -0.00000000000E+00  0.00000000000E+00  0.33640226343E+04  0.33640226343E+04  0.00000000000E+00 0. -1.
         21   -1    0    0  501  502  0.00000000000E+00 -0.00000000000E+00 -0.14318635822E+03  0.14318635822E+03  0.00000000000E+00 0.  1.
         21    1    1    2  503  504  0.13042339950E+01 -0.63710700508E+02  0.19020755783E+04  0.19031427325E+04  0.00000000000E+00 0. -1.
         21    1    1    2  504  505 -0.42687373682E+02  0.81186593026E+02  0.13412454413E+02  0.92700424446E+02  0.00000000000E+00 0. -1.
         21    1    1    2  505  502  0.22717864402E+02  0.11218720818E+03 -0.67098637255E+02  0.13268118994E+03  0.00000000000E+00 0.  1.
          2    1    1    2  501    0  0.18665275285E+02 -0.12966310070E+03  0.13724468806E+04  0.13786846457E+04  0.00000000000E+00 0. -1.
<scales pt_clust_3="63.72405" pt_clust_4="89.59294" pt_clust_5="89.59294" pt_clust_6="190.67181"></scales>
<clustering>
<clus scale="   63.724">  1  3  2 -1</clus>
<clus scale="   89.593">  4  5 -1 -1</clus>
<clus scale="  190.672">  1  6  2 -1</clus>
<clus scale="  215.588">  2  3  1 -1</clus>
</clustering>
</event>
<event>
 6    0  0.1361744E+002  0.1625923E+03  0.7546771E-02  0.1185801E+00
          2   -1    0    0  504    0 -0.00000000000E+00  0.00000000000E+00  0.76759605352E+03  0.76759605352E+03  0.00000000000E+00 0.  1.
         21   -1    0    0  505  502  0.00000000000E+00 -0.00000000000E+00 -0.37169417416E+03  0.37169417416E+03  0.00000000000E+00 0.  1.
         21    1    1    2  503  502 -0.44318370301E+02 -0.39116739535E+02 -0.19419251883E+02  0.62220130197E+02  0.00000000000E+00 0.  1.
         21    1    1    2  504  503 -0.56256331754E+02  0.79782124699E+00 -0.29019088616E+01  0.56336777119E+02  0.00000000000E+00 0.  1.
         21    1    1    2  505  501 -0.62756781470E+02  0.57958540315E+02 -0.28551615016E+03  0.29802194217E+03  0.00000000000E+00 0.  1.
          2    1    1    2  501    0  0.16333148352E+03 -0.19639622028E+02  0.70373919026E+03  0.72271137819E+03  0.00000000000E+00 0.  1.
<scales pt_clust_3="43.34426" pt_clust_4="43.34426" pt_clust_5="85.42603" pt_clust_6="156.40448"></scales>
<clustering>
<clus scale="   43.344">  3  4 -1 -1</clus>
<clus scale="   85.426">  2  5  1 -1</clus>
<clus scale="  156.404">  1  6  2 -1</clus>
<clus scale="   85.426">  2  3  1 -1</clus>
</clustering>
</event>
<event>
 6    0  0.1361744E+002  0.1293116E+03  0.7546771E-02  0.1228481E+00
          2   -1    0    0  503    0 -0.00000000000E+00  0.00000000000E+00  0.22653798635E+04  0.22653798635E+04  0.00000000000E+00 0. -1.
         21   -1    0    0  504  502  0.00000000000E+00 -0.00000000000E+00 -0.21940052782E+03  0.21940052782E+03  0.00000000000E+00 0.  1.
         21    1    1    2  503  505  0.56602420582E+02 -0.43013460760E+02  0.18386756653E+04  0.18400495086E+04  0.00000000000E+00 0. -1.
         21    1    1    2  504  501  0.66869339094E+02  0.79249708842E+02 -0.41155614773E+02  0.11156078832E+03  0.00000000000E+00 0.  1.
         21    1    1    2  505  502 -0.14516996539E+03  0.27888376602E+02 -0.99821241601E+02  0.17837141216E+03  0.00000000000E+00 0.  1.
          2    1    1    2  501    0  0.21698205715E+02 -0.64124624684E+02  0.34828052670E+03  0.35479868221E+03  0.00000000000E+00 0. -1.
<scales pt_clust_3="129.31159" pt_clust_4="103.05340" pt_clust_5="14000.00000" pt_clust_6="67.69623"></scales>
<clustering>
<clus scale="   67.696">  1  6  2 -1</clus>
<clus scale="  103.053">  2  4  1 -1</clus>
<clus scale="  129.312">  1  3  2 -1</clus>
<clus scale="  103.053">  2  3  1 -1</clus>
</clustering>
</event>
<event>
 6    0  0.1361744E+002  0.1199352E+03  0.7546771E-02  0.1243204E+00
         21   -1    0    0  504  502  0.00000000000E+00  0.00000000000E+00  0.39763078270E+03  0.39763078270E+03  0.00000000000E+00 0. -1.
          2   -1    0    0  505    0 -0.00000000000E+00 -0.00000000000E+00 -0.19341494067E+04  0.19341494067E+04  0.00000000000E+00 0.  1.
         21    1    1    2  503  502 -0.60922454708E+02  0.14145461421E+03  0.16634090007E+02  0.15491173719E+03  0.00000000000E+00 0. -1.
         21    1    1    2  504  501 -0.18785282886E+02 -0.11613719566E+03  0.29476647748E+03  0.31737676556E+03  0.00000000000E+00 0. -1.
         21    1    1    2  505  503  0.11347886620E+01 -0.46531478293E+02 -0.10717319439E+03  0.11684416893E+03  0.00000000000E+00 0.  1.
          2    1    1    2  501    0  0.78572948931E+02  0.21214059742E+02 -0.17407459971E+04  0.17426475177E+04  0.00000000000E+00 0.  1.
<scales pt_clust_3="14000.00000" pt_clust_4="119.93516" pt_clust_5="46.54531" pt_clust_6="82.98502"></scales>
<clustering>
<clus scale="   46.545">  2  5  1 -1</clus>
<clus scale="   82.985">  2  6  1 -1</clus>
<clus scale="  119.935">  1  4  2 -1</clus>
<clus scale="  119.935">  1  3  2 -1</clus>
</clustering>
</event>
<event>
 6    0  0.1361744E+002  0.1329292E+03  0.7546771E-02  0.1223173E+00
         -1   -1    0    0    0  501 -0.00000000000E+00  0.00000000000E+00  0.10084818644E+03  0.10084818644E+03  0.00000000000E+00 0.  1.
         21   -1    0    0  504  502  0.00000000000E+00 -0.00000000000E+00 -0.52734502838E+03  0.52734502838E+03  0.00000000000E+00 0. -1.
         21    1    1    2  503  502 -0.39226121594E+02 -0.47820490180E+02  0.43098638242E+00  0.61852030247E+02  0.00000000000E+00 0.  1.
         21    1    1    2  504  505  0.18964816361E+02  0.38859382513E+02 -0.22424481227E+03  0.22837568106E+03  0.00000000000E+00 0. -1.
         21    1    1    2  505  501  0.65464722754E+02  0.54355632304E+02 -0.24622074368E+03  0.26050877011E+03  0.00000000000E+00 0. -1.
         -1    1    1    2    0  503 -0.45203417521E+02 -0.45394524637E+02  0.43537727630E+02  0.77456733405E+02  0.00000000000E+00 0.  1.
<scales pt_clust_3="39.98884" pt_clust_4="30.68449" pt_clust_5="30.68449" pt_clust_6="132.18806"></scales>
<clustering>
<clus scale="   30.684">  4  5 -1 -1</clus>
<clus scale="   39.989">  3  6 -1 -1</clus>
<clus scale="  132.188">  1  3  2 -1</clus>
<clus scale="  132.929">  2  3  1 -1</clus>
</clustering>
</event>
<event>
 6    0  0.1361744E+002  0.1012555E+03  0.7546771E-02  0.1277678E+00
          2   -1    0    0  503    0 -0.00000000000E+00  0.00000000000E+00  0.29496139839E+04  0.29496139839E+04  0.00000000000E+00 0.  1.
         21   -1    0    0  505  502  0.00000000000E+00 -0.00000000000E+00 -0.19885965853E+02  0.19885965853E+02  0.00000000000E+00 0.  1.
         21    1    1    2  503  504  0.87615042880E+01 -0.59070487497E+02  0.10415372566E+03  0.12005867324E+03  0.00000000000E+00 0.  1.
         21    1    1    2  504  502 -0.20183438799E+02 -0.37292516821E+02  0.37147584389E+02  0.56374161089E+02  0.00000000000E+00 0.  1.
         21    1    1    2  505  501  0.67356604422E+02  0.47471211213E+02  0.11445519631E+04  0.11475145421E+04  0.00000000000E+00 0.  1.
          2    1    1    2  501    0 -0.55934669911E+02  0.48891793105E+02  0.16438747449E+04  0.16455525734E+04  0.00000000000E+00 0.  1.
<scales pt_clust_3="35.21293" pt_clust_4="35.21293" pt_clust_5="92.23055" pt_clust_6="74.29061"></scales>
<clustering>
<clus scale="   35.213">  3  4 -1 -1</clus>
<clus scale="   74.291">  1  6  2 -1</clus>
<clus scale="   92.231">  1  5  2 -1</clus>
<clus scale="  101.255">  2  3  1 -1</clus>
</clustering>
</event>
<event>
 6    0  0.1361744E+002  0.2661356E+03  0.7546771E-02  0.1103512E+00
         21   -1    0    0  504  502  0.00000000000E+00  0.00000000000E+00  0.24601302327E+03  0.24601302327E+03  0.00000000000E+00 0. -1.
          2   -1    0    0  503    0 -0.00000000000E+00 -0.00000000000E+00 -0.11700883825E+04  0.11700883825E+04  0.00000000000E+00 0. -1.
         21    1    1    2  503  502  0.11207516995E+03 -0.19765760114E+03  0.16099956345E+03  0.27847842006E+03  0.00000000000E+00 0. -1.
         21    1    1    2  504  505  0.57947761300E+01 -0.29501918591E+02 -0.13373257039E+02  0.32905723435E+02  0.00000000000E+00 0. -1.
         21    1    1    2  505  501 -0.87303407055E+02  0.90286259385E+02 -0.43593886009E+03  0.45366968518E+03  0.00000000000E+00 0. -1.
          2    1    1    2  501    0 -0.30566539029E+02  0.13687326035E+03 -0.63576280551E+03  0.65104757704E+03  0.00000000000E+00 0. -1.
<scales pt_clust_3="253.90387" pt_clust_4="30.06564" pt_clust_5="75.45203" pt_clust_6="75.45203"></scales>
<clustering>
<clus scale="   30.066">  1  4  2 -1</clus>
<clus scale="   75.452">  5  6 -1 -1</clus>
<clus scale="  253.904">  1  3  2 -1</clus>
<clus scale="   30.066">  1  3  2 -1</clus>
</clustering>
</event>
<event>
 6    0  0.1361744E+002  0.8180343E+02  0.7546771E-02  0.1324010E+00
          3   -1    0    0  504    0 -0.00000000000E+00  0.00000000000E+00  0.28728974968E+03  0.28728974968E+03  0.00000000000E+00 0. -1.
         21   -1    0    0  503  502  0.00000000000E+00 -0.00000000000E+00 -0.13140699040E+04  0.13140699040E+04  0.00000000000E+00 0. -1.
         21    1    1    2  503  501 -0.82246826917E+01 -0.81887902436E+02 -0.69653626127E+02  0.10781883696E+03  0.00000000000E+00 0. -1.
         21    1    1    2  504  505 -0.88580293134E+02  0.44670434680E+02 -0.76929726206E+03  0.77566757923E+03  0.00000000000E+00 0. -1.
         21    1    1    2  505  502  0.15262439100E+02  0.42668270764E+02 -0.44537374867E+03  0.44767320602E+03  0.00000000000E+00 0. -1.
          3    1    1    2  501    0  0.81542536725E+02 -0.54508030077E+01  0.25754448251E+03  0.27020003150E+03  0.00000000000E+00 0. -1.
<scales pt_clust_3="77.80947" pt_clust_4="14000.00000" pt_clust_5="45.31582" pt_clust_6="81.80343"></scales>
<clustering>
<clus scale="   45.316">  2  5  1 -1</clus>
<clus scale="   77.809">  2  3  1 -1</clus>
<clus scale="   81.803">  1  6  2 -1</clus>
<clus scale="   45.316">  2  3  1 -1</clus>
</clustering>
</event>
<event>
 6    0  0.1361744E+002  0.2406299E+03  0.7546771E-02  0.1119374E+00
          2   -1    0    0  503    0 -0.00000000000E+00  0.00000000000E+00  0.21740326465E+04  0.21740326465E+04  0.00000000000E+00 0.  1.
         21   -1    0    0  505  502  0.00000000000E+00 -0.00000000000E+00 -0.27552578441E+03  0.27552578441E+03  0.00000000000E+00 0. -1.
         21    1    1    2  503  504 -0.11029032128E+03 -0.14938725608E+03  0.45583902860E+03  0.49220902799E+03  0.00000000000E+00 0.  1.
         21    1    1    2  504  502 -0.88258944100E+02 -0.93822453720E+02 -0.19379972672E+03  0.23270287517E+03  0.00000000000E+00 0. -1.
         21    1    1    2  505  501  0.14776325812E+02  0.38189741621E+02 -0.19916645234E+02  0.45535359085E+02  0.00000000000E+00 0. -1.
          2    1    1    2  501    0  0.18377293957E+03  0.20501996818E+03  0.16563842055E+04  0.16791111687E+04  0.00000000000E+00 0.  1.
<scales pt_clust_3="240.62988" pt_clust_4="96.44135" pt_clust_5="40.94870" pt_clust_6="14000.00000"></scales>
<clustering>
<clus scale="   40.949">  2  5  1 -1</clus>
<clus scale="   96.441">  2  4  1 -1</clus>
<clus scale="  240.630">  2  3  1 -1</clus>
<clus scale="   40.949">  2  3  1 -1</clus>
</clustering>
</event>
<event>
 6    0  0.1361744E+002  0.6530279E+03  0.7546771E-02  0.9801114E-01
          2   -1    0    0  504    0 -0.00000000000E+00  0.00000000000E+00  0.96311686659E+03  0.96311686659E+03  0.00000000000E+00 0. -1.
         21   -1    0    0  503  502  0.00000000000E+00 -0.00000000000E+00 -0.65861158363E+03  0.65861158363E+03  0.00000000000E+00 0. -1.
         21    1    1    2  503  501 -0.14048225293E+03 -0.19043721618E+03  0.27478446823E+03  0.36264045647E+03  0.00000000000E+00 0. -1.
         21    1    1    2  504  505  0.32822462668E+02  0.86460494201E+02 -0.15397279203E+02  0.93753972289E+02  0.00000000000E+00 0. -1.
         21    1    1    2  505  502  0.42029818315E+03  0.36337199401E+03 -0.30077604203E+03  0.63178793613E+03  0.00000000000E+00 0. -1.
          2    1    1    2  501    0 -0.31263839289E+03 -0.25939527203E+03  0.34589413597E+03  0.53354608531E+03  0.00000000000E+00 0. -1.
<scales pt_clust_3="77.23732" pt_clust_4="55.90739" pt_clust_5="55.90739" pt_clust_6="646.45834"></scales>
<clustering>
<clus scale="   55.907">  4  5 -1 -1</clus>
<clus scale="   77.237">  3  6 -1 -1</clus>
<clus scale="  646.458">  1  3  2 -1</clus>
<clus scale="  653.028">  2  3  1 -1</clus>
</clustering>
</event>
<event>
 6    0  0.1361744E+002  0.2142521E+03  0.7546771E-02  0.1138242E+00
         21   -1    0    0  504  502  0.00000000000E+00  0.00000000000E+00  0.55943831557E+03  0.55943831557E+03  0.00000000000E+00 0. -1.
          4   -1    0    0  505    0 -0.00000000000E+00 -0.00000000000E+00 -0.34475789761E+03  0.34475789761E+03  0.00000000000E+00 0.  1.
         21    1    1    2  503  502 -0.34322141970E+02  0.24253825653E+02  0.28157729347E+02  0.50587698210E+02  0.00000000000E+00 0.  1.
         21    1    1    2  504  501 -0.80672753958E+02  0.15855158264E+03  0.40986559762E+03  0.44680701170E+03  0.00000000000E+00 0. -1.
         21    1    1    2  505  503  0.35448886711E+02  0.66376736032E+02 -0.27807351223E+02  0.80223085439E+02  0.00000000000E+00 0.  1.
          4    1    1    2  501    0  0.79546009217E+02 -0.24918214433E+03 -0.19553555779E+03  0.32657841783E+03  0.00000000000E+00 0.  1.
<scales pt_clust_3="42.02687" pt_clust_4="214.25211" pt_clust_5="75.54211" pt_clust_6="14000.00000"></scales>
<clustering>
<clus scale="   42.027">  1  3  2 -1</clus>
<clus scale="   75.542">  2  5  1 -1</clus>
<clus scale="  214.252">  1  4  2 -1</clus>
<clus scale="   42.027">  1  3  2 -1</clus>
</clustering>
</event>
<event>
 6    0  0.1361744E+002  0.1270260E+03  0.7546771E-02  0.1231936E+00
         21   -1    0    0  503  502  0.00000000000E+00  0.00000000000E+00  0.71276328031E+02  0.71276328031E+02  0.00000000000E+00 0. -1.
          2   -1    0    0  504    0 -0.00000000000E+00 -0.00000000000E+00 -0.17183732156E+04  0.17183732156E+04  0.00000000000E+00 0. -1.
         21    1    1    2  503  505  0.34946454784E+01  0.46321259061E+02 -0.19692141788E+02  0.50454455068E+02  0.00000000000E+00 0. -1.
         21    1    1    2  504  502 -0.29854914128E+02  0.53148833742E+01  0.40307358769E+02  0.50440529873E+02  0.00000000000E+00 0. -1.
         21    1    1    2  505  501 -0.30115735775E+02  0.49901241281E+02 -0.92951444722E+02  0.10971354747E+03  0.00000000000E+00 0. -1.
          2    1    1    2  501    0  0.56476004425E+02 -0.10153738372E+03 -0.15747606598E+04  0.15790410112E+04  0.00000000000E+00 0. -1.
<scales pt_clust_3="48.66517" pt_clust_4="30.32431" pt_clust_5="48.66517" pt_clust_6="114.62048"></scales>
<clustering>
<clus scale="   30.324">  1  4  2 -1</clus>
<clus scale="   48.665">  3  5 -1 -1</clus>
<clus scale="  114.620">  2  6  1 -1</clus>
<clus scale="   30.324">  1  3  2 -1</clus>
</clustering>
</event>
<event>
 6    0  0.1361744E+002  0.1036485E+03  0.7546771E-02  0.1272805E+00
          2   -1    0    0  503    0 -0.00000000000E+00  0.00000000000E+00  0.17280175807E+04  0.17280175807E+04  0.00000000000E+00 0.  1.
         21   -1    0    0  504  502  0.00000000000E+00 -0.00000000000E+00 -0.70595891406E+02  0.70595891406E+02  0.00000000000E+00 0. -1.
         21    1    1    2  503  502  0.38134491544E+02 -0.24435896682E+02  0.68514539230E+02  0.82131568704E+02  0.00000000000E+00 0.  1.
         21    1    1    2  504  505 -0.76680774017E+02  0.35446989704E+02 -0.98205635302E+01  0.85046302983E+02  0.00000000000E+00 0. -1.
         21    1    1    2  505  501 -0.67514257343E+02  0.11010583455E+02  0.66563097517E+02  0.95446602054E+02  0.00000000000E+00 0. -1.
          2    1    1    2  501    0  0.10606053982E+03 -0.22021676478E+02  0.15321646161E+04  0.15359889984E+04  0.00000000000E+00 0.  1.
<scales pt_clust_3="45.29186" pt_clust_4="51.31862" pt_clust_5="14000.00000" pt_clust_6="103.64854"></scales>
<clustering>
<clus scale="   45.292">  2  3  1 -1</clus>
<clus scale="   51.319">  2  4  1 -1</clus>
<clus scale="  103.649">  1  6  2 -1</clus>
<clus scale="   45.292">  2  3  1 -1</clus>
</clustering>
</event>
<event>
 6    0  0.1361744E+002  0.8212541E+02  0.7546771E-02  0.1323126E+00
          2   -1    0    0  505    0 -0.00000000000E+00  0.00000000000E+00  0.30844971985E+04  0.30844971985E+04  0.00000000000E+00 0. -1.
         21   -1    0    0  503  502  0.00000000000E+00 -0.00000000000E+00 -0.18666976436E+02  0.18666976436E+02  0.00000000000E+00 0.  1.
         21    1    1    2  503  501 -0.30804975539E+02 -0.52061113020E+02  0.85055147082E+02  0.10437281280E+03  0.00000000000E+00 0.  1.
         21    1    1    2  504  502  0.90582332602E+02  0.64664322766E+02  0.51940397591E+03  0.53119405476E+03  0.00000000000E+00 0.  1.
         21    1    1    2  505  504 -0.64540926702E+02 -0.82438684432E+02  0.13837259415E+04  0.13876812131E+04  0.00000000000E+00 0.  1.
          2    1    1    2  501    0  0.47635696391E+01  0.69835474685E+02  0.10776451575E+04  0.10799160943E+04  0.00000000000E+00 0. -1.
<scales pt_clust_3="60.49220" pt_clust_4="82.12541" pt_clust_5="14000.00000" pt_clust_6="63.27935"></scales>
<clustering>
<clus scale="   60.492">  2  3  1 -1</clus>
<clus scale="   63.279">  1  6  2 -1</clus>
<clus scale="   82.125">  2  4  1 -1</clus>
<clus scale="   60.492">  2  3  1 -1</clus>
</clustering>
</event>
<event>
 6    0  0.1361744E+002  0.2740707E+03  0.7546771E-02  0.1098972E+00
         -2   -1    0    0    0  501 -0.00000000000E+00  0.00000000000E+00  0.16573188187E+04  0.16573188187E+04  0.00000000000E+00 0.  1.
         21   -1    0    0  504  502  0.00000000000E+00 -0.00000000000E+00 -0.55273578534E+03  0.55273578534E+03  0.00000000000E+00 0.  1.
         21    1    1    2  503  502 -0.91556252152E+01 -0.49187786723E+02 -0.17496268520E+02  0.53003615423E+02  0.00000000000E+00 0.  1.
         21    1    1    2  504  501 -0.30227385111E+02 -0.22103851456E+03 -0.48116002357E+03  0.53036467454E+03  0.00000000000E+00 0.  1.
         21    1    1    2  505  503  0.48953687186E+01  0.14071221094E+03  0.77916641182E+03  0.79178544332E+03  0.00000000000E+00 0. -1.
         -2    1    1    2    0  505  0.34487641608E+02  0.12951409033E+03  0.82407291362E+03  0.83490087075E+03  0.00000000000E+00 0.  1.
<scales pt_clust_3="50.03263" pt_clust_4="271.94848" pt_clust_5="33.21200" pt_clust_6="33.21200"></scales>
<clustering>
<clus scale="   33.212">  5  6 -1 -1</clus>
<clus scale="   50.033">  2  3  1 -1</clus>
<clus scale="  271.948">  2  4  1 -1</clus>
<clus scale="   50.033">  2  3  1 -1</clus>
</clustering>
</event>
<event>
 6    0  0.1361744E+002  0.1165895E+03  0.7546771E-02  0.1248832E+00
          3   -1    0    0  503    0 -0.00000000000E+00  0.00000000000E+00  0.14297500863E+04  0.14297500863E+04  0.00000000000E+00 0. -1.
         21   -1    0    0  505  502  0.00000000000E+00 -0.00000000000E+00 -0.10027323711E+04  0.10027323711E+04  0.00000000000E+00 0.  1.
         21    1    1    2  503  502 -0.31452610555E+02 -0.10846898040E+02 -0.12167701038E+03  0.12614363544E+03  0.00000000000E+00 0.  1.
         21    1    1    2  504  501  0.35057127927E+02 -0.79697746351E+02  0.36704669265E+03  0.37723203414E+03  0.00000000000E+00 0.  1.
         21    1    1    2  505  504  0.42953332741E+02  0.12748067942E+03 -0.86770572232E+03  0.87807148511E+03  0.00000000000E+00 0.  1.
          3    1    1    2  501    0 -0.46557850112E+02 -0.36936035027E+02  0.10493537552E+04  0.10510353028E+04  0.00000000000E+00 0. -1.
<scales pt_clust_3="33.27044" pt_clust_4="116.58952" pt_clust_5="14000.00000" pt_clust_6="59.45985"></scales>
<clustering>
<clus scale="   33.270">  2  3  1 -1</clus>
<clus scale="   59.460">  1  6  2 -1</clus>
<clus scale="  116.590">  1  4  2 -1</clus>
<clus scale="   33.270">  2  3  1 -1</clus>
</clustering>
</event>
<event>
 6    0  0.1361744E+002  0.2120586E+03  0.7546771E-02  0.1139946E+00
          2   -1    0    0  505    0 -0.00000000000E+00  0.00000000000E+00  0.82989488973E+03  0.82989488973E+03  0.00000000000E+00 0. -1.
         21   -1    0    0  501  502  0.00000000000E+00 -0.00000000000E+00 -0.13059668571E+03  0.13059668571E+03  0.00000000000E+00 0. -1.
         21    1    1    2  503  502 -0.18995997548E+01  0.54413728056E+02  0.25290567052E+02  0.60033949246E+02  0.00000000000E+00 0. -1.
         21    1    1    2  504  503 -0.10649004318E+03  0.13183719289E+03 -0.20195462339E+01  0.16948525981E+03  0.00000000000E+00 0. -1.
         21    1    1    2  505  504  0.26743584308E+01 -0.10803344927E+03  0.12862858319E+03  0.16799907966E+03  0.00000000000E+00 0. -1.
          2    1    1    2  501    0  0.10571528450E+03 -0.78217471679E+02  0.54739860002E+03  0.56297328672E+03  0.00000000000E+00 0. -1.
<scales pt_clust_3="42.79234" pt_clust_4="42.79234" pt_clust_5="108.06655" pt_clust_6="198.16423"></scales>
<clustering>
<clus scale="   42.792">  3  4 -1 -1</clus>
<clus scale="  108.067">  1  5  2 -1</clus>
<clus scale="  198.164">  1  6  2 -1</clus>
<clus scale="  212.059">  2  3  1 -1</clus>
</clustering>
</event>
<event>
 6    0  0.1361744E+002  0.1912552E+03  0.7546771E-02  0.1157334E+00
          2   -1    0    0  502    0 -0.00000000000E+00  0.00000000000E+00  0.33338107942E+04  0.33338107942E+04  0.00000000000E+00 0.  1.
         21   -1    0    0  504  502  0.00000000000E+00 -0.00000000000E+00 -0.41166340696E+02  0.41166340696E+02  0.00000000000E+00 0. -1.
         21    1    1    2  503  505 -0.41918679906E+01  0.14445584363E+03  0.30101271486E+03  0.33390674900E+03  0.00000000000E+00 0. -1.
         21    1    1    2  504  503  0.28802621436E+00  0.43379654360E+02  0.49579381739E+00  0.43383443651E+02  0.00000000000E+00 0. -1.
         21    1    1    2  505  501  0.15230121873E+02 -0.40405111508E+02  0.10691069569E+04  0.10699786049E+04  0.00000000000E+00 0.  1.
          2    1    1    2  501    0 -0.11326280097E+02 -0.14743038648E+03  0.19220289880E+04  0.19277083374E+04  0.00000000000E+00 0.  1.
<scales pt_clust_3="180.67426" pt_clust_4="43.38061" pt_clust_5="33.90014" pt_clust_6="33.90014"></scales>
<clustering>
<clus scale="   33.900">  5  6 -1 -1</clus>
<clus scale="   43.381">  2  4  1 -1</clus>
<clus scale="  180.674">  2  3  1 -1</clus>
<clus scale="   43.381">  2  3  1 -1</clus>
</clustering>
</event>
<event>
 6    0  0.1361744E+002  0.7626185E+02  0.7546771E-02  0.1340007E+00
          1   -1    0    0  503    0 -0.00000000000E+00  0.00000000000E+00  0.39334175873E+03  0.39334175873E+03  0.00000000000E+00 0.  1.
         21   -1    0    0  504  502  0.00000000000E+00 -0.00000000000E+00 -0.67485208054E+02  0.67485208054E+02  0.00000000000E+00 0.  1.
         21    1    1    2  503  505 -0.48812487169E+02 -0.21105461195E+02  0.82156016827E+02  0.97865777965E+02  0.00000000000E+00 0.  1.
         21    1    1    2  504  501  0.70430806645E+02 -0.35311446279E+01  0.50240061128E+02  0.86585398591E+02  0.00000000000E+00 0.  1.
         21    1    1    2  505  502 -0.73569609984E+02  0.37967916356E+02  0.78373613033E+01  0.83159331513E+02  0.00000000000E+00 0.  1.
          1    1    1    2  501    0  0.51951290507E+02 -0.13331310533E+02  0.18562311142E+03  0.19321645872E+03  0.00000000000E+00 0.  1.
<scales pt_clust_3="53.17988" pt_clust_4="76.26185" pt_clust_5="14000.00000" pt_clust_6="34.11411"></scales>
<clustering>
<clus scale="   53.180">  1  3  2 -1</clus>
<clus scale="   34.114">  1  6  2 -1</clus>
<clus scale="   76.262">  1  4  2 -1</clus>
<clus scale="   76.262">  2  3  1 -1</clus>
</clustering>
</event>
<event>
 6    0  0.1361744E+002  0.7837647E+02  0.7546771E-02  0.1333723E+00
         21   -1    0    0  503  502  0.00000000000E+00  0.00000000000E+00  0.61089024186E+03  0.61089024186E+03  0.00000000000E+00 0. -1.
         -1   -1    0    0    0  501 -0.00000000000E+00 -0.00000000000E+00 -0.20739754884E+03  0.20739754884E+03  0.00000000000E+00 0.  1.
         21    1    1    2  503  504 -0.12214109409E+03 -0.16121274599E+02  0.42370236778E+03  0.44125053974E+03  0.00000000000E+00 0. -1.
         21    1    1    2  504  501  0.16952083851E+02 -0.25215300013E+02 -0.31503543682E+02  0.43768227816E+02  0.00000000000E+00 0. -1.
         21    1    1    2  505  502  0.47059074460E+02  0.41207399626E+02  0.16097268817E+03  0.17269861785E+03  0.00000000000E+00 0. -1.
         -1    1    1    2    0  505  0.58129935781E+02  0.12917498673E+00 -0.14967881925E+03  0.16057040528E+03  0.00000000000E+00 0.  1.
<scales pt_clust_3="14000.00000" pt_clust_4="30.38395" pt_clust_5="62.42627" pt_clust_6="78.37647"></scales>
<clustering>
<clus scale="   30.384">  2  4  1 -1</clus>
<clus scale="   62.426">  1  5  2 -1</clus>
<clus scale="   78.376">  2  6  1 -1</clus>
<clus scale="   62.426">  1  3  2 -1</clus>
</clustering>
</event>
<event>
 6    0  0.1361744E+002  0.8309565E+02  0.7546771E-02  0.1320489E+00
         21   -1    0    0  505  502  0.00000000000E+00  0.00000000000E+00  0.67629751342E+03  0.67629751342E+03  0.00000000000E+00 0.  1.
          1   -1    0    0  502    0 -0.00000000000E+00 -0.00000000000E+00 -0.22236582451E+04  0.22236582451E+04  0.00000000000E+00 0. -1.
         21    1    1    2  503  501  0.39476571473E+02  0.16189308964E+02 -0.59120172242E+03  0.59273937782E+03  0.00000000000E+00 0. -1.
         21    1    1    2  504  503 -0.86720855692E+02 -0.11393948271E+03  0.28761614270E+02  0.14604774215E+03  0.00000000000E+00 0.  1.
         21    1    1    2  505  504  0.25702655113E+02  0.76385638620E+02  0.58521570760E+03  0.59073921208E+03  0.00000000000E+00 0.  1.
          1    1    1    2  501    0  0.21541629106E+02  0.21364535126E+02 -0.15701363312E+04  0.15704294265E+04  0.00000000000E+00 0. -1.
<scales pt_clust_3="68.87506" pt_clust_4="14000.00000" pt_clust_5="83.09565" pt_clust_6="30.33950"></scales>
<clustering>
<clus scale="   30.339">  2  6  1 -1</clus>
<clus scale="   68.875">  2  3  1 -1</clus>
<clus scale="   83.096">  1  5  2 -1</clus>
<clus scale="   83.096">  1  3  2 -1</clus>
</clustering>
</event>
<event>
 6    0  0.1361744E+002  0.2099949E+03  0.7546771E-02  0.1141570E+00
         -2   -1    0    0    0  501 -0.00000000000E+00  0.00000000000E+00  0.70750795430E+03  0.70750795430E+03  0.00000000000E+00 0.  1.
         21   -1    0    0  504  502  0.00000000000E+00 -0.00000000000E+00 -0.69754025958E+03  0.69754025958E+03  0.00000000000E+00 0. -1.
         21    1    1    2  503  502  0.77335652679E+02 -0.69682586535E+02 -0.46862243848E+03  0.48004526441E+03  0.00000000000E+00 0. -1.
         21    1    1    2  504  505  0.13807495978E+03 -0.33963971111E+02 -0.16417483762E+03  0.21719029251E+03  0.00000000000E+00 0. -1.
         21    1    1    2  505  501 -0.36550333571E+02  0.87884847118E+02  0.36390300074E+03  0.37614500819E+03  0.00000000000E+00 0.  1.
         -2    1    1    2    0  503 -0.17886027889E+03  0.15761710528E+02  0.27886197008E+03  0.33166764877E+03  0.00000000000E+00 0.  1.
<scales pt_clust_3="102.64554" pt_clust_4="209.99491" pt_clust_5="95.18232" pt_clust_6="14000.00000"></scales>
<clustering>
<clus scale="   95.182">  1  5  2 -1</clus>
<clus scale="  102.646">  2  3  1 -1</clus>
<clus scale="  209.995">  2  4  1 -1</clus>
<clus scale="  102.646">  2  3  1 -1</clus>
</clustering>
</event>
<event>
 6    0  0.1361744E+002  0.1855962E+03  0.7546771E-02  0.1162494E+00
          1   -1    0    0  504    0 -0.00000000000E+00  0.00000000000E+00  0.15965516475E+04  0.15965516475E+04  0.00000000000E+00 0.  1.
         21   -1    0    0  505  502  0.00000000000E+00 -0.00000000000E+00 -0.48779991062E+02  0.48779991062E+02  0.00000000000E+00 0.  1.
         21    1    1    2  503  502 -0.43512307961E+02 -0.63586087999E+02  0.17701157368E+03  0.19305338316E+03  0.00000000000E+00 0. -1.
         21    1    1    2  504  503 -0.15462091510E+03  0.10861903391E+03  0.33819321737E+03  0.38740208335E+03  0.00000000000E+00 0.  1.
         21    1    1    2  505  501  0.39700595502E+02  0.49414226182E+02  0.14347581962E+03  0.15685411645E+03  0.00000000000E+00 0. -1.
          1    1    1    2  501    0  0.15843262755E+03 -0.94447172091E+02  0.88909104580E+03  0.90802205563E+03  0.00000000000E+00 0.  1.
<scales pt_clust_3="65.01175" pt_clust_4="14000.00000" pt_clust_5="63.38693" pt_clust_6="185.59625"></scales>
<clustering>
<clus scale="   63.387">  2  5  1 -1</clus>
<clus scale="   65.012">  2  3  1 -1</clus>
<clus scale="  185.596">  1  6  2 -1</clus>
<clus scale="   63.387">  2  3  1 -1</clus>
</clustering>
</event>
<event>
 6    0  0.1361744E+002  0.1059118E+03  0.7546771E-02  0.1268333E+00
         -2   -1    0    0    0  501 -0.00000000000E+00  0.00000000000E+00  0.16297980576E+03  0.16297980576E+03  0.00000000000E+00 0. -1.
         21   -1    0    0  504  502  0.00000000000E+00 -0.00000000000E+00 -0.10495238764E+04  0.10495238764E+04  0.00000000000E+00 0.  1.
         21    1    1    2  503  502  0.14093779073E+02 -0.29663965581E+02 -0.61238098275E+02  0.69488777101E+02  0.00000000000E+00 0. -1.
         21    1    1    2  504  501 -0.87661212539E+02 -0.58881484542E+02 -0.94140655519E+03  0.94731083576E+03  0.00000000000E+00 0.  1.
         21    1    1    2  505  503  0.56596120947E+02  0.38219319010E+02  0.28666926094E+00  0.68292894441E+02  0.00000000000E+00 0. -1.
         -2    1    1    2    0  505  0.16971312518E+02  0.50326131114E+02  0.11581391353E+03  0.12741117489E+03  0.00000000000E+00 0. -1.
<scales pt_clust_3="32.84182" pt_clust_4="105.91182" pt_clust_5="14000.00000" pt_clust_6="52.97178"></scales>
<clustering>
<clus scale="   32.842">  2  3  1 -1</clus>
<clus scale="   52.972">  1  6  2 -1</clus>
<clus scale="  105.912">  2  4  1 -1</clus>
<clus scale="   32.842">  2  3  1 -1</clus>
</clustering>
</event>
<event>
 6    0  0.1361744E+002  0.1422579E+03  0.7546771E-02  0.1210323E+00
          1   -1    0    0  505    0 -0.00000000000E+00  0.00000000000E+00  0.10042806250E+04  0.10042806250E+04  0.00000000000E+00 0. -1.
         21   -1    0    0  504  502  0.00000000000E+00 -0.00000000000E+00 -0.46652721450E+02  0.46652721450E+02  0.00000000000E+00 0.  1.
         21    1    1    2  503  501 -0.19077038226E+02  0.57796137695E+02  0.39024718634E+03  0.39496480016E+03  0.00000000000E+00 0.  1.
         21    1    1    2  504  503  0.29396304172E+02 -0.25988752766E+02 -0.16651730926E+01  0.39272519282E+02  0.00000000000E+00 0.  1.
         21    1    1    2  505  502  0.65567001649E+02 -0.79745836082E+02  0.11792229587E+03  0.15672937804E+03  0.00000000000E+00 0.  1.
          1    1    1    2  501    0 -0.75886267596E+02  0.47938451152E+02  0.45112359441E+03  0.45996664894E+03  0.00000000000E+00 0. -1.
<scales pt_clust_3="44.15230" pt_clust_4="39.23720" pt_clust_5="132.03092" pt_clust_6="44.15230"></scales>
<clustering>
<clus scale="   39.237">  2  4  1 -1</clus>
<clus scale="   44.152">  3  6 -1 -1</clus>
<clus scale="  132.031">  2  5  1 -1</clus>
<clus scale="   39.237">  2  3  1 -1</clus>
</clustering>
</event>
<event>
 6    0  0.1361744E+002  0.7531444E+02  0.7546771E-02  0.1342900E+00
          1   -1    0    0  505    0 -0.00000000000E+00  0.00000000000E+00  0.16353142449E+03  0.16353142449E+03  0.00000000000E+00 0.  1.
         21   -1    0    0  504  502  0.00000000000E+00 -0.00000000000E+00 -0.28004925564E+03  0.28004925564E+03  0.00000000000E+00 0.  1.
         21    1    1    2  503  501  0.73652718081E+01  0.11080051070E+03  0.50322059461E+02  0.12191517571E+03  0.00000000000E+00 0.  1.
         21    1    1    2  504  503 -0.17719056566E+02 -0.44462769539E+02 -0.50563877311E+02  0.69624769511E+02  0.00000000000E+00 0.  1.
         21    1    1    2  505  502 -0.34448517960E+02 -0.28166628643E+02 -0.16793339131E+03  0.17372876353E+03  0.00000000000E+00 0.  1.
          1    1    1    2  501    0  0.44802302719E+02 -0.38171112517E+02  0.51657378012E+02  0.78311971389E+02  0.00000000000E+00 0.  1.
<scales pt_clust_3="75.31444" pt_clust_4="14000.00000" pt_clust_5="44.49786" pt_clust_6="58.13342"></scales>
<clustering>
<clus scale="   44.498">  2  5  1 -1</clus>
<clus scale="   58.133">  1  6  2 -1</clus>
<clus scale="   75.314">  1  3  2 -1</clus>
<clus scale="   44.498">  2  3  1 -1</clus>
</clustering>
</event>
<event>
 6    0  0.1361744E+002  0.8608455E+02  0.7546771E-02  0.1312620E+00
          1   -1    0    0  503    0 -0.00000000000E+00  0.00000000000E+00  0.99868763443E+03  0.99868763443E+03  0.00000000000E+00 0. -1.
         21   -1    0    0  504  502  0.00000000000E+00 -0.00000000000E+00 -0.34382952040E+03  0.34382952040E+03  0.00000000000E+00 0. -1.
         21    1    1    2  503  505 -0.50105313633E+02 -0.17471233685E+02  0.56438890338E+02  0.77466991702E+02  0.00000000000E+00 0. -1.
         21    1    1    2  504  501 -0.60131076871E+02  0.40313797593E+02 -0.25619744678E+03  0.26622937557E+03  0.00000000000E+00 0. -1.
         21    1    1    2  505  502  0.88048238011E+01  0.29718471331E+02 -0.65065162381E+02  0.72070713997E+02  0.00000000000E+00 0. -1.
          1    1    1    2  501    0  0.10143156670E+03 -0.52561035239E+02  0.91968183285E+03  0.92675007355E+03  0.00000000000E+00 0. -1.
<scales pt_clust_3="52.38150" pt_clust_4="14000.00000" pt_clust_5="30.99536" pt_clust_6="86.08455"></scales>
<clustering>
<clus scale="   30.995">  2  5  1 -1</clus>
<clus scale="   52.381">  1  3  2 -1</clus>
<clus scale="   86.085">  1  6  2 -1</clus>
<clus scale="   30.995">  2  3  1 -1</clus>
</clustering>
</event>
<event>
 6    0  0.1361744E+002  0.1602618E+03  0.7546771E-02  0.1188402E+00
         21   -1    0    0  503  502  0.00000000000E+00  0.00000000000E+00  0.13885903138E+03  0.13885903138E+03  0.00000000000E+00 0. -1.
          4   -1    0    0  504    0 -0.00000000000E+00 -0.00000000000E+00 -0.32452302279E+03  0.32452302279E+03  0.00000000000E+00 0. -1.
         21    1    1    2  503  501  0.35171550656E+02 -0.45164453412E+02 -0.10610130341E+03  0.12055850204E+03  0.00000000000E+00 0. -1.
         21    1    1    2  504  505 -0.10076326804E+02  0.91791803557E+02  0.92163619077E+01  0.92801987526E+02  0.00000000000E+00 0. -1.
         21    1    1    2  505  502 -0.33685977699E+02  0.48020094952E+02  0.53187804885E+02  0.79180914375E+02  0.00000000000E+00 0. -1.
          4    1    1    2  501    0  0.85907538464E+01 -0.94647445097E+02 -0.14196685479E+03  0.17084065024E+03  0.00000000000E+00 0. -1.
<scales pt_clust_3="33.94640" pt_clust_4="51.78252" pt_clust_5="51.78252" pt_clust_6="152.89099"></scales>
<clustering>
<clus scale="   33.946">  3  6 -1 -1</clus>
<clus scale="   51.783">  4  5 -1 -1</clus>
<clus scale="  152.891">  2  3  1 -1</clus>
<clus scale="  160.262">  1  3  2 -1</clus>
</clustering>
</event>
<event>
 6    0  0.1361744E+002  0.8489702E+02  0.7546771E-02  0.1315702E+00
         21   -1    0    0  504  502  0.00000000000E+00  0.00000000000E+00  0.17390864179E+03  0.17390864179E+03  0.00000000000E+00 0. -1.
          2   -1    0    0  505    0 -0.00000000000E+00 -0.00000000000E+00 -0.51053911485E+04  0.51053911485E+04  0.00000000000E+00 0. -1.
         21    1    1    2  503  502 -0.44580174861E+02 -0.24831170241E+02  0.14842549199E+03  0.15695255868E+03  0.00000000000E+00 0. -1.
         21    1    1    2  504  501 -0.33903113020E+02 -0.69988374254E+01  0.15234591616E+01  0.34651489514E+02  0.00000000000E+00 0. -1.
         21    1    1    2  505  503 -0.54654993418E+02 -0.50423762251E+02 -0.27566292050E+04  0.27576320091E+04  0.00000000000E+00 0. -1.
          2    1    1    2  501    0  0.13313828130E+03  0.82253769918E+02 -0.23248022528E+04  0.23300637329E+04  0.00000000000E+00 0. -1.
<scales pt_clust_3="14000.00000" pt_clust_4="34.61798" pt_clust_5="74.45759" pt_clust_6="84.89702"></scales>
<clustering>
<clus scale="   34.618">  1  4  2 -1</clus>
<clus scale="   74.458">  2  5  1 -1</clus>
<clus scale="   84.897">  2  6  1 -1</clus>
<clus scale="   34.618">  1  3  2 -1</clus>
</clustering>
</event>
<event>
 6    0  0.1361744E+002  0.1043533E+03  0.7546771E-02  0.1271399E+00
         21   -1    0    0  503  502  0.00000000000E+00  0.00000000000E+00  0.91853337934E+02  0.91853337934E+02  0.00000000000E+00 0.  1.
          2   -1    0    0  505    0 -0.00000000000E+00 -0.00000000000E+00 -0.16340899137E+04  0.16340899137E+04  0.00000000000E+00 0. -1.
         21    1    1    2  503  501  0.97693731995E+01 -0.31661692939E+02  0.71082528780E+02  0.78425948195E+02  0.00000000000E+00 0.  1.
         21    1    1    2  504  502  0.10073353771E+01 -0.42418313153E+02 -0.39904838227E+02  0.58247095458E+02  0.00000000000E+00 0.  1.
         21    1    1    2  505  504  0.83203065572E+02  0.96386113753E+02 -0.88560389282E+03  0.89471072869E+03  0.00000000000E+00 0. -1.
          2    1    1    2  501    0 -0.93979774148E+02 -0.22306107661E+02 -0.68781037352E+03  0.69455947932E+03  0.00000000000E+00 0. -1.
<scales pt_clust_3="33.13463" pt_clust_4="59.72772" pt_clust_5="14000.00000" pt_clust_6="104.35333"></scales>
<clustering>
<clus scale="   33.135">  1  3  2 -1</clus>
<clus scale="   59.728">  1  4  2 -1</clus>
<clus scale="  104.353">  2  6  1 -1</clus>
<clus scale="   33.135">  1  3  2 -1</clus>
</clustering>
</event>
<event>
 6    0  0.1361744E+002  0.8660054E+02  0.7546771E-02  0.1311299E+00
         -3   -1    0    0    0  501 -0.00000000000E+00  0.00000000000E+00  0.28240810029E+03  0.28240810029E+03  0.00000000000E+00 0.  1.
         21   -1    0    0  504  502  0.00000000000E+00 -0.00000000000E+00 -0.11015226152E+04  0.11015226152E+04  0.00000000000E+00 0.  1.
         21    1    1    2  503  502 -0.41967794705E+02  0.78132145848E+02 -0.93512804664E+03  0.93932443364E+03  0.00000000000E+00 0.  1.
         21    1    1    2  504  501  0.89826688113E+02 -0.30053445688E+02 -0.13880864987E+03  0.16804726946E+03  0.00000000000E+00 0. -1.
         21    1    1    2  505  503 -0.41209370566E+02 -0.97224021611E+01  0.40030431836E+02  0.58268111340E+02  0.00000000000E+00 0.  1.
         -3    1    1    2    0  505 -0.66495228428E+01 -0.38356297999E+02  0.21479174973E+03  0.21829090109E+03  0.00000000000E+00 0.  1.
<scales pt_clust_3="14000.00000" pt_clust_4="86.60054" pt_clust_5="60.01673" pt_clust_6="38.92842"></scales>
<clustering>
<clus scale="   38.928">  1  6  2 -1</clus>
<clus scale="   60.017">  1  5  2 -1</clus>
<clus scale="   86.601">  1  4  2 -1</clus>
<clus scale="   86.601">  2  3  1 -1</clus>
</clustering>
</event>
<event>
 6    0  0.1361744E+002  0.1049767E+03  0.7546771E-02  0.1270166E+00
         21   -1    0    0  504  502  0.00000000000E+00  0.00000000000E+00  0.15575265554E+02  0.15575265554E+02  0.00000000000E+00 0. -1.
          2   -1    0    0  505    0 -0.00000000000E+00 -0.00000000000E+00 -0.12856739869E+04  0.12856739869E+04  0.00000000000E+00 0. -1.
         21    1    1    2  503  502 -0.78066963094E+02  0.13546038375E+02 -0.25440631501E+03  0.26645922577E+03  0.00000000000E+00 0. -1.
         21    1    1    2  504  501  0.40954434777E+02 -0.39957605904E+01 -0.11908011786E+03  0.12598931026E+03  0.00000000000E+00 0. -1.
         21    1    1    2  505  503 -0.50406930152E+02 -0.19590308994E+02 -0.22357446726E+03  0.23002213204E+03  0.00000000000E+00 0. -1.
          2    1    1    2  501    0  0.87519458470E+02  0.10040031209E+02 -0.67303782119E+03  0.67877858436E+03  0.00000000000E+00 0. -1.
<scales pt_clust_3="31.84772" pt_clust_4="41.14890" pt_clust_5="31.84772" pt_clust_6="97.64256"></scales>
<clustering>
<clus scale="   31.848">  3  5 -1 -1</clus>
<clus scale="   41.149">  1  4  2 -1</clus>
<clus scale="   97.643">  2  6  1 -1</clus>
<clus scale="   41.149">  1  3  2 -1</clus>
</clustering>
</event>
<event>
 6    0  0.1361744E+002  0.1254892E+03  0.7546771E-02  0.1234307E+00
         21   -1    0    0  505  502  0.00000000000E+00  0.00000000000E+00  0.35135720529E+03  0.35135720529E+03  0.00000000000E+00 0.  1.
         -4   -1    0    0    0  501 -0.00000000000E+00 -0.00000000000E+00 -0.38285451797E+03  0.38285451797E+03  0.00000000000E+00 0.  1.
         21    1    1    2  503  501 -0.10160035670E+03 -0.39018652715E+01 -0.12118320058E+03  0.15818731029E+03  0.00000000000E+00 0.  1.
         21    1    1    2  504  502  0.48565959584E+01 -0.52868820426E+02  0.80980531895E+02  0.96832562930E+02  0.00000000000E+00 0.  1.
         21    1    1    2  505  503 -0.64540825410E+02  0.26157168332E+02  0.20895375240E+03  0.22025300507E+03  0.00000000000E+00 0.  1.
         -4    1    1    2    0  504  0.16128458615E+03  0.30613517366E+02 -0.20024839639E+03  0.25893884497E+03  0.00000000000E+00 0.  1.
<scales pt_clust_3="125.48918" pt_clust_4="53.09142" pt_clust_5="62.92991" pt_clust_6="14000.00000"></scales>
<clustering>
<clus scale="   53.091">  1  4  2 -1</clus>
<clus scale="   62.930">  1  5  2 -1</clus>
<clus scale="  125.489">  2  3  1 -1</clus>
<clus scale="   53.091">  1  3  2 -1</clus>
</clustering>
</event>
<event>
 6    0  0.1361744E+002  0.2368845E+03  0.7546771E-02  0.1121886E+00
         21   -1    0    0  505  502  0.00000000000E+00  0.00000000000E+00  0.40144511280E+03  0.40144511280E+03  0.00000000000E+00 0.  1.
          2   -1    0    0  504    0 -0.00000000000E+00 -0.00000000000E+00 -0.49848494978E+03  0.49848494978E+03  0.00000000000E+00 0.  1.
         21    1    1    2  503  502  0.39833849538E+02 -0.91231393204E+02  0.14646543015E+03  0.17709326612E+03  0.00000000000E+00 0.  1.
         21    1    1    2  504  503 -0.47403160466E+01 -0.13229568673E+03  0.18838594404E+03  0.23024743915E+03  0.00000000000E+00 0.  1.
         21    1    1    2  505  501 -0.26202149462E+02  0.44190023354E+02 -0.55888299298E+02  0.75913192522E+02  0.00000000000E+00 0.  1.
          2    1    1    2  501    0 -0.88913840291E+01  0.17933705658E+03 -0.37600291187E+03  0.41667616480E+03  0.00000000000E+00 0.  1.
<scales pt_clust_3="44.26057" pt_clust_4="231.95044" pt_clust_5="37.51289" pt_clust_6="37.51289"></scales>
<clustering>
<clus scale="   37.513">  5  6 -1 -1</clus>
<clus scale="   44.261">  3  4 -1 -1</clus>
<clus scale="  231.950">  1  3  2 -1</clus>
<clus scale="  231.950">  1  3  2 -1</clus>
</clustering>
</event>
<event>
 6    0  0.1361744E+002  0.1222496E+03  0.7546771E-02  0.1239431E+00
         21   -1    0    0  505  502  0.00000000000E+00  0.00000000000E+00  0.21571447788E+03  0.21571447788E+03  0.00000000000E+00 0. -1.
          2   -1    0    0  504    0 -0.00000000000E+00 -0.00000000000E+00 -0.21522280397E+04  0.21522280397E+04  0.00000000000E+00 0. -1.
         21    1    1    2  503  502 -0.32156866447E+02  0.25834814514E+02 -0.25810112123E+02  0.48658643513E+02  0.00000000000E+00 0. -1.
         21    1    1    2  504  503  0.70889000574E+02 -0.73400329673E+02 -0.81523151326E+03  0.82159313471E+03  0.00000000000E+00 0. -1.
         21    1    1    2  505  501 -0.87861800339E+02  0.10310558913E+02  0.19060642390E+03  0.21013522412E+03  0.00000000000E+00 0. -1.
          2    1    1    2  501    0  0.49129666212E+02  0.37254956246E+02 -0.12860783603E+04  0.12875555152E+04  0.00000000000E+00 0. -1.
<scales pt_clust_3="41.24926" pt_clust_4="122.24956" pt_clust_5="14000.00000" pt_clust_6="61.62154"></scales>
<clustering>
<clus scale="   41.249">  1  3  2 -1</clus>
<clus scale="   61.622">  2  6  1 -1</clus>
<clus scale="  122.250">  2  4  1 -1</clus>
<clus scale="   41.249">  1  3  2 -1</clus>
</clustering>
</event>
<event>
 6    0  0.1361744E+002  0.1568917E+03  0.7546771E-02  0.1192251E+00
         21   -1    0    0  504  502  0.00000000000E+00  0.00000000000E+00  0.28138378743E+03  0.28138378743E+03  0.00000000000E+00 0. -1.
         -4   -1    0    0    0  501 -0.00000000000E+00 -0.00000000000E+00 -0.31569897555E+03  0.31569897555E+03  0.00000000000E+00 0.  1.
         21    1    1    2  503  502  0.43737092602E+02  0.31297036482E+02 -0.72572394774E+02  0.90328236145E+02  0.00000000000E+00 0.  1.
         21    1    1    2  504  501 -0.14838116499E+03  0.30761091208E+02  0.21705404453E+03  0.26471810120E+03  0.00000000000E+00 0. -1.
         21    1    1    2  505  503  0.96908744443E+02  0.16297944222E+01 -0.88358815521E+02  0.13115350266E+03  0.00000000000E+00 0.  1.
         -4    1    1    2    0  505  0.77353279419E+01 -0.63687922112E+02 -0.90438022354E+02  0.11088292298E+03  0.00000000000E+00 0.  1.
<scales pt_clust_3="35.64594" pt_clust_4="149.41592" pt_clust_5="35.64594" pt_clust_6="64.15596"></scales>
<clustering>
<clus scale="   35.646">  3  5 -1 -1</clus>
<clus scale="   64.156">  2  6  1 -1</clus>
<clus scale="  149.416">  1  4  2 -1</clus>
<clus scale="  149.416">  1  3  2 -1</clus>
</clustering>
</event>
<event>
 6    0  0.1361744E+002  0.8218980E+02  0.7546771E-02  0.1322950E+00
          1   -1    0    0  504    0 -0.00000000000E+00  0.00000000000E+00  0.14093999384E+04  0.14093999384E+04  0.00000000000E+00 0.  1.
         21   -1    0    0  505  502  0.00000000000E+00 -0.00000000000E+00 -0.22692262727E+03  0.22692262727E+03  0.00000000000E+00 0.  1.
         21    1    1    2  503  502 -0.34192537917E+02 -0.28010760280E+02 -0.63428053702E+01  0.44653818656E+02  0.00000000000E+00 0. -1.
         21    1    1    2  504  503 -0.62358094296E+01  0.13822490635E+03  0.64152492065E+03  0.65627679669E+03  0.00000000000E+00 0.  1.
         21    1    1    2  505  501  0.32298201555E+02 -0.40984052323E+02 -0.18886398118E+03  0.19593996467E+03  0.00000000000E+00 0.  1.
          1    1    1    2  501    0  0.81301457913E+01 -0.69230093750E+02  0.73615917700E+03  0.73945198562E+03  0.00000000000E+00 0.  1.
<scales pt_clust_3="44.20104" pt_clust_4="82.18980" pt_clust_5="67.74111" pt_clust_6="14000.00000"></scales>
<clustering>
<clus scale="   44.201">  2  3  1 -1</clus>
<clus scale="   67.741">  2  5  1 -1</clus>
<clus scale="   82.190">  2  4  1 -1</clus>
<clus scale="   44.201">  2  3  1 -1</clus>
</clustering>
</event>
<event>
 6    0  0.1361744E+002  0.1276134E+03  0.7546771E-02  0.1231041E+00
         21   -1    0    0  505  502  0.00000000000E+00  0.00000000000E+00  0.22322964476E+03  0.22322964476E+03  0.00000000000E+00 0.  1.
          2   -1    0    0  504    0 -0.00000000000E+00 -0.00000000000E+00 -0.19394773813E+04  0.19394773813E+04  0.00000000000E+00 0.  1.
         21    1    1    2  503  501 -0.90663875485E+02  0.25300546077E+02  0.12943266410E+03  0.16004021522E+03  0.00000000000E+00 0.  1.
         21    1    1    2  504  502  0.11669380891E+02  0.62079138629E+02 -0.55321957582E+03  0.55681405601E+03  0.00000000000E+00 0.  1.
         21    1    1    2  505  503 -0.37597012124E+02 -0.43599769678E+02  0.62618736454E+02  0.85062220708E+02  0.00000000000E+00 0. -1.
          2    1    1    2  501    0  0.11659150672E+03 -0.43779915028E+02 -0.13550795613E+04  0.13607905342E+04  0.00000000000E+00 0.  1.
<scales pt_clust_3="127.61338" pt_clust_4="62.56830" pt_clust_5="57.57148" pt_clust_6="14000.00000"></scales>
<clustering>
<clus scale="   57.571">  1  5  2 -1</clus>
<clus scale="   62.568">  2  4  1 -1</clus>
<clus scale="  127.613">  1  3  2 -1</clus>
<clus scale="   57.571">  1  3  2 -1</clus>
</clustering>
</event>
<event>
 6    0  0.1361744E+002  0.2110517E+03  0.7546771E-02  0.1140736E+00
          4   -1    0    0  502    0 -0.00000000000E+00  0.00000000000E+00  0.27833168625E+02  0.27833168625E+02  0.00000000000E+00 0. -1.
         21   -1    0    0  503  502  0.00000000000E+00 -0.00000000000E+00 -0.23245540983E+04  0.23245540983E+04  0.00000000000E+00 0.  1.
         21    1    1    2  503  505  0.56536500313E+02 -0.33699310498E+02 -0.45514132236E+03  0.45987568181E+03  0.00000000000E+00 0.  1.
         21    1    1    2  504  501 -0.36498853914E+02  0.92352106789E+02 -0.24832510180E+03  0.26744426363E+03  0.00000000000E+00 0. -1.
         21    1    1    2  505  504  0.85647564270E+02 -0.91497399316E+02 -0.13716570281E+04  0.13773707860E+04  0.00000000000E+00 0.  1.
          4    1    1    2  501    0 -0.10568521067E+03  0.32844603025E+02 -0.22159747737E+03  0.24769653546E+03  0.00000000000E+00 0. -1.
<scales pt_clust_3="35.44165" pt_clust_4="88.11080" pt_clust_5="195.65881" pt_clust_6="88.11080"></scales>
<clustering>
<clus scale="   35.442">  3  5 -1 -1</clus>
<clus scale="   88.111">  4  6 -1 -1</clus>
<clus scale="  195.659">  2  3  1 -1</clus>
<clus scale="  195.659">  2  3  1 -1</clus>
</clustering>
</event>
<event>
 6    0  0.1361744E+002  0.1141393E+03  0.7546771E-02  0.1253091E+00
         21   -1    0    0  504  502  0.00000000000E+00  0.00000000000E+00  0.22877194551E+04  0.22877194551E+04  0.00000000000E+00 0.  1.
         -2   -1    0    0    0  501 -0.00000000000E+00 -0.00000000000E+00 -0.21649522448E+02  0.21649522448E+02  0.00000000000E+00 0. -1.
         21    1    1    2  503  502  0.20497911302E+02 -0.44124852145E+02  0.10150150701E+04  0.10161804758E+04  0.00000000000E+00 0. -1.
         21    1    1    2  504  505  0.10391908094E+03  0.35263997411E+02  0.89680461035E+03  0.90349390371E+03  0.00000000000E+00 0.  1.
         21    1    1    2  505  501 -0.22164218841E+02  0.47783887196E+02  0.12644181606E+03  0.13697476162E+03  0.00000000000E+00 0. -1.
         -2    1    1    2    0  503 -0.10225277340E+03 -0.38923032462E+02  0.22780843620E+03  0.25271983644E+03  0.00000000000E+00 0. -1.
<scales pt_clust_3="48.65354" pt_clust_4="114.13927" pt_clust_5="47.63671" pt_clust_6="14000.00000"></scales>
<clustering>
<clus scale="   48.654">  1  3  2 -1</clus>
<clus scale="   47.637">  2  5  1 -1</clus>
<clus scale="  114.139">  1  4  2 -1</clus>
<clus scale="   48.654">  1  3  2 -1</clus>
</clustering>
</event>
<event>
 6    0  0.1361744E+002  0.1018242E+03  0.7546771E-02  0.1276506E+00
          2   -1    0    0  503    0 -0.00000000000E+00  0.00000000000E+00  0.44097875756E+03  0.44097875756E+03  0.00000000000E+00 0. -1.
         21   -1    0    0  505  502  0.00000000000E+00 -0.00000000000E+00 -0.70768027667E+02  0.70768027667E+02  0.00000000000E+00 0. -1.
         21    1    1    2  503  502  0.11535351326E+03  0.38595964771E+02  0.60683259569E+02  0.13593579186E+03  0.00000000000E+00 0. -1.
         21    1    1    2  504  501 -0.24079111669E+02  0.49707081386E+02  0.39263543200E+02  0.67765945602E+02  0.00000000000E+00 0.  1.
         21    1    1    2  505  504 -0.35245113454E+02 -0.32239051538E+01  0.27653285416E+02  0.44914538638E+02  0.00000000000E+00 0. -1.
          2    1    1    2  501    0 -0.56029288134E+02 -0.85079141003E+02  0.24261064171E+03  0.26313050913E+03  0.00000000000E+00 0. -1.
<scales pt_clust_3="14000.00000" pt_clust_4="58.58553" pt_clust_5="35.39225" pt_clust_6="101.82416"></scales>
<clustering>
<clus scale="   35.392">  2  5  1 -1</clus>
<clus scale="   58.586">  2  4  1 -1</clus>
<clus scale="  101.824">  1  6  2 -1</clus>
<clus scale="   35.392">  2  3  1 -1</clus>
</clustering>
</event>
<event>
 6    0  0.1361744E+002  0.1128036E+03  0.7546771E-02  0.1255464E+00
         21   -1    0    0  505  502  0.00000000000E+00  0.00000000000E+00  0.81349168255E+02  0.81349168255E+02  0.00000000000E+00 0. -1.
          2   -1    0    0  504    0 -0.00000000000E+00 -0.00000000000E+00 -0.73469053836E+03  0.73469053836E+03  0.00000000000E+00 0.  1.
         21    1    1    2  503  502 -0.54344899769E+02  0.44366105186E+01 -0.16880074137E+02  0.57078792442E+02  0.00000000000E+00 0. -1.
         21    1    1    2  504  503  0.20374138682E+02  0.53894984711E+02 -0.12897366881E+03  0.14125856488E+03  0.00000000000E+00 0. -1.
         21    1    1    2  505  501 -0.22482687475E+02 -0.10496999503E+03 -0.24447860420E+01  0.10737852705E+03  0.00000000000E+00 0. -1.
          2    1    1    2  501    0  0.56453448561E+02  0.46638399801E+02 -0.50504284112E+03  0.51032382225E+03  0.00000000000E+00 0.  1.
<scales pt_clust_3="54.52570" pt_clust_4="56.35207" pt_clust_5="14000.00000" pt_clust_6="112.80355"></scales>
<clustering>
<clus scale="   54.526">  1  3  2 -1</clus>
<clus scale="   56.352">  2  4  1 -1</clus>
<clus scale="  112.804">  2  6  1 -1</clus>
<clus scale="   54.526">  1  3  2 -1</clus>
</clustering>
</event>
<event>
 6    0  0.1361744E+002  0.1422676E+03  0.7546771E-02  0.1210310E+00
          1   -1    0    0  504    0 -0.00000000000E+00  0.00000000000E+00  0.26241039987E+04  0.26241039987E+04  0.00000000000E+00 0.  1.
         21   -1    0    0  505  502  0.00000000000E+00 -0.00000000000E+00 -0.95372597207E+02  0.95372597207E+02  0.00000000000E+00 0.  1.
         21    1    1    2  503  502  0.21551131488E+02  0.83194166328E+02 -0.58330744694E+02  0.10386624262E+03  0.00000000000E+00 0.  1.
         21    1    1    2  504  503  0.12249092518E+02 -0.43531096781E+02  0.17782696371E+03  0.18348685424E+03  0.00000000000E+00 0.  1.
         21    1    1    2  505  501 -0.63520402173E+02  0.61408127132E+02  0.18112749544E+03  0.20152659669E+03  0.00000000000E+00 0. -1.
          1    1    1    2  501    0  0.29720178167E+02 -0.10107119668E+03  0.22281076870E+04  0.22305969023E+04  0.00000000000E+00 0.  1.
<scales pt_clust_3="142.26755" pt_clust_4="45.22164" pt_clust_5="85.31038" pt_clust_6="14000.00000"></scales>
<clustering>
<clus scale="   45.222">  1  4  2 -1</clus>
<clus scale="   85.310">  2  5  1 -1</clus>
<clus scale="  142.268">  2  3  1 -1</clus>
<clus scale="   85.310">  2  3  1 -1</clus>
</clustering>
</event>
<event>
 6    0  0.1361744E+002  0.8427193E+02  0.7546771E-02  0.1317348E+00
         21   -1    0    0  504  502  0.00000000000E+00  0.00000000000E+00  0.46649933598E+03  0.46649933598E+03  0.00000000000E+00 0. -1.
          2   -1    0    0  503    0 -0.00000000000E+00 -0.00000000000E+00 -0.16041439055E+04  0.16041439055E+04  0.00000000000E+00 0. -1.
         21    1    1    2  503  505 -0.37458007334E+02 -0.36079773909E+02 -0.40399299377E+03  0.40732688521E+03  0.00000000000E+00 0. -1.
         21    1    1    2  504  501  0.80560948909E+02 -0.57109325567E+02  0.34709618334E+02  0.10467234191E+03  0.00000000000E+00 0. -1.
         21    1    1    2  505  502  0.41520061276E+01  0.84100044254E+02  0.39015047460E+03  0.39913337298E+03  0.00000000000E+00 0. -1.
          2    1    1    2  501    0 -0.47254947702E+02  0.90890552217E+01 -0.11585116687E+04  0.11595106414E+04  0.00000000000E+00 0. -1.
<scales pt_clust_3="82.82201" pt_clust_4="14000.00000" pt_clust_5="84.27193" pt_clust_6="48.12111"></scales>
<clustering>
<clus scale="   48.121">  2  6  1 -1</clus>
<clus scale="   84.272">  1  5  2 -1</clus>
<clus scale="   82.822">  2  3  1 -1</clus>
<clus scale="   84.272">  1  3  2 -1</clus>
</clustering>
</event>
<event>
 6    0  0.1361744E+002  0.1333509E+03  0.7546771E-02  0.1222567E+00
         21   -1    0    0  503  502  0.00000000000E+00  0.00000000000E+00  0.10183085760E+03  0.10183085760E+03  0.00000000000E+00 0. -1.
          2   -1    0    0  502    0 -0.00000000000E+00 -0.00000000000E+00 -0.20113402071E+03  0.20113402071E+03  0.00000000000E+00 0. -1.
         21    1    1    2  503  505 -0.42964029392E+02  0.73704089101E+01 -0.12991253645E+02  0.45486299260E+02  0.00000000000E+00 0. -1.
         21    1    1    2  504  501  0.33172198668E+02 -0.37757617466E+02 -0.73270604072E+02  0.88851639615E+02  0.00000000000E+00 0. -1.
         21    1    1    2  505  504 -0.62508125920E+02  0.52182863118E+02  0.23481057937E+02  0.84744776187E+02  0.00000000000E+00 0. -1.
          2    1    1    2  501    0  0.72299956645E+02 -0.21795654562E+02 -0.36522363330E+02  0.83882163252E+02  0.00000000000E+00 0. -1.
<scales pt_clust_3="34.15541" pt_clust_4="45.50736" pt_clust_5="129.80792" pt_clust_6="45.50736"></scales>
<clustering>
<clus scale="   34.155">  3  5 -1 -1</clus>
<clus scale="   45.507">  4  6 -1 -1</clus>
<clus scale="  129.808">  1  3  2 -1</clus>
<clus scale="  129.808">  1  3  2 -1</clus>
</clustering>
</event>
<event>
 6    0  0.1361744E+002  0.1015527E+03  0.7546771E-02  0.1277064E+00
         21   -1    0    0  503  502  0.00000000000E+00  0.00000000000E+00  0.10186642241E+03  0.10186642241E+03  0.00000000000E+00 0. -1.
          3   -1    0    0  505    0 -0.00000000000E+00 -0.00000000000E+00 -0.11550989776E+04  0.11550989776E+04  0.00000000000E+00 0.  1.
         21    1    1    2  503  501  0.60474071924E+01 -0.98853381686E+02  0.41554013969E+02  0.10740250594E+03  0.00000000000E+00 0. -1.
         21    1    1    2  504  502  0.33949811657E+02  0.74110806585E+00  0.10849854399E+02  0.35649099473E+02  0.00000000000E+00 0.  1.
         21    1    1    2  505  504  0.21597302945E+02  0.58162010047E+02 -0.52612050038E+03  0.52976602744E+03  0.00000000000E+00 0.  1.
          3    1    1    2  501    0 -0.61594521795E+02  0.39950263573E+02 -0.57951592316E+03  0.58414776715E+03  0.00000000000E+00 0.  1.
<scales pt_clust_3="101.55266" pt_clust_4="33.95790" pt_clust_5="62.33684" pt_clust_6="14000.00000"></scales>
<clustering>
<clus scale="   33.958">  1  4  2 -1</clus>
<clus scale="   62.337">  2  5  1 -1</clus>
<clus scale="  101.553">  1  3  2 -1</clus>
<clus scale="   33.958">  1  3  2 -1</clus>
</clustering>
</event>
<event>
 6    0  0.1361744E+002  0.2076239E+03  0.7546771E-02  0.1143462E+00
          1   -1    0    0  502    0 -0.00000000000E+00  0.00000000000E+00  0.17565167885E+03  0.17565167885E+03  0.00000000000E+00 0.  1.
         21   -1    0    0  505  502  0.00000000000E+00 -0.00000000000E+00 -0.14391816912E+04  0.14391816912E+04  0.00000000000E+00 0.  1.
         21    1    1    2  503  501  0.17265625056E+02 -0.10973243416E+03  0.51713135424E+02  0.12252982205E+03  0.00000000000E+00 0.  1.
         21    1    1    2  504  503  0.33392980929E+01  0.14242984666E+03 -0.77880879880E+03  0.79173262988E+03  0.00000000000E+00 0.  1.
         21    1    1    2  505  504 -0.41845444896E+01  0.56586838739E+02 -0.59161800912E+03  0.59433277668E+03  0.00000000000E+00 0.  1.
          1    1    1    2  501    0 -0.16420378659E+02 -0.89284251240E+02  0.55183660128E+02  0.10623814146E+03  0.00000000000E+00 0.  1.
<scales pt_clust_3="32.58851" pt_clust_4="37.33202" pt_clust_5="37.33202" pt_clust_6="202.25691"></scales>
<clustering>
<clus scale="   32.589">  3  6 -1 -1</clus>
<clus scale="   37.332">  4  5 -1 -1</clus>
<clus scale="  202.257">  1  3  2 -1</clus>
<clus scale="  207.624">  2  3  1 -1</clus>
</clustering>
</event>
<event>
 6    0  0.1361744E+002  0.1588296E+03  0.7546771E-02  0.1190024E+00
          2   -1    0    0  503    0 -0.00000000000E+00  0.00000000000E+00  0.14618071052E+04  0.14618071052E+04  0.00000000000E+00 0. -1.
         21   -1    0    0  505  502  0.00000000000E+00 -0.00000000000E+00 -0.16770148710E+03  0.16770148710E+03  0.00000000000E+00 0.  1.
         21    1    1    2  503  504 -0.51568153501E+02  0.87297811739E+01  0.15668524277E+03  0.16518398481E+03  0.00000000000E+00 0.  1.
         21    1    1    2  504  502 -0.65138765932E+02  0.27782731260E+02 -0.51824341028E+02  0.87753639847E+02  0.00000000000E+00 0. -1.
         21    1    1    2  505  501  0.97848518354E+02  0.12917781844E+03 -0.13226042644E+02  0.16259203401E+03  0.00000000000E+00 0.  1.
          2    1    1    2  501    0  0.18858401079E+02 -0.16569033087E+03  0.12024707590E+04  0.12139789336E+04  0.00000000000E+00 0. -1.
<scales pt_clust_3="52.30185" pt_clust_4="71.51878" pt_clust_5="158.82962" pt_clust_6="14000.00000"></scales>
<clustering>
<clus scale="   52.302">  1  3  2 -1</clus>
<clus scale="   71.519">  2  4  1 -1</clus>
<clus scale="  158.830">  2  5  1 -1</clus>
<clus scale="   71.519">  2  3  1 -1</clus>
</clustering>
</event>
<event>
 6    0  0.1361744E+002  0.1126836E+03  0.7546771E-02  0.1255679E+00
         21   -1    0    0  504  502  0.00000000000E+00  0.00000000000E+00  0.53579798470E+03  0.53579798470E+03  0.00000000000E+00 0.  1.
          2   -1    0    0  505    0 -0.00000000000E+00 -0.00000000000E+00 -0.14838162278E+04  0.14838162278E+04  0.00000000000E+00 0.  1.
         21    1    1    2  503  502  0.28731958613E+02 -0.93395795290E+02  0.10922170526E+03  0.14655265580E+03  0.00000000000E+00 0.  1.
         21    1    1    2  504  501  0.37020867676E+02  0.12329098886E+02  0.39056186670E+03  0.39250620765E+03  0.00000000000E+00 0.  1.
         21    1    1    2  505  503 -0.16372482931E+03  0.41752930918E+02 -0.51988711602E+03  0.54665504697E+03  0.00000000000E+00 0.  1.
          2    1    1    2  501    0  0.97972003022E+02  0.39313765486E+02 -0.92791469908E+03  0.93390030212E+03  0.00000000000E+00 0.  1.
<scales pt_clust_3="102.90345" pt_clust_4="39.01988" pt_clust_5="14000.00000" pt_clust_6="112.68359"></scales>
<clustering>
<clus scale="   39.020">  1  4  2 -1</clus>
<clus scale="  102.903">  1  3  2 -1</clus>
<clus scale="  112.684">  2  6  1 -1</clus>
<clus scale="   39.020">  1  3  2 -1</clus>
</clustering>
</event>
<event>
 6    0  0.1361744E+002  0.1332269E+03  0.7546771E-02  0.1222745E+00
         21   -1    0    0  501  502  0.00000000000E+00  0.00000000000E+00  0.48617394711E+02  0.48617394711E+02  0.00000000000E+00 0.  1.
          2   -1    0    0  505    0 -0.00000000000E+00 -0.00000000000E+00 -0.17447474641E+04  0.17447474641E+04  0.00000000000E+00 0. -1.
         21    1    1    2  503  502  0.73131516112E+01 -0.85786349440E+02 -0.48470470054E+02  0.98803676065E+02  0.00000000000E+00 0.  1.
         21    1    1    2  504  503 -0.31711899804E+02 -0.29683821931E+02 -0.77163210265E+01  0.44117065675E+02  0.00000000000E+00 0.  1.
         21    1    1    2  505  504  0.20317198795E+02 -0.30266304278E+02 -0.47839371621E+03  0.47978055968E+03  0.00000000000E+00 0. -1.
          2    1    1    2  501    0  0.40815493977E+01  0.14573647565E+03 -0.11615495621E+04  0.11706635574E+04  0.00000000000E+00 0. -1.
<scales pt_clust_3="40.67621" pt_clust_4="40.67621" pt_clust_5="36.45323" pt_clust_6="120.03621"></scales>
<clustering>
<clus scale="   36.453">  2  5  1 -1</clus>
<clus scale="   40.676">  3  4 -1 -1</clus>
<clus scale="  120.036">  2  6  1 -1</clus>
<clus scale="  133.227">  1  3  2 -1</clus>
</clustering>
</event>
<event>
 6    0  0.1361744E+002  0.9767911E+02  0.7546771E-02  0.1285254E+00
         21   -1    0    0  504  502  0.00000000000E+00  0.00000000000E+00  0.36648143001E+02  0.36648143001E+02  0.00000000000E+00 0. -1.
          1   -1    0    0  503    0 -0.00000000000E+00 -0.00000000000E+00 -0.12119517047E+04  0.12119517047E+04  0.00000000000E+00 0. -1.
         21    1    1    2  503  505  0.11571530599E+03 -0.50693554174E+02 -0.66783209536E+03  0.67967608173E+03  0.00000000000E+00 0. -1.
         21    1    1    2  504  501 -0.38284119623E+02  0.16038178442E+02 -0.60825404171E+02  0.73638487054E+02  0.00000000000E+00 0. -1.
         21    1    1    2  505  502 -0.67115077281E+02 -0.51758971513E+02 -0.73691556156E+02  0.11231148730E+03  0.00000000000E+00 0. -1.
          1    1    1    2  501    0 -0.10316109087E+02  0.86414347246E+02 -0.37295450605E+03  0.38297379166E+03  0.00000000000E+00 0. -1.
<scales pt_clust_3="14000.00000" pt_clust_4="41.50779" pt_clust_5="97.67911" pt_clust_6="90.61544"></scales>
<clustering>
<clus scale="   41.508">  1  4  2 -1</clus>
<clus scale="   90.615">  2  6  1 -1</clus>
<clus scale="   97.679">  1  5  2 -1</clus>
<clus scale="   41.508">  1  3  2 -1</clus>
</clustering>
</event>
<event>
 6    0  0.1361744E+002  0.1509592E+03  0.7546771E-02  0.1199299E+00
          2   -1    0    0  503    0 -0.00000000000E+00  0.00000000000E+00  0.15785442035E+03  0.15785442035E+03  0.00000000000E+00 0. -1.
         21   -1    0    0  505  502  0.00000000000E+00 -0.00000000000E+00 -0.28556235064E+03  0.28556235064E+03  0.00000000000E+00 0. -1.
         21    1    1    2  503  504 -0.70484393166E+01 -0.88995789045E+02 -0.17864323689E+03  0.19970812966E+03  0.00000000000E+00 0. -1.
         21    1    1    2  504  502  0.22315932410E+02 -0.48341120136E+02 -0.42890635558E+02  0.68370105704E+02  0.00000000000E+00 0. -1.
         21    1    1    2  505  501 -0.16840417379E+02  0.48145047444E+02  0.81482074871E+01  0.51652091305E+02  0.00000000000E+00 0. -1.
          2    1    1    2  501    0  0.15729242851E+01  0.89191861738E+02  0.85677734673E+02  0.12368644432E+03  0.00000000000E+00 0. -1.
<scales pt_clust_3="46.93830" pt_clust_4="46.93830" pt_clust_5="40.33773" pt_clust_6="148.12257"></scales>
<clustering>
<clus scale="   40.338">  5  6 -1 -1</clus>
<clus scale="   46.938">  3  4 -1 -1</clus>
<clus scale="  148.123">  1  5  2 -1</clus>
<clus scale="  150.959">  2  3  1 -1</clus>
</clustering>
</event>
<event>
 6    0  0.1361744E+002  0.1484009E+03  0.7546771E-02  0.1202452E+00
         21   -1    0    0  505  502  0.00000000000E+00  0.00000000000E+00  0.49329886388E+03  0.49329886388E+03  0.00000000000E+00 0. -1.
          3   -1    0    0  503    0 -0.00000000000E+00 -0.00000000000E+00 -0.44890385174E+03  0.44890385174E+03  0.00000000000E+00 0. -1.
         21    1    1    2  503  504 -0.76148422559E+02 -0.76786686939E+02 -0.24802431974E+02  0.11095016080E+03  0.00000000000E+00 0. -1.
         21    1    1    2  504  502  0.17993981371E+02 -0.24648877089E+02  0.11845783302E+03  0.12232583011E+03  0.00000000000E+00 0. -1.
         21    1    1    2  505  501 -0.22356768894E+02 -0.45004353294E+02  0.30928951258E+03  0.31334520823E+03  0.00000000000E+00 0. -1.
          3    1    1    2  501    0  0.80511210083E+02  0.14643991732E+03 -0.35854990148E+03  0.39558151649E+03  0.00000000000E+00 0. -1.
<scales pt_clust_3="14000.00000" pt_clust_4="30.51804" pt_clust_5="65.99108" pt_clust_6="148.40086"></scales>
<clustering>
<clus scale="   30.518">  1  4  2 -1</clus>
<clus scale="   65.991">  1  5  2 -1</clus>
<clus scale="  148.401">  2  6  1 -1</clus>
<clus scale="   30.518">  1  3  2 -1</clus>
</clustering>
</event>
<event>
 6    0  0.1361744E+002  0.1741060E+03  0.7546771E-02  0.1173632E+00
         21   -1    0    0  505  502  0.00000000000E+00  0.00000000000E+00  0.31966022331E+03  0.31966022331E+03  0.00000000000E+00 0. -1.
          2   -1    0    0  502    0 -0.00000000000E+00 -0.00000000000E+00 -0.10324340870E+04  0.10324340870E+04  0.00000000000E+00 0. -1.
         21    1    1    2  503  504  0.39294409919E+02 -0.75518802906E+02  0.22772449798E+03  0.24311640673E+03  0.00000000000E+00 0. -1.
         21    1    1    2  504  501 -0.24901647826E+02  0.35990491734E+02 -0.12605790518E+03  0.13343913601E+03  0.00000000000E+00 0.  1.
         21    1    1    2  505  503  0.26830121409E+02 -0.72083689952E+02  0.57176298730E+02  0.95838629521E+02  0.00000000000E+00 0.  1.
          2    1    1    2  501    0 -0.41222883502E+02  0.11161200112E+03 -0.87161675523E+03  0.87970013807E+03  0.00000000000E+00 0. -1.
<scales pt_clust_3="159.29660" pt_clust_4="42.61671" pt_clust_5="76.91498" pt_clust_6="42.61671"></scales>
<clustering>
<clus scale="   42.617">  4  6 -1 -1</clus>
<clus scale="   76.915">  1  5  2 -1</clus>
<clus scale="  159.297">  1  3  2 -1</clus>
<clus scale="   76.915">  1  3  2 -1</clus>
</clustering>
</event>
<event>
 6    0  0.1361744E+002  0.9804168E+02  0.7546771E-02  0.1284469E+00
          2   -1    0    0  503    0 -0.00000000000E+00  0.00000000000E+00  0.28541922857E+04  0.28541922857E+04  0.00000000000E+00 0.  1.
         21   -1    0    0  505  502  0.00000000000E+00 -0.00000000000E+00 -0.57427145465E+03  0.57427145465E+03  0.00000000000E+00 0. -1.
         21    1    1    2  503  504 -0.73680537049E+02  0.21993200476E+02  0.10853967782E+04  0.10881170380E+04  0.00000000000E+00 0.  1.
         21    1    1    2  504  502 -0.11170408138E+02 -0.32455899779E+02 -0.12582555973E+02  0.36557956223E+02  0.00000000000E+00 0. -1.
         21    1    1    2  505  501  0.75797648986E+02 -0.42023358194E+02 -0.54450922435E+03  0.55136334810E+03  0.00000000000E+00 0. -1.
          2    1    1    2  501    0  0.90532962012E+01  0.52486057497E+02  0.17516158332E+04  0.17524253980E+04  0.00000000000E+00 0.  1.
<scales pt_clust_3="14000.00000" pt_clust_4="34.32439" pt_clust_5="98.04168" pt_clust_6="53.23618"></scales>
<clustering>
<clus scale="   34.324">  2  4  1 -1</clus>
<clus scale="   53.236">  1  6  2 -1</clus>
<clus scale="   98.042">  2  5  1 -1</clus>
<clus scale="   34.324">  2  3  1 -1</clus>
</clustering>
</event>
<event>
 6    0  0.1361744E+002  0.1023224E+03  0.7546771E-02  0.1275487E+00
          2   -1    0    0  505    0 -0.00000000000E+00  0.00000000000E+00  0.33342208255E+04  0.33342208255E+04  0.00000000000E+00 0. -1.
         21   -1    0    0  503  502  0.00000000000E+00 -0.00000000000E+00 -0.15418678291E+03  0.15418678291E+03  0.00000000000E+00 0. -1.
         21    1    1    2  503  504 -0.37665581072E+02 -0.28084138223E+02 -0.93053331837E+02  0.10424172573E+03  0.00000000000E+00 0. -1.
         21    1    1    2  504  501 -0.44626002338E+02 -0.21204939681E+02 -0.40334266563E+02  0.63780738555E+02  0.00000000000E+00 0. -1.
         21    1    1    2  505  502 -0.30583380930E+02 -0.66400623687E+01  0.10682193810E+03  0.11131199430E+03  0.00000000000E+00 0.  1.
          2    1    1    2  501    0  0.11287496434E+03  0.55929140273E+02  0.32065997029E+04  0.32090731498E+04  0.00000000000E+00 0. -1.
<scales pt_clust_3="34.29035" pt_clust_4="34.29035" pt_clust_5="31.29590" pt_clust_6="96.08272"></scales>
<clustering>
<clus scale="   31.296">  1  5  2 -1</clus>
<clus scale="   34.290">  3  4 -1 -1</clus>
<clus scale="   96.083">  1  6  2 -1</clus>
<clus scale="  102.322">  2  3  1 -1</clus>
</clustering>
</event>
<event>
 6    0  0.1361744E+002  0.1064056E+03  0.7546771E-02  0.1267375E+00
          1   -1    0    0  505    0 -0.00000000000E+00  0.00000000000E+00  0.26103729609E+04  0.26103729609E+04  0.00000000000E+00 0. -1.
         21   -1    0    0  501  502  0.00000000000E+00 -0.00000000000E+00 -0.27619917335E+02  0.27619917335E+02  0.00000000000E+00 0. -1.
         21    1    1    2  503  504 -0.50044696068E+02  0.10416308460E+03  0.17180852975E+03  0.20705697451E+03  0.00000000000E+00 0. -1.
         21    1    1    2  504  502 -0.30066044706E+02  0.20082623156E+01  0.35434038085E+02  0.46514204462E+02  0.00000000000E+00 0.  1.
         21    1    1    2  505  503  0.44743966020E+02 -0.95836861555E+02  0.22735338084E+04  0.22759926855E+04  0.00000000000E+00 0. -1.
          1    1    1    2  501    0  0.35366774754E+02 -0.10334485365E+02  0.10197666732E+03  0.10842901375E+03  0.00000000000E+00 0. -1.
<scales pt_clust_3="14000.00000" pt_clust_4="30.13304" pt_clust_5="106.40555" pt_clust_6="32.56061"></scales>
<clustering>
<clus scale="   30.133">  2  4  1 -1</clus>
<clus scale="   32.561">  2  6  1 -1</clus>
<clus scale="  106.406">  1  5  2 -1</clus>
<clus scale="   30.133">  2  3  1 -1</clus>
</clustering>
</event>
<event>
 6    0  0.1361744E+002  0.1622170E+03  0.7546771E-02  0.1186216E+00
          2   -1    0    0  505    0 -0.00000000000E+00  0.00000000000E+00  0.16313073040E+04  0.16313073040E+04  0.00000000000E+00 0.  1.
         21   -1    0    0  503  502  0.00000000000E+00 -0.00000000000E+00 -0.83119074404E+03  0.83119074404E+03  0.00000000000E+00 0. -1.
         21    1    1    2  503  501 -0.31731273689E+02 -0.54217703312E+02 -0.17643406877E+02  0.65251229020E+02  0.00000000000E+00 0. -1.
         21    1    1    2  504  502  0.41804180781E+02  0.21567450602E+03 -0.76431666707E+03  0.79526288083E+03  0.00000000000E+00 0. -1.
         21    1    1    2  505  504 -0.73335771581E+02 -0.58224329655E+01  0.29715621986E+03  0.30612718782E+03  0.00000000000E+00 0.  1.
          2    1    1    2  501    0  0.63262864490E+02 -0.15563436974E+03  0.12849204141E+04  0.12958567504E+04  0.00000000000E+00 0.  1.
<scales pt_clust_3="62.82064" pt_clust_4="162.21698" pt_clust_5="73.77115" pt_clust_6="14000.00000"></scales>
<clustering>
<clus scale="   62.821">  2  3  1 -1</clus>
<clus scale="   73.771">  1  5  2 -1</clus>
<clus scale="  162.217">  2  4  1 -1</clus>
<clus scale="   62.821">  2  3  1 -1</clus>
</clustering>
</event>
<event>
 6    0  0.1361744E+002  0.1745716E+03  0.7546771E-02  0.1173162E+00
         21   -1    0    0  504  502  0.00000000000E+00  0.00000000000E+00  0.33232263709E+03  0.33232263709E+03  0.00000000000E+00 0.  1.
         -1   -1    0    0    0  501 -0.00000000000E+00 -0.00000000000E+00 -0.12474410579E+04  0.12474410579E+04  0.00000000000E+00 0.  1.
         21    1    1    2  503  502  0.72237861992E+02  0.88030105138E+02 -0.23780660604E+03  0.26366567845E+03  0.00000000000E+00 0. -1.
         21    1    1    2  504  505 -0.82441930091E+02  0.55233106925E+01  0.10726151077E+03  0.13539649365E+03  0.00000000000E+00 0.  1.
         21    1    1    2  505  501 -0.83650533937E+02 -0.48322916133E+02  0.18332022720E+03  0.20721684717E+03  0.00000000000E+00 0.  1.
         -1    1    1    2    0  503  0.93854602036E+02 -0.45230499698E+02 -0.96789355269E+03  0.97348467567E+03  0.00000000000E+00 0.  1.
<scales pt_clust_3="164.15729" pt_clust_4="54.92915" pt_clust_5="54.92915" pt_clust_6="104.18486"></scales>
<clustering>
<clus scale="   54.929">  4  5 -1 -1</clus>
<clus scale="  104.185">  2  6  1 -1</clus>
<clus scale="  164.157">  2  3  1 -1</clus>
<clus scale="  174.572">  1  3  2 -1</clus>
</clustering>
</event>
<event>
 6    0  0.1361744E+002  0.9262624E+02  0.7546771E-02  0.1296614E+00
          2   -1    0    0  504    0 -0.00000000000E+00  0.00000000000E+00  0.12595217957E+04  0.12595217957E+04  0.00000000000E+00 0. -1.
         21   -1    0    0  503  502  0.00000000000E+00 -0.00000000000E+00 -0.14372621795E+03  0.14372621795E+03  0.00000000000E+00 0.  1.
         21    1    1    2  503  501  0.54567968014E+01  0.45717366403E+02 -0.11619780334E+03  0.12498713423E+03  0.00000000000E+00 0.  1.
         21    1    1    2  504  505 -0.28638155273E+02  0.28503530241E+02  0.12638663963E+03  0.13268827322E+03  0.00000000000E+00 0. -1.
         21    1    1    2  505  502  0.31505394603E+02  0.50158370997E+02  0.37258005759E+02  0.69975789122E+02  0.00000000000E+00 0. -1.
          2    1    1    2  501    0 -0.83240361309E+01 -0.12437926764E+03  0.10683487357E+04  0.10755968171E+04  0.00000000000E+00 0. -1.
<scales pt_clust_3="46.13891" pt_clust_4="40.40539" pt_clust_5="92.62624" pt_clust_6="14000.00000"></scales>
<clustering>
<clus scale="   40.405">  1  4  2 -1</clus>
<clus scale="   46.139">  2  3  1 -1</clus>
<clus scale="   92.626">  2  5  1 -1</clus>
<clus scale="   46.139">  2  3  1 -1</clus>
</clustering>
</event>
<event>
 6    0  0.1361744E+002  0.7175881E+02  0.7546771E-02  0.1354212E+00
         21   -1    0    0  501  502  0.00000000000E+00  0.00000000000E+00  0.95920832447E+02  0.95920832447E+02  0.00000000000E+00 0.  1.
          3   -1    0    0  503    0 -0.00000000000E+00 -0.00000000000E+00 -0.74411557519E+03  0.74411557519E+03  0.00000000000E+00 0. -1.
         21    1    1    2  503  505 -0.95243794829E+01  0.54497268545E+02 -0.96007088475E+02  0.11080625939E+03  0.00000000000E+00 0.  1.
         21    1    1    2  504  502  0.14133493787E+02 -0.71601390818E+02  0.57578729834E+02  0.92961416421E+02  0.00000000000E+00 0.  1.
         21    1    1    2  505  504 -0.56105362853E+02 -0.27699746791E+02 -0.77324985278E+02  0.99469799746E+02  0.00000000000E+00 0.  1.
          3    1    1    2  501    0  0.51496248549E+02  0.44803869065E+02 -0.53244139882E+03  0.53679893208E+03  0.00000000000E+00 0. -1.
<scales pt_clust_3="55.32329" pt_clust_4="14000.00000" pt_clust_5="60.86261" pt_clust_6="71.75881"></scales>
<clustering>
<clus scale="   55.323">  2  3  1 -1</clus>
<clus scale="   60.863">  2  5  1 -1</clus>
<clus scale="   71.759">  2  6  1 -1</clus>
<clus scale="   71.759">  1  3  2 -1</clus>
</clustering>
</event>
<event>
 6    0  0.1361744E+002  0.9604130E+02  0.7546771E-02  0.1288848E+00
         21   -1    0    0  503  502  0.00000000000E+00  0.00000000000E+00  0.15497683840E+03  0.15497683840E+03  0.00000000000E+00 0. -1.
          1   -1    0    0  504    0 -0.00000000000E+00 -0.00000000000E+00 -0.44688899459E+03  0.44688899459E+03  0.00000000000E+00 0. -1.
         21    1    1    2  503  505  0.30472013203E+02  0.45527140274E+02  0.17952388941E+02  0.57650258966E+02  0.00000000000E+00 0. -1.
         21    1    1    2  504  502  0.69724528168E+02 -0.81477217490E+02  0.79163048621E+02  0.13329229184E+03  0.00000000000E+00 0. -1.
         21    1    1    2  505  501 -0.39676521889E+02  0.55155520146E+02 -0.17699591479E+03  0.18958879620E+03  0.00000000000E+00 0. -1.
          1    1    1    2  501    0 -0.60520019482E+02 -0.19205442931E+02 -0.21203167897E+03  0.22133448598E+03  0.00000000000E+00 0. -1.
<scales pt_clust_3="54.78379" pt_clust_4="14000.00000" pt_clust_5="96.04130" pt_clust_6="61.80955"></scales>
<clustering>
<clus scale="   54.784">  1  3  2 -1</clus>
<clus scale="   61.810">  2  6  1 -1</clus>
<clus scale="   96.041">  2  5  1 -1</clus>
<clus scale="   54.784">  1  3  2 -1</clus>
</clustering>
</event>
<event>
 6    0  0.1361744E+002  0.1734602E+03  0.7546771E-02  0.1174287E+00
         21   -1    0    0  503  502  0.00000000000E+00  0.00000000000E+00  0.99630150581E+02  0.99630150581E+02  0.00000000000E+00 0.  1.
          2   -1    0    0  504    0 -0.00000000000E+00 -0.00000000000E+00 -0.25493842574E+04  0.25493842574E+04  0.00000000000E+00 0. -1.
         21    1    1    2  503  501  0.75989102632E+01 -0.19518430795E+03 -0.36099355745E+02  0.19863992799E+03  0.00000000000E+00 0.  1.
         21    1    1    2  504  505  0.90264178530E+01  0.40569841971E+02 -0.18094643100E+03  0.18565828607E+03  0.00000000000E+00 0. -1.
         21    1    1    2  505  502 -0.70354824556E+02  0.29734092235E+02 -0.91470453686E+02  0.11916694792E+03  0.00000000000E+00 0.  1.
          2    1    1    2  501    0  0.53729496440E+02  0.12488037374E+03 -0.21412378664E+04  0.21455492460E+04  0.00000000000E+00 0. -1.
<scales pt_clust_3="173.46016" pt_clust_4="41.56186" pt_clust_5="76.73458" pt_clust_6="14000.00000"></scales>
<clustering>
<clus scale="   41.562">  2  4  1 -1</clus>
<clus scale="   76.735">  1  5  2 -1</clus>
<clus scale="  173.460">  1  3  2 -1</clus>
<clus scale="   76.735">  1  3  2 -1</clus>
</clustering>
</event>
<event>
 6    0  0.1361744E+002  0.4009070E+03  0.7546771E-02  0.1043466E+00
          2   -1    0    0  504    0 -0.00000000000E+00  0.00000000000E+00  0.18041010259E+04  0.18041010259E+04  0.00000000000E+00 0.  1.
         21   -1    0    0  501  502  0.00000000000E+00 -0.00000000000E+00 -0.11719739331E+03  0.11719739331E+03  0.00000000000E+00 0. -1.
         21    1    1    2  503  505  0.14318323179E+03  0.59115416470E+01  0.16548802643E+03  0.21891247356E+03  0.00000000000E+00 0. -1.
         21    1    1    2  504  503  0.27952042871E+03 -0.54044598691E+02  0.38058319377E+03  0.47528523656E+03  0.00000000000E+00 0. -1.
         21    1    1    2  505  502 -0.37830493263E+02  0.29028201370E+02  0.45296238962E+02  0.65768776478E+02  0.00000000000E+00 0.  1.
          2    1    1    2  501    0 -0.38487316724E+03  0.19104855674E+02  0.10955361734E+04  0.11613319326E+04  0.00000000000E+00 0.  1.
<scales pt_clust_3="37.01214" pt_clust_4="37.01214" pt_clust_5="47.68420" pt_clust_6="397.49836"></scales>
<clustering>
<clus scale="   37.012">  3  4 -1 -1</clus>
<clus scale="   47.684">  2  5  1 -1</clus>
<clus scale="  397.498">  1  6  2 -1</clus>
<clus scale="   47.684">  2  3  1 -1</clus>
</clustering>
</event>
<event>
 6    0  0.1361744E+002  0.2307371E+03  0.7546771E-02  0.1126122E+00
         21   -1    0    0  505  502  0.00000000000E+00  0.00000000000E+00  0.62040273410E+03  0.62040273410E+03  0.00000000000E+00 0.  1.
          2   -1    0    0  503    0 -0.00000000000E+00 -0.00000000000E+00 -0.58554897801E+03  0.58554897801E+03  0.00000000000E+00 0.  1.
         21    1    1    2  503  504  0.61033385095E+02  0.96284679267E+02  0.35911268611E+03  0.37677278947E+03  0.00000000000E+00 0.  1.
         21    1    1    2  504  502  0.67939374920E+02  0.63725521002E+02  0.21952339763E+03  0.23846849435E+03  0.00000000000E+00 0.  1.
         21    1    1    2  505  501 -0.28895186102E+02 -0.10768789150E+03 -0.20164967481E+03  0.23042179825E+03  0.00000000000E+00 0.  1.
          2    1    1    2  501    0 -0.10007757391E+03 -0.52322308766E+02 -0.34213265284E+03  0.36028863004E+03  0.00000000000E+00 0.  1.
<scales pt_clust_3="209.05052" pt_clust_4="34.59706" pt_clust_5="104.22463" pt_clust_6="104.22463"></scales>
<clustering>
<clus scale="   34.597">  3  4 -1 -1</clus>
<clus scale="  104.225">  5  6 -1 -1</clus>
<clus scale="  209.051">  1  3  2 -1</clus>
<clus scale="  209.051">  1  3  2 -1</clus>
</clustering>
</event>
<event>
 6    0  0.1361744E+002  0.9219895E+02  0.7546771E-02  0.1297612E+00
         21   -1    0    0  503  502  0.00000000000E+00  0.00000000000E+00  0.15295865283E+02  0.15295865283E+02  0.00000000000E+00 0.  1.
          4   -1    0    0  504    0 -0.00000000000E+00 -0.00000000000E+00 -0.20392736699E+04  0.20392736699E+04  0.00000000000E+00 0.  1.
         21    1    1    2  503  501  0.10947203550E+02 -0.38151297390E+02 -0.49984102840E+02  0.63826117654E+02  0.00000000000E+00 0.  1.
         21    1    1    2  504  505 -0.11582774236E+03  0.82437149261E+01 -0.96021844513E+03  0.96721429223E+03  0.00000000000E+00 0.  1.
         21    1    1    2  505  502  0.30628813406E+02 -0.11458543272E+02 -0.88337047343E+02  0.94195840449E+02  0.00000000000E+00 0.  1.
          4    1    1    2  501    0  0.74251725402E+02  0.41366125735E+02 -0.92543820934E+03  0.92933328489E+03  0.00000000000E+00 0.  1.
<scales pt_clust_3="52.67781" pt_clust_4="14000.00000" pt_clust_5="32.70202" pt_clust_6="92.19895"></scales>
<clustering>
<clus scale="   32.702">  1  5  2 -1</clus>
<clus scale="   52.678">  1  3  2 -1</clus>
<clus scale="   92.199">  2  6  1 -1</clus>
<clus scale="   32.702">  1  3  2 -1</clus>
</clustering>
</event>
<event>
 6    0  0.1361744E+002  0.8856108E+02  0.7546771E-02  0.1306374E+00
         21   -1    0    0  504  502  0.00000000000E+00  0.00000000000E+00  0.18718301844E+03  0.18718301844E+03  0.00000000000E+00 0.  1.
          2   -1    0    0  505    0 -0.00000000000E+00 -0.00000000000E+00 -0.10771880377E+04  0.10771880377E+04  0.00000000000E+00 0. -1.
         21    1    1    2  503  502 -0.53986762020E+02 -0.28148296168E+02 -0.84551871235E+01  0.61468587423E+02  0.00000000000E+00 0.  1.
         21    1    1    2  504  501 -0.12102920238E+02  0.90285039901E+02  0.13101819316E+03  0.15957329366E+03  0.00000000000E+00 0.  1.
         21    1    1    2  505  503  0.10848404287E+03 -0.12660553352E+02 -0.19772573682E+03  0.22588613098E+03  0.00000000000E+00 0. -1.
          2    1    1    2  501    0 -0.42394360612E+02 -0.49476190381E+02 -0.81484228853E+03  0.81744304413E+03  0.00000000000E+00 0. -1.
<scales pt_clust_3="60.88429" pt_clust_4="14000.00000" pt_clust_5="88.56108" pt_clust_6="65.61255"></scales>
<clustering>
<clus scale="   60.884">  1  3  2 -1</clus>
<clus scale="   65.613">  2  6  1 -1</clus>
<clus scale="   88.561">  2  5  1 -1</clus>
<clus scale="   60.884">  1  3  2 -1</clus>
</clustering>
</event>
<event>
 6    0  0.1361744E+002  0.8379251E+02  0.7546771E-02  0.1318621E+00
         21   -1    0    0  503  502  0.00000000000E+00  0.00000000000E+00  0.42993539118E+03  0.42993539118E+03  0.00000000000E+00 0. -1.
         -1   -1    0    0    0  501 -0.00000000000E+00 -0.00000000000E+00 -0.35956693227E+03  0.35956693227E+03  0.00000000000E+00 0. -1.
         21    1    1    2  503  501 -0.29765202388E+02  0.19127306192E+02 -0.46850462038E+01  0.35689925375E+02  0.00000000000E+00 0.  1.
         21    1    1    2  504  505 -0.55260089267E+02 -0.91822510089E+02  0.98024622026E+02  0.14523731390E+03  0.00000000000E+00 0. -1.
         21    1    1    2  505  502  0.76335708278E+02  0.30459522304E+02  0.28550520756E+03  0.29709955638E+03  0.00000000000E+00 0. -1.
         -1    1    1    2    0  504  0.86895833774E+01  0.42235681592E+02 -0.30847632448E+03  0.31147552780E+03  0.00000000000E+00 0. -1.
<scales pt_clust_3="35.38108" pt_clust_4="14000.00000" pt_clust_5="83.79251" pt_clust_6="62.50532"></scales>
<clustering>
<clus scale="   35.381">  2  3  1 -1</clus>
<clus scale="   62.505">  2  6  1 -1</clus>
<clus scale="   83.793">  1  5  2 -1</clus>
<clus scale="   83.793">  1  3  2 -1</clus>
</clustering>
</event>
<event>
 6    0  0.1361744E+002  0.1719344E+03  0.7546771E-02  0.1175846E+00
         21   -1    0    0  505  502  0.00000000000E+00  0.00000000000E+00  0.28812960839E+02  0.28812960839E+02  0.00000000000E+00 0. -1.
          2   -1    0    0  504    0 -0.00000000000E+00 -0.00000000000E+00 -0.97316181599E+03  0.97316181599E+03  0.00000000000E+00 0.  1.
         21    1    1    2  503  502 -0.46939690065E+02 -0.16708856584E+02 -0.13636939453E+03  0.14518654261E+03  0.00000000000E+00 0. -1.
         21    1    1    2  504  503 -0.97089664229E+02  0.72857438780E+02 -0.41106658556E+03  0.42861445035E+03  0.00000000000E+00 0. -1.
         21    1    1    2  505  501  0.69906493877E+02 -0.48458890218E+02 -0.18734319906E+03  0.20574901254E+03  0.00000000000E+00 0.  1.
          2    1    1    2  501    0  0.74122860418E+02 -0.76896919783E+01 -0.20956967600E+03  0.22242477132E+03  0.00000000000E+00 0.  1.
<scales pt_clust_3="48.21831" pt_clust_4="48.21831" pt_clust_5="40.75463" pt_clust_6="160.60186"></scales>
<clustering>
<clus scale="   40.755">  5  6 -1 -1</clus>
<clus scale="   48.218">  3  4 -1 -1</clus>
<clus scale="  160.602">  1  5  2 -1</clus>
<clus scale="  160.602">  1  3  2 -1</clus>
</clustering>
</event>
<event>
 6    0  0.1361744E+002  0.3641292E+03  0.7546771E-02  0.1056961E+00
         21   -1    0    0  503  502  0.00000000000E+00  0.00000000000E+00  0.19302354872E+03  0.19302354872E+03  0.00000000000E+00 0. -1.
          2   -1    0    0  505    0 -0.00000000000E+00 -0.00000000000E+00 -0.26271518151E+04  0.26271518151E+04  0.00000000000E+00 0.  1.
         21    1    1    2  503  501 -0.11435110403E+02  0.69505512897E+02 -0.35466968915E+03  0.36159696691E+03  0.00000000000E+00 0. -1.
         21    1    1    2  504  502  0.61162905961E+02 -0.10715963883E+03 -0.17650680825E+02  0.12464203060E+03  0.00000000000E+00 0.  1.
         21    1    1    2  505  504 -0.85730153026E+02 -0.22304468360E+03  0.16037759981E+02  0.23949070914E+03  0.00000000000E+00 0. -1.
          2    1    1    2  501    0  0.36002357467E+02  0.26069880953E+03 -0.20778456564E+04  0.20944456572E+04  0.00000000000E+00 0.  1.
<scales pt_clust_3="37.93317" pt_clust_4="108.86368" pt_clust_5="108.86368" pt_clust_6="339.13783"></scales>
<clustering>
<clus scale="   37.933">  3  6 -1 -1</clus>
<clus scale="  108.864">  4  5 -1 -1</clus>
<clus scale="  339.138">  2  3  1 -1</clus>
<clus scale="  364.129">  1  3  2 -1</clus>
</clustering>
</event>
<event>
 6    0  0.1361744E+002  0.1201391E+03  0.7546771E-02  0.1242868E+00
         -1   -1    0    0    0  501 -0.00000000000E+00  0.00000000000E+00  0.12095036181E+04  0.12095036181E+04  0.00000000000E+00 0.  1.
         21   -1    0    0  503  502  0.00000000000E+00 -0.00000000000E+00 -0.12149253007E+03  0.12149253007E+03  0.00000000000E+00 0. -1.
         21    1    1    2  503  504  0.69740499490E+01 -0.30341477893E+02 -0.12947951463E+00  0.31132931413E+02  0.00000000000E+00 0. -1.
         21    1    1    2  504  501  0.43846823209E+02  0.22270107791E+02  0.18817914043E+03  0.19449907583E+03  0.00000000000E+00 0.  1.
         21    1    1    2  505  502 -0.51996585417E+02 -0.84472037029E+02 -0.76039618254E+02  0.12498477299E+03  0.00000000000E+00 0. -1.
         -1    1    1    2    0  505  0.11757122593E+01  0.92543407131E+02  0.97600104533E+03  0.98037936789E+03  0.00000000000E+00 0.  1.
<scales pt_clust_3="31.13266" pt_clust_4="48.96204" pt_clust_5="120.13907" pt_clust_6="14000.00000"></scales>
<clustering>
<clus scale="   31.133">  2  3  1 -1</clus>
<clus scale="   48.962">  1  4  2 -1</clus>
<clus scale="  120.139">  2  5  1 -1</clus>
<clus scale="   31.133">  2  3  1 -1</clus>
</clustering>
</event>
<event>
 6    0  0.1361744E+002  0.1018959E+03  0.7546771E-02  0.1276359E+00
         21   -1    0    0  503  502  0.00000000000E+00  0.00000000000E+00  0.97349353784E+02  0.97349353784E+02  0.00000000000E+00 0.  1.
          1   -1    0    0  504    0 -0.00000000000E+00 -0.00000000000E+00 -0.21776941386E+04  0.21776941386E+04  0.00000000000E+00 0. -1.
         21    1    1    2  503  501 -0.20934520869E+00 -0.33993905220E+02 -0.67126854838E+02  0.75243897147E+02  0.00000000000E+00 0.  1.
         21    1    1    2  504  505  0.79552934848E+01  0.10528062796E+03  0.10086817373E+02  0.10606149727E+03  0.00000000000E+00 0.  1.
         21    1    1    2  505  502 -0.44265590959E+02  0.23986379837E+02  0.15270086124E+02  0.52611448287E+02  0.00000000000E+00 0. -1.
          1    1    1    2  501    0  0.36519642683E+02 -0.95273102574E+02 -0.20385748335E+04  0.20411266497E+04  0.00000000000E+00 0. -1.
<scales pt_clust_3="33.99455" pt_clust_4="14000.00000" pt_clust_5="45.83872" pt_clust_6="101.89587"></scales>
<clustering>
<clus scale="   33.995">  1  3  2 -1</clus>
<clus scale="   45.839">  1  5  2 -1</clus>
<clus scale="  101.896">  2  6  1 -1</clus>
<clus scale="   33.995">  1  3  2 -1</clus>
</clustering>
</event>
<event>
 6    0  0.1361744E+002  0.1054110E+03  0.7546771E-02  0.1269312E+00
          2   -1    0    0  505    0 -0.00000000000E+00  0.00000000000E+00  0.31505597559E+04  0.31505597559E+04  0.00000000000E+00 0. -1.
         21   -1    0    0  504  502  0.00000000000E+00 -0.00000000000E+00 -0.58769488727E+03  0.58769488727E+03  0.00000000000E+00 0.  1.
         21    1    1    2  503  501 -0.10701940505E+03 -0.93817692163E+02  0.88642965901E+03  0.89778196283E+03  0.00000000000E+00 0. -1.
         21    1    1    2  504  503  0.40376808669E+02  0.17680754682E+02 -0.96970020076E+01  0.45132334444E+02  0.00000000000E+00 0. -1.
         21    1    1    2  505  502  0.47127437573E+02 -0.24651842177E+02 -0.55214971701E+03  0.55470534403E+03  0.00000000000E+00 0.  1.
          2    1    1    2  501    0  0.19515158805E+02  0.10078877966E+03  0.22382819286E+04  0.22406350019E+04  0.00000000000E+00 0. -1.
<scales pt_clust_3="14000.00000" pt_clust_4="44.07829" pt_clust_5="87.30675" pt_clust_6="105.41098"></scales>
<clustering>
<clus scale="   44.078">  2  4  1 -1</clus>
<clus scale="   87.307">  2  5  1 -1</clus>
<clus scale="  105.411">  1  6  2 -1</clus>
<clus scale="   44.078">  2  3  1 -1</clus>
</clustering>
</event>
<event>
 6    0  0.1361744E+002  0.8701808E+02  0.7546771E-02  0.1310238E+00
         21   -1    0    0  504  502  0.00000000000E+00  0.00000000000E+00  0.52951348260E+03  0.52951348260E+03  0.00000000000E+00 0.  1.
          4   -1    0    0  503    0 -0.00000000000E+00 -0.00000000000E+00 -0.15444934073E+04  0.15444934073E+04  0.00000000000E+00 0.  1.
         21    1    1    2  503  505  0.38485181190E+02 -0.28688905202E+02 -0.90717527858E+03  0.90844435632E+03  0.00000000000E+00 0.  1.
         21    1    1    2  504  501  0.56091501532E+02 -0.37642760820E+01  0.50188613233E+02  0.75361284601E+02  0.00000000000E+00 0. -1.
         21    1    1    2  505  502 -0.11145514567E+02  0.78706151242E+02  0.45902256345E+03  0.46585469247E+03  0.00000000000E+00 0.  1.
          4    1    1    2  501    0 -0.83431168154E+02 -0.46252969958E+02 -0.61701582275E+03  0.62434655647E+03  0.00000000000E+00 0.  1.
<scales pt_clust_3="48.00169" pt_clust_4="57.01706" pt_clust_5="87.01808" pt_clust_6="14000.00000"></scales>
<clustering>
<clus scale="   48.002">  2  3  1 -1</clus>
<clus scale="   57.017">  1  4  2 -1</clus>
<clus scale="   87.018">  1  5  2 -1</clus>
<clus scale="   57.017">  1  3  2 -1</clus>
</clustering>
</event>
<event>
 6    0  0.1361744E+002  0.1358497E+03  0.7546771E-02  0.1219025E+00
         21   -1    0    0  501  502  0.00000000000E+00  0.00000000000E+00  0.95991288110E+03  0.95991288110E+03  0.00000000000E+00 0. -1.
          1   -1    0    0  504    0 -0.00000000000E+00 -0.00000000000E+00 -0.18261869826E+03  0.18261869826E+03  0.00000000000E+00 0.  1.
         21    1    1    2  503  502 -0.11768968423E+02 -0.13407202722E+03  0.75937801050E+03  0.77121253876E+03  0.00000000000E+00 0. -1.
         21    1    1    2  504  505 -0.27493534204E+02  0.52378091648E+02  0.45916707249E+02  0.74884597297E+02  0.00000000000E+00 0. -1.
         21    1    1    2  505  503 -0.28932323243E+02 -0.78344763871E+02  0.58682590699E+02  0.10207167974E+03  0.00000000000E+00 0. -1.
          1    1    1    2  501    0  0.68194825870E+02  0.16003869944E+03 -0.86683125616E+02  0.19436276357E+03  0.00000000000E+00 0.  1.
<scales pt_clust_3="135.84967" pt_clust_4="59.15538" pt_clust_5="78.61011" pt_clust_6="14000.00000"></scales>
<clustering>
<clus scale="   59.155">  2  4  1 -1</clus>
<clus scale="   78.610">  2  5  1 -1</clus>
<clus scale="  135.850">  1  3  2 -1</clus>
<clus scale="  135.850">  1  3  2 -1</clus>
</clustering>
</event>
<event>
 6    0  0.1361744E+002  0.1311417E+03  0.7546771E-02  0.1225771E+00
         21   -1    0    0  504  502  0.00000000000E+00  0.00000000000E+00  0.10683879450E+04  0.10683879450E+04  0.00000000000E+00 0. -1.
          1   -1    0    0  505    0 -0.00000000000E+00 -0.00000000000E+00 -0.24785798193E+03  0.24785798193E+03  0.00000000000E+00 0. -1.
         21    1    1    2  503  501  0.60638897367E+02 -0.27750911661E+02 -0.68400986578E+02  0.95529492497E+02  0.00000000000E+00 0. -1.
         21    1    1    2  504  503  0.97153152204E+01  0.40233412926E+02  0.64978905029E+02  0.77041371771E+02  0.00000000000E+00 0. -1.
         21    1    1    2  505  502 -0.12061931601E+03  0.47388893068E+01  0.97557347146E+03  0.98301326272E+03  0.00000000000E+00 0. -1.
          1    1    1    2  501    0  0.50265103421E+02 -0.17221390572E+02 -0.15162142679E+03  0.16066180000E+03  0.00000000000E+00 0. -1.
<scales pt_clust_3="48.11466" pt_clust_4="41.38979" pt_clust_5="119.56683" pt_clust_6="48.11466"></scales>
<clustering>
<clus scale="   41.390">  1  4  2 -1</clus>
<clus scale="   48.115">  3  6 -1 -1</clus>
<clus scale="  119.567">  1  5  2 -1</clus>
<clus scale="   41.390">  1  3  2 -1</clus>
</clustering>
</event>
<event>
 6    0  0.1361744E+002  0.1176567E+03  0.7546771E-02  0.1247014E+00
         21   -1    0    0  505  502  0.00000000000E+00  0.00000000000E+00  0.46654849340E+03  0.46654849340E+03  0.00000000000E+00 0.  1.
          2   -1    0    0  504    0 -0.00000000000E+00 -0.00000000000E+00 -0.74792408844E+03  0.74792408844E+03  0.00000000000E+00 0. -1.
         21    1    1    2  503  501 -0.27437003448E+02 -0.34219832442E+02  0.15185755885E+03  0.15806487362E+03  0.00000000000E+00 0.  1.
         21    1    1    2  504  502 -0.58455874836E+02  0.60877759083E+02 -0.53630659762E+02  0.99997192562E+02  0.00000000000E+00 0. -1.
         21    1    1    2  505  503 -0.29949329172E+02  0.27151943252E+02  0.28083764187E+03  0.28373221783E+03  0.00000000000E+00 0.  1.
          2    1    1    2  501    0  0.11584220746E+03 -0.53809869893E+02 -0.66044013600E+03  0.67267829783E+03  0.00000000000E+00 0. -1.
<scales pt_clust_3="53.84129" pt_clust_4="117.65672" pt_clust_5="40.42512" pt_clust_6="14000.00000"></scales>
<clustering>
<clus scale="   40.425">  1  5  2 -1</clus>
<clus scale="   53.841">  1  3  2 -1</clus>
<clus scale="  117.657">  1  4  2 -1</clus>
<clus scale="   40.425">  1  3  2 -1</clus>
</clustering>
</event>
<event>
 6    0  0.1361744E+002  0.2051911E+03  0.7546771E-02  0.1145432E+00
         21   -1    0    0  504  502  0.00000000000E+00  0.00000000000E+00  0.89198802235E+02  0.89198802235E+02  0.00000000000E+00 0. -1.
          1   -1    0    0  502    0 -0.00000000000E+00 -0.00000000000E+00 -0.22939147088E+04  0.22939147088E+04  0.00000000000E+00 0. -1.
         21    1    1    2  503  505 -0.35445837704E+02  0.90802467871E+02 -0.37024546997E+02  0.10427038248E+03  0.00000000000E+00 0. -1.
         21    1    1    2  504  503 -0.87863221687E+02  0.92194462443E+02 -0.51069315345E+02  0.13721457503E+03  0.00000000000E+00 0. -1.
         21    1    1    2  505  501 -0.10197383220E+01 -0.15180123178E+03 -0.57549546060E+03  0.59518037518E+03  0.00000000000E+00 0. -1.
          1    1    1    2  501    0  0.12432879771E+03 -0.31195698535E+02 -0.15411265836E+04  0.15464481784E+04  0.00000000000E+00 0. -1.
<scales pt_clust_3="37.74533" pt_clust_4="37.74533" pt_clust_5="200.60389" pt_clust_6="128.18277"></scales>
<clustering>
<clus scale="   37.745">  3  4 -1 -1</clus>
<clus scale="  128.183">  2  6  1 -1</clus>
<clus scale="  200.604">  2  5  1 -1</clus>
<clus scale="  205.191">  1  3  2 -1</clus>
</clustering>
</event>
<event>
 6    0  0.1361744E+002  0.1081397E+03  0.7546771E-02  0.1264054E+00
         21   -1    0    0  505  502  0.00000000000E+00  0.00000000000E+00  0.10626693486E+03  0.10626693486E+03  0.00000000000E+00 0.  1.
          1   -1    0    0  503    0 -0.00000000000E+00 -0.00000000000E+00 -0.98421650661E+03  0.98421650661E+03  0.00000000000E+00 0.  1.
         21    1    1    2  503  502 -0.42938334972E+01  0.31225393547E+02 -0.17426556569E+03  0.17709305349E+03  0.00000000000E+00 0.  1.
         21    1    1    2  504  501  0.45252291943E+02 -0.75263251038E+02 -0.15550255839E+03  0.17858715673E+03  0.00000000000E+00 0.  1.
         21    1    1    2  505  504 -0.60166865622E+02  0.94833061378E+02  0.57857346690E+02  0.12633619361E+03  0.00000000000E+00 0.  1.
          1    1    1    2  501    0  0.19208407176E+02 -0.50795203886E+02 -0.60603879435E+03  0.60846703765E+03  0.00000000000E+00 0.  1.
<scales pt_clust_3="31.51924" pt_clust_4="108.13975" pt_clust_5="14000.00000" pt_clust_6="31.67224"></scales>
<clustering>
<clus scale="   31.519">  2  3  1 -1</clus>
<clus scale="   31.672">  2  6  1 -1</clus>
<clus scale="  108.140">  2  4  1 -1</clus>
<clus scale="  108.140">  1  3  2 -1</clus>
</clustering>
</event>
<event>
 6    0  0.1361744E+002  0.1419765E+03  0.7546771E-02  0.1210694E+00
         -1   -1    0    0    0  501 -0.00000000000E+00  0.00000000000E+00  0.66017785250E+02  0.66017785250E+02  0.00000000000E+00 0. -1.
         21   -1    0    0  504  502  0.00000000000E+00 -0.00000000000E+00 -0.19526155875E+04  0.19526155875E+04  0.00000000000E+00 0. -1.
         21    1    1    2  503  501  0.30296722099E+02  0.52024555117E+01 -0.46007970225E+02  0.55332542301E+02  0.00000000000E+00 0.  1.
         21    1    1    2  504  503 -0.13550172103E+03  0.16274345112E+02 -0.17214143007E+04  0.17268157879E+04  0.00000000000E+00 0. -1.
         21    1    1    2  505  502 -0.88021184810E+01 -0.37075992033E+02 -0.11520880331E+03  0.12134733138E+03  0.00000000000E+00 0. -1.
         -1    1    1    2    0  505  0.11400711742E+03  0.15599191409E+02 -0.39667279968E+01  0.11513771113E+03  0.00000000000E+00 0. -1.
<scales pt_clust_3="30.74015" pt_clust_4="141.97650" pt_clust_5="37.52989" pt_clust_6="14000.00000"></scales>
<clustering>
<clus scale="   30.740">  1  3  2 -1</clus>
<clus scale="   37.530">  2  5  1 -1</clus>
<clus scale="  141.977">  2  4  1 -1</clus>
<clus scale="   37.530">  2  3  1 -1</clus>
</clustering>
</event>
<event>
 6    0  0.1361744E+002  0.1151016E+03  0.7546771E-02  0.1251404E+00
         21   -1    0    0  501  502  0.00000000000E+00  0.00000000000E+00  0.62562739979E+03  0.62562739979E+03  0.00000000000E+00 0. -1.
          1   -1    0    0  503    0 -0.00000000000E+00 -0.00000000000E+00 -0.18852034227E+03  0.18852034227E+03  0.00000000000E+00 0. -1.
         21    1    1    2  503  504  0.33163613651E+02  0.77122426958E+01  0.78024562843E+00  0.34057491702E+02  0.00000000000E+00 0.  1.
         21    1    1    2  504  505 -0.15754909313E+03 -0.12175161691E+02  0.37228354840E+03  0.40443168980E+03  0.00000000000E+00 0. -1.
         21    1    1    2  505  502  0.43045037613E+02  0.62186281097E+01  0.20681160845E+03  0.21133525023E+03  0.00000000000E+00 0. -1.
          1    1    1    2  501    0  0.81340441869E+02 -0.17557091148E+01 -0.14276834496E+03  0.16432331034E+03  0.00000000000E+00 0. -1.
<scales pt_clust_3="34.04855" pt_clust_4="115.10161" pt_clust_5="43.93836" pt_clust_6="14000.00000"></scales>
<clustering>
<clus scale="   34.049">  2  3  1 -1</clus>
<clus scale="   43.938">  1  5  2 -1</clus>
<clus scale="  115.102">  1  4  2 -1</clus>
<clus scale="   43.938">  1  3  2 -1</clus>
</clustering>
</event>
<event>
 6    0  0.1361744E+002  0.8575127E+02  0.7546771E-02  0.1313479E+00
         21   -1    0    0  505  502  0.00000000000E+00  0.00000000000E+00  0.83272266820E+02  0.83272266820E+02  0.00000000000E+00 0.  1.
          2   -1    0    0  503    0 -0.00000000000E+00 -0.00000000000E+00 -0.68611632791E+03  0.68611632791E+03  0.00000000000E+00 0. -1.
         21    1    1    2  503  504  0.17106060955E+02  0.38155334971E+02 -0.12362319630E+03  0.13050341594E+03  0.00000000000E+00 0. -1.
         21    1    1    2  504  502 -0.78618722730E+02  0.12805783123E+02 -0.16042150736E+03  0.17910877050E+03  0.00000000000E+00 0. -1.
         21    1    1    2  505  501 -0.78052016810E+00  0.34654924234E+02  0.58447096445E+02  0.67953190273E+02  0.00000000000E+00 0.  1.
          2    1    1    2  501    0  0.62293181943E+02 -0.85616042329E+02 -0.37724645387E+03  0.39182321802E+03  0.00000000000E+00 0. -1.
<scales pt_clust_3="47.24834" pt_clust_4="85.75127" pt_clust_5="34.66371" pt_clust_6="14000.00000"></scales>
<clustering>
<clus scale="   34.664">  1  5  2 -1</clus>
<clus scale="   47.248">  2  3  1 -1</clus>
<clus scale="   85.751">  1  4  2 -1</clus>
<clus scale="   34.664">  1  3  2 -1</clus>
</clustering>
</event>
<event>
 6    0  0.1361744E+002  0.6796600E+02  0.7546771E-02  0.1367150E+00
          2   -1    0    0  505    0 -0.00000000000E+00  0.00000000000E+00  0.79703242100E+03  0.79703242100E+03  0.00000000000E+00 0.  1.
         21   -1    0    0  504  502  0.00000000000E+00 -0.00000000000E+00 -0.23270820027E+03  0.23270820027E+03  0.00000000000E+00 0. -1.
         21    1    1    2  503  502  0.85991675589E+02 -0.18217806873E+02 -0.19202808664E+03  0.21119006325E+03  0.00000000000E+00 0. -1.
         21    1    1    2  504  501 -0.35300229100E+02 -0.63823440368E+01 -0.10485297666E+02  0.37373546220E+02  0.00000000000E+00 0. -1.
         21    1    1    2  505  503 -0.56733205179E+02 -0.47948558800E+02  0.32488599643E+03  0.33326960788E+03  0.00000000000E+00 0. -1.
          2    1    1    2  501    0  0.60417586908E+01  0.72548709710E+02  0.44195160860E+03  0.44790740391E+03  0.00000000000E+00 0.  1.
<scales pt_clust_3="57.34480" pt_clust_4="35.87256" pt_clust_5="67.96600" pt_clust_6="14000.00000"></scales>
<clustering>
<clus scale="   35.873">  2  4  1 -1</clus>
<clus scale="   57.345">  2  3  1 -1</clus>
<clus scale="   67.966">  2  5  1 -1</clus>
<clus scale="   35.873">  2  3  1 -1</clus>
</clustering>
</event>
<event>
 6    0  0.1361744E+002  0.1037762E+03  0.7546771E-02  0.1272550E+00
         21   -1    0    0  501  502  0.00000000000E+00  0.00000000000E+00  0.55449706369E+03  0.55449706369E+03  0.00000000000E+00 0. -1.
          2   -1    0    0  505    0 -0.00000000000E+00 -0.00000000000E+00 -0.65477355119E+03  0.65477355119E+03  0.00000000000E+00 0.  1.
         21    1    1    2  503  504  0.70301595677E+02 -0.28267567653E+02  0.95757490015E+02  0.12211005949E+03  0.00000000000E+00 0. -1.
         21    1    1    2  504  502 -0.10844933910E+03  0.56581832848E+02  0.42403610337E+03  0.44132684024E+03  0.00000000000E+00 0. -1.
         21    1    1    2  505  503 -0.80827814203E+01  0.56795153097E+02 -0.88189794911E+02  0.10520675215E+03  0.00000000000E+00 0.  1.
          2    1    1    2  501    0  0.46230524842E+02 -0.85109418293E+02 -0.53188028598E+03  0.54062696300E+03  0.00000000000E+00 0.  1.
<scales pt_clust_3="14000.00000" pt_clust_4="103.77616" pt_clust_5="57.36742" pt_clust_6="49.11062"></scales>
<clustering>
<clus scale="   57.367">  2  5  1 -1</clus>
<clus scale="   49.111">  2  6  1 -1</clus>
<clus scale="  103.776">  1  4  2 -1</clus>
<clus scale="  103.776">  1  3  2 -1</clus>
</clustering>
</event>
<event>
 6    0  0.1361744E+002  0.1776786E+03  0.7546771E-02  0.1170069E+00
          2   -1    0    0  504    0 -0.00000000000E+00  0.00000000000E+00  0.10752242231E+04  0.10752242231E+04  0.00000000000E+00 0.  1.
         21   -1    0    0  503  502  0.00000000000E+00 -0.00000000000E+00 -0.22972838409E+03  0.22972838409E+03  0.00000000000E+00 0. -1.
         21    1    1    2  503  505 -0.94193919094E+02  0.42067380571E+02  0.25877304378E+02  0.10635691696E+03  0.00000000000E+00 0.  1.
         21    1    1    2  504  502  0.29182463565E+03 -0.12436216449E+03 -0.26801366652E+02  0.31834867548E+03  0.00000000000E+00 0. -1.
         21    1    1    2  505  501 -0.40040600981E+02  0.17555401021E+02  0.52825122806E+02  0.68570660136E+02  0.00000000000E+00 0.  1.
          2    1    1    2  501    0 -0.15759011557E+03  0.64739382899E+02  0.79359477845E+03  0.81167635459E+03  0.00000000000E+00 0.  1.
<scales pt_clust_3="156.22287" pt_clust_4="14000.00000" pt_clust_5="34.64291" pt_clust_6="177.67856"></scales>
<clustering>
<clus scale="   34.643">  3  5 -1 -1</clus>
<clus scale="  156.223">  2  3  1 -1</clus>
<clus scale="  177.679">  1  6  2 -1</clus>
<clus scale="  156.223">  2  3  1 -1</clus>
</clustering>
</event>
<event>
 6    0  0.1361744E+002  0.1532148E+03  0.7546771E-02  0.1196577E+00
         21   -1    0    0  504  502  0.00000000000E+00  0.00000000000E+00  0.29519511040E+03  0.29519511040E+03  0.00000000000E+00 0.  1.
          2   -1    0    0  502    0 -0.00000000000E+00 -0.00000000000E+00 -0.73498757610E+03  0.73498757610E+03  0.00000000000E+00 0. -1.
         21    1    1    2  503  505  0.96815863317E+02  0.74928044892E+00  0.12591544585E+03  0.15883504750E+03  0.00000000000E+00 0.  1.
         21    1    1    2  504  503  0.43798831365E+02 -0.14723626254E+02  0.14091884734E+03  0.14830119465E+03  0.00000000000E+00 0.  1.
         21    1    1    2  505  501 -0.77264105848E+02  0.36948669692E+02 -0.37783750744E+03  0.38742241581E+03  0.00000000000E+00 0. -1.
          2    1    1    2  501    0 -0.63350588834E+02 -0.22974323887E+02 -0.32878925145E+03  0.33562402854E+03  0.00000000000E+00 0. -1.
<scales pt_clust_3="152.09251" pt_clust_4="38.86142" pt_clust_5="52.53030" pt_clust_6="52.53030"></scales>
<clustering>
<clus scale="   38.861">  3  4 -1 -1</clus>
<clus scale="   52.530">  5  6 -1 -1</clus>
<clus scale="  152.093">  1  3  2 -1</clus>
<clus scale="  152.093">  1  3  2 -1</clus>
</clustering>
</event>
<event>
 6    0  0.1361744E+002  0.2115842E+03  0.7546771E-02  0.1140318E+00
         -2   -1    0    0    0  501 -0.00000000000E+00  0.00000000000E+00  0.16218363993E+03  0.16218363993E+03  0.00000000000E+00 0. -1.
         21   -1    0    0  503  502  0.00000000000E+00 -0.00000000000E+00 -0.54579709151E+03  0.54579709151E+03  0.00000000000E+00 0. -1.
         21    1    1    2  503  504  0.68625776358E+02 -0.39859141873E+02 -0.25037913957E+03  0.26265559561E+03  0.00000000000E+00 0.  1.
         21    1    1    2  504  505  0.97612904206E+02 -0.68766451370E+02 -0.13254044269E+03  0.17839302916E+03  0.00000000000E+00 0. -1.
         21    1    1    2  505  501 -0.74000192962E+02 -0.40605942074E+02 -0.28948178780E+02  0.89234904297E+02  0.00000000000E+00 0.  1.
         -2    1    1    2    0  502 -0.92238487601E+02  0.14923153532E+03  0.28254309473E+02  0.17769720238E+03  0.00000000000E+00 0. -1.
<scales pt_clust_3="74.99374" pt_clust_4="74.99374" pt_clust_5="84.40895" pt_clust_6="190.54183"></scales>
<clustering>
<clus scale="   74.994">  3  4 -1 -1</clus>
<clus scale="   84.409">  1  5  2 -1</clus>
<clus scale="  190.542">  1  6  2 -1</clus>
<clus scale="  211.584">  2  3  1 -1</clus>
</clustering>
</event>
<event>
 6    0  0.1361744E+002  0.8922676E+02  0.7546771E-02  0.1304735E+00
         21   -1    0    0  504  502  0.00000000000E+00  0.00000000000E+00  0.83075349835E+02  0.83075349835E+02  0.00000000000E+00 0.  1.
          1   -1    0    0  503    0 -0.00000000000E+00 -0.00000000000E+00 -0.27609517006E+04  0.27609517006E+04  0.00000000000E+00 0.  1.
         21    1    1    2  503  505  0.57168402639E+02  0.68490670546E+02 -0.25858094232E+04  0.25873479803E+04  0.00000000000E+00 0.  1.
         21    1    1    2  504  501  0.14506700930E+02 -0.36386609694E+02 -0.41410589098E+02  0.57002338779E+02  0.00000000000E+00 0.  1.
         21    1    1    2  505  502 -0.57527318362E+02 -0.69686195914E+02  0.41285313103E+02  0.99348051500E+02  0.00000000000E+00 0.  1.
          1    1    1    2  501    0 -0.14147785207E+02  0.37582135062E+02 -0.91941651559E+02  0.10032867982E+03  0.00000000000E+00 0.  1.
<scales pt_clust_3="14000.00000" pt_clust_4="39.17180" pt_clust_5="89.22676" pt_clust_6="37.97523"></scales>
<clustering>
<clus scale="   39.172">  1  4  2 -1</clus>
<clus scale="   37.975">  1  6  2 -1</clus>
<clus scale="   89.227">  1  5  2 -1</clus>
<clus scale="   39.172">  1  3  2 -1</clus>
</clustering>
</event>
<event>
 6    0  0.1361744E+002  0.2781266E+03  0.7546771E-02  0.1096717E+00
          2   -1    0    0  505    0 -0.00000000000E+00  0.00000000000E+00  0.18223321743E+04  0.18223321743E+04  0.00000000000E+00 0.  1.
         21   -1    0    0  503  502  0.00000000000E+00 -0.00000000000E+00 -0.13069108087E+03  0.13069108087E+03  0.00000000000E+00 0.  1.
         21    1    1    2  503  504  0.34844638960E+02 -0.52467637143E+02 -0.10413420877E+02  0.63839181902E+02  0.00000000000E+00 0. -1.
         21    1    1    2  504  501  0.54353453336E+02 -0.20277478008E+02  0.11765776022E+02  0.59193812931E+02  0.00000000000E+00 0.  1.
         21    1    1    2  505  502 -0.27247427667E+03  0.20368069021E+02  0.15924738946E+04  0.16157444708E+04  0.00000000000E+00 0.  1.
          2    1    1    2  501    0  0.18327618438E+03  0.52377046130E+02  0.97814843672E+02  0.21424578961E+03  0.00000000000E+00 0.  1.
<scales pt_clust_3="62.98414" pt_clust_4="40.02253" pt_clust_5="268.49827" pt_clust_6="40.02253"></scales>
<clustering>
<clus scale="   40.023">  4  6 -1 -1</clus>
<clus scale="   62.984">  2  3  1 -1</clus>
<clus scale="  268.498">  1  5  2 -1</clus>
<clus scale="   62.984">  2  3  1 -1</clus>
</clustering>
</event>
<event>
 6    0  0.1361744E+002  0.2519225E+03  0.7546771E-02  0.1112096E+00
         21   -1    0    0  505  502  0.00000000000E+00  0.00000000000E+00  0.75584285938E+03  0.75584285938E+03  0.00000000000E+00 0.  1.
          3   -1    0    0  503    0 -0.00000000000E+00 -0.00000000000E+00 -0.10463240771E+04  0.10463240771E+04  0.00000000000E+00 0.  1.
         21    1    1    2  503  502  0.21072875950E+03  0.12922001477E+03 -0.70685395390E+03  0.74883037761E+03  0.00000000000E+00 0.  1.
         21    1    1    2  504  501  0.14425474839E+02 -0.46671740779E+02  0.11620077266E+03  0.12605143902E+03  0.00000000000E+00 0. -1.
         21    1    1    2  505  504  0.44052062329E+02 -0.20912380090E+02  0.55163244848E+03  0.55378359496E+03  0.00000000000E+00 0.  1.
          3    1    1    2  501    0 -0.26920629667E+03 -0.61635893896E+02 -0.25146048494E+03  0.37350152485E+03  0.00000000000E+00 0.  1.
<scales pt_clust_3="251.92253" pt_clust_4="71.78882" pt_clust_5="48.76384" pt_clust_6="14000.00000"></scales>
<clustering>
<clus scale="   48.764">  1  5  2 -1</clus>
<clus scale="   71.789">  1  4  2 -1</clus>
<clus scale="  251.923">  2  3  1 -1</clus>
<clus scale="   48.764">  1  3  2 -1</clus>
</clustering>
</event>
<event>
 6    0  0.1361744E+002  0.6865687E+02  0.7546771E-02  0.1364721E+00
          2   -1    0    0  504    0 -0.00000000000E+00  0.00000000000E+00  0.46583649999E+04  0.46583649999E+04  0.00000000000E+00 0. -1.
         21   -1    0    0  505  502  0.00000000000E+00 -0.00000000000E+00 -0.15128787972E+02  0.15128787972E+02  0.00000000000E+00 0. -1.
         21    1    1    2  503  502  0.10247775255E+02  0.97640760697E+02  0.21569967433E+03  0.23699173942E+03  0.00000000000E+00 0. -1.
         21    1    1    2  504  503 -0.62684242052E+02 -0.42783293491E+02  0.84578723693E+03  0.84918535937E+03  0.00000000000E+00 0. -1.
         21    1    1    2  505  501 -0.98335674236E+01 -0.30440479964E+02  0.10143395495E+03  0.10635868129E+03  0.00000000000E+00 0. -1.
          2    1    1    2  501    0  0.62270034221E+02 -0.24416987242E+02  0.34803153457E+04  0.34809580078E+04  0.00000000000E+00 0. -1.
<scales pt_clust_3="68.65687" pt_clust_4="14000.00000" pt_clust_5="31.98940" pt_clust_6="66.94063"></scales>
<clustering>
<clus scale="   31.989">  2  5  1 -1</clus>
<clus scale="   66.941">  1  6  2 -1</clus>
<clus scale="   68.657">  2  3  1 -1</clus>
<clus scale="   31.989">  2  3  1 -1</clus>
</clustering>
</event>
<event>
 6    0  0.1361744E+002  0.9277713E+02  0.7546771E-02  0.1296262E+00
         21   -1    0    0  504  502  0.00000000000E+00  0.00000000000E+00  0.81815060111E+02  0.81815060111E+02  0.00000000000E+00 0. -1.
         -1   -1    0    0    0  501 -0.00000000000E+00 -0.00000000000E+00 -0.94350166316E+03  0.94350166316E+03  0.00000000000E+00 0. -1.
         21    1    1    2  503  502 -0.13230276408E+02  0.63466852065E+02 -0.58041939592E+02  0.87016942468E+02  0.00000000000E+00 0. -1.
         21    1    1    2  504  505 -0.23362926392E+02 -0.11304735244E+03  0.12793039559E+02  0.11614298121E+03  0.00000000000E+00 0. -1.
         21    1    1    2  505  501  0.31236281096E+02 -0.80671193158E+00 -0.55349141911E+03  0.55437271494E+03  0.00000000000E+00 0. -1.
         -1    1    1    2    0  503  0.53569217042E+01  0.50387212305E+02 -0.26294628391E+03  0.26778408466E+03  0.00000000000E+00 0. -1.
<scales pt_clust_3="14000.00000" pt_clust_4="92.77713" pt_clust_5="31.24670" pt_clust_6="56.50825"></scales>
<clustering>
<clus scale="   31.247">  2  5  1 -1</clus>
<clus scale="   56.508">  2  6  1 -1</clus>
<clus scale="   92.777">  1  4  2 -1</clus>
<clus scale="   92.777">  1  3  2 -1</clus>
</clustering>
</event>
<event>
 6    0  0.1361744E+002  0.1488450E+03  0.7546771E-02  0.1201899E+00
         21   -1    0    0  505  502  0.00000000000E+00  0.00000000000E+00  0.53811441439E+03  0.53811441439E+03  0.00000000000E+00 0.  1.
          2   -1    0    0  502    0 -0.00000000000E+00 -0.00000000000E+00 -0.12759560612E+04  0.12759560612E+04  0.00000000000E+00 0.  1.
         21    1    1    2  503  504  0.47139876805E+02  0.14544973602E+02  0.12680956260E+03  0.13606759133E+03  0.00000000000E+00 0.  1.
         21    1    1    2  504  501 -0.21288855983E+02  0.15832257787E+03 -0.20957968046E+03  0.26352020134E+03  0.00000000000E+00 0.  1.
         21    1    1    2  505  503  0.31410635117E+02 -0.33953325200E+02  0.37281451765E+03  0.37567289077E+03  0.00000000000E+00 0.  1.
          2    1    1    2  501    0 -0.57261655939E+02 -0.13891422627E+03 -0.10278860466E+04  0.10388097922E+04  0.00000000000E+00 0.  1.
<scales pt_clust_3="73.43840" pt_clust_4="14000.00000" pt_clust_5="46.25426" pt_clust_6="148.84505"></scales>
<clustering>
<clus scale="   46.254">  1  5  2 -1</clus>
<clus scale="   73.438">  1  3  2 -1</clus>
<clus scale="  148.845">  2  6  1 -1</clus>
<clus scale="   46.254">  1  3  2 -1</clus>
</clustering>
</event>
<event>
 6    0  0.1361744E+002  0.1270221E+03  0.7546771E-02  0.1231942E+00
         21   -1    0    0  503  502  0.00000000000E+00  0.00000000000E+00  0.76231139130E+03  0.76231139130E+03  0.00000000000E+00 0.  1.
          2   -1    0    0  504    0 -0.00000000000E+00 -0.00000000000E+00 -0.80291390571E+03  0.80291390571E+03  0.00000000000E+00 0. -1.
         21    1    1    2  503  501 -0.87462980591E+01  0.36123167766E+02  0.16370215857E+02  0.40612374302E+02  0.00000000000E+00 0. -1.
         21    1    1    2  504  505 -0.40817895704E+02  0.11336493275E+02 -0.50821112547E+02  0.66161938983E+02  0.00000000000E+00 0. -1.
         21    1    1    2  505  502 -0.38271441158E+02 -0.15337688787E+03  0.71092689934E+03  0.72828993481E+03  0.00000000000E+00 0.  1.
          2    1    1    2  501    0  0.87835634921E+02  0.10591722683E+03 -0.71707851707E+03  0.73016104891E+03  0.00000000000E+00 0. -1.
<scales pt_clust_3="37.16693" pt_clust_4="42.55340" pt_clust_5="127.02213" pt_clust_6="14000.00000"></scales>
<clustering>
<clus scale="   37.167">  1  3  2 -1</clus>
<clus scale="   42.553">  2  4  1 -1</clus>
<clus scale="  127.022">  1  5  2 -1</clus>
<clus scale="   37.167">  1  3  2 -1</clus>
</clustering>
</event>
<event>
 6    0  0.1361744E+002  0.2189303E+03  0.7546771E-02  0.1134683E+00
          1   -1    0    0  504    0 -0.00000000000E+00  0.00000000000E+00  0.42829530274E+03  0.42829530274E+03  0.00000000000E+00 0.  1.
         21   -1    0    0  503  502  0.00000000000E+00 -0.00000000000E+00 -0.17085606988E+03  0.17085606988E+03  0.00000000000E+00 0.  1.
         21    1    1    2  503  501  0.30557440565E+02  0.65216930460E+02  0.71149508183E+02  0.10123861767E+03  0.00000000000E+00 0.  1.
         21    1    1    2  504  505 -0.74509586609E+02 -0.99831965496E+02 -0.52620259659E+02  0.13522940345E+03  0.00000000000E+00 0.  1.
         21    1    1    2  505  502 -0.42017422281E+02 -0.78183257961E+02  0.47042522272E+01  0.88883156950E+02  0.00000000000E+00 0.  1.
          1    1    1    2  501    0  0.85969568325E+02  0.11279829300E+03  0.23420573211E+03  0.27380019455E+03  0.00000000000E+00 0.  1.
<scales pt_clust_3="32.99883" pt_clust_4="43.55550" pt_clust_5="43.55550" pt_clust_6="217.74363"></scales>
<clustering>
<clus scale="   32.999">  3  6 -1 -1</clus>
<clus scale="   43.555">  4  5 -1 -1</clus>
<clus scale="  217.744">  1  3  2 -1</clus>
<clus scale="  218.930">  2  3  1 -1</clus>
</clustering>
</event>
<event>
 6    0  0.1361744E+002  0.9389038E+02  0.7546771E-02  0.1293695E+00
         -2   -1    0    0    0  501 -0.00000000000E+00  0.00000000000E+00  0.24393446596E+03  0.24393446596E+03  0.00000000000E+00 0. -1.
         21   -1    0    0  505  502  0.00000000000E+00 -0.00000000000E+00 -0.82739566945E+03  0.82739566945E+03  0.00000000000E+00 0.  1.
         21    1    1    2  503  502 -0.24106952290E+02 -0.73017260895E+02 -0.19752484861E+03  0.21196398599E+03  0.00000000000E+00 0.  1.
         21    1    1    2  504  501  0.78694412574E+02  0.34593047725E+02  0.12037336513E+03  0.14791631605E+03  0.00000000000E+00 0. -1.
         21    1    1    2  505  504 -0.72008408185E+02  0.77319114177E+02 -0.59962527736E+03  0.60886281667E+03  0.00000000000E+00 0.  1.
         -2    1    1    2    0  503  0.17420947901E+02 -0.38894901007E+02  0.93315557354E+02  0.10258701670E+03  0.00000000000E+00 0. -1.
<scales pt_clust_3="78.46319" pt_clust_4="93.89038" pt_clust_5="14000.00000" pt_clust_6="42.61810"></scales>
<clustering>
<clus scale="   42.618">  1  6  2 -1</clus>
<clus scale="   78.463">  2  3  1 -1</clus>
<clus scale="   93.890">  1  4  2 -1</clus>
<clus scale="   78.463">  2  3  1 -1</clus>
</clustering>
</event>
<event>
 6    0  0.1361744E+002  0.1440098E+03  0.7546771E-02  0.1208033E+00
          2   -1    0    0  503    0 -0.00000000000E+00  0.00000000000E+00  0.57081991700E+03  0.57081991700E+03  0.00000000000E+00 0.  1.
         21   -1    0    0  505  502  0.00000000000E+00 -0.00000000000E+00 -0.24096345604E+03  0.24096345604E+03  0.00000000000E+00 0.  1.
         21    1    1    2  503  504  0.36092852229E+02  0.46817159485E+00  0.65388111289E+02  0.74689478942E+02  0.00000000000E+00 0. -1.
         21    1    1    2  504  502 -0.70410787633E+02 -0.80689303422E+02 -0.18792875236E+03  0.21629992757E+03  0.00000000000E+00 0.  1.
         21    1    1    2  505  501  0.20100343225E+02 -0.59790120783E+02  0.20156969904E+02  0.66220735247E+02  0.00000000000E+00 0.  1.
          2    1    1    2  501    0  0.14217592179E+02  0.14001125261E+03  0.43224013213E+03  0.45457323129E+03  0.00000000000E+00 0.  1.
<scales pt_clust_3="36.09589" pt_clust_4="14000.00000" pt_clust_5="64.10054" pt_clust_6="144.00980"></scales>
<clustering>
<clus scale="   36.096">  1  3  2 -1</clus>
<clus scale="   64.101">  2  5  1 -1</clus>
<clus scale="  144.010">  1  6  2 -1</clus>
<clus scale="   64.101">  2  3  1 -1</clus>
</clustering>
</event>
<event>
 6    0  0.1361744E+002  0.1847909E+03  0.7546771E-02  0.1163245E+00
         21   -1    0    0  504  502  0.00000000000E+00  0.00000000000E+00  0.10528900606E+03  0.10528900606E+03  0.00000000000E+00 0.  1.
          2   -1    0    0  503    0 -0.00000000000E+00 -0.00000000000E+00 -0.13597537618E+04  0.13597537618E+04  0.00000000000E+00 0. -1.
         21    1    1    2  503  505 -0.90404646054E+02  0.10934392319E+03 -0.70976793027E+02  0.15864046998E+03  0.00000000000E+00 0.  1.
         21    1    1    2  504  501  0.35922638211E+02 -0.25195892286E+02 -0.17578088184E+03  0.18117446659E+03  0.00000000000E+00 0.  1.
         21    1    1    2  505  502 -0.15452601246E+02  0.36615522332E+02  0.46873419578E+02  0.61454022031E+02  0.00000000000E+00 0.  1.
          2    1    1    2  501    0  0.69934609088E+02 -0.12076355323E+03 -0.10545805005E+04  0.10637738093E+04  0.00000000000E+00 0. -1.
<scales pt_clust_3="174.78704" pt_clust_4="33.63065" pt_clust_5="39.74266" pt_clust_6="33.63065"></scales>
<clustering>
<clus scale="   33.631">  4  6 -1 -1</clus>
<clus scale="   39.743">  1  5  2 -1</clus>
<clus scale="  174.787">  1  3  2 -1</clus>
<clus scale="   39.743">  1  3  2 -1</clus>
</clustering>
</event>
<event>
 6    0  0.1361744E+002  0.9069462E+02  0.7546771E-02  0.1301178E+00
         21   -1    0    0  503  502  0.00000000000E+00  0.00000000000E+00  0.74299116060E+02  0.74299116060E+02  0.00000000000E+00 0. -1.
          2   -1    0    0  504    0 -0.00000000000E+00 -0.00000000000E+00 -0.59302846996E+03  0.59302846996E+03  0.00000000000E+00 0.  1.
         21    1    1    2  503  501  0.32231929628E+02 -0.64549152219E+02  0.21248922767E+02  0.75213077709E+02  0.00000000000E+00 0. -1.
         21    1    1    2  504  505 -0.24501259714E+02 -0.20368730197E+02 -0.59601088493E+02  0.67583183167E+02  0.00000000000E+00 0.  1.
         21    1    1    2  505  502 -0.32697919212E+02 -0.28266515385E+02 -0.16290920289E+02  0.46190300893E+02  0.00000000000E+00 0. -1.
          2    1    1    2  501    0  0.24967249298E+02  0.11318439780E+03 -0.46408626789E+03  0.47834102425E+03  0.00000000000E+00 0.  1.
<scales pt_clust_3="14000.00000" pt_clust_4="31.86215" pt_clust_5="45.10186" pt_clust_6="90.69462"></scales>
<clustering>
<clus scale="   31.862">  2  4  1 -1</clus>
<clus scale="   45.102">  1  5  2 -1</clus>
<clus scale="   90.695">  2  6  1 -1</clus>
<clus scale="   45.102">  1  3  2 -1</clus>
</clustering>
</event>
<event>
 6    0  0.1361744E+002  0.7603086E+02  0.7546771E-02  0.1340708E+00
          2   -1    0    0  505    0 -0.00000000000E+00  0.00000000000E+00  0.74097031150E+03  0.74097031150E+03  0.00000000000E+00 0.  1.
         21   -1    0    0  503  502  0.00000000000E+00 -0.00000000000E+00 -0.50732344713E+03  0.50732344713E+03  0.00000000000E+00 0.  1.
         21    1    1    2  503  504 -0.84287921267E+02  0.90315449726E+01 -0.37922311281E+03  0.38858228442E+03  0.00000000000E+00 0.  1.
         21    1    1    2  504  501  0.52579851064E+02 -0.35077130191E+02 -0.92892026906E+02  0.11235646160E+03  0.00000000000E+00 0.  1.
         21    1    1    2  505  502  0.38430538924E+02 -0.30886436129E+02  0.11366591677E+02  0.50597210053E+02  0.00000000000E+00 0.  1.
          2    1    1    2  501    0 -0.67224687216E+01  0.56932021348E+02  0.69439541242E+03  0.69675780256E+03  0.00000000000E+00 0.  1.
<scales pt_clust_3="76.03086" pt_clust_4="14000.00000" pt_clust_5="49.30394" pt_clust_6="40.84072"></scales>
<clustering>
<clus scale="   49.304">  1  5  2 -1</clus>
<clus scale="   40.841">  1  6  2 -1</clus>
<clus scale="   76.031">  2  3  1 -1</clus>
<clus scale="   76.031">  2  3  1 -1</clus>
</clustering>
</event>
<event>
 6    0  0.1361744E+002  0.1496474E+03  0.7546771E-02  0.1200907E+00
         21   -1    0    0  505  502  0.00000000000E+00  0.00000000000E+00  0.45405852315E+03  0.45405852315E+03  0.00000000000E+00 0. -1.
          2   -1    0    0  504    0 -0.00000000000E+00 -0.00000000000E+00 -0.41254826011E+04  0.41254826011E+04  0.00000000000E+00 0. -1.
         21    1    1    2  503  502 -0.70820030628E+02 -0.60795893586E+02  0.35756684120E+03  0.36954791752E+03  0.00000000000E+00 0. -1.
         21    1    1    2  504  503  0.28005278922E+02 -0.26553050086E+02 -0.83127329491E+02  0.91648857193E+02  0.00000000000E+00 0. -1.
         21    1    1    2  505  501 -0.21704330810E+02 -0.57964334418E+02  0.73357059797E+02  0.95980207660E+02  0.00000000000E+00 0. -1.
          2    1    1    2  501    0  0.64519082516E+02  0.14531327809E+03 -0.40192206495E+04  0.40223641419E+04  0.00000000000E+00 0. -1.
<scales pt_clust_3="14000.00000" pt_clust_4="38.59223" pt_clust_5="61.93683" pt_clust_6="149.64738"></scales>
<clustering>
<clus scale="   38.592">  2  4  1 -1</clus>
<clus scale="   61.937">  1  5  2 -1</clus>
<clus scale="  149.647">  2  6  1 -1</clus>
<clus scale="   61.937">  1  3  2 -1</clus>
</clustering>
</event>
<event>
 6    0  0.1361744E+002  0.1265022E+03  0.7546771E-02  0.1232740E+00
          2   -1    0    0  504    0 -0.00000000000E+00  0.00000000000E+00  0.22888106167E+04  0.22888106167E+04  0.00000000000E+00 0. -1.
         21   -1    0    0  501  502  0.00000000000E+00 -0.00000000000E+00 -0.75580721906E+02  0.75580721906E+02  0.00000000000E+00 0. -1.
         21    1    1    2  503  505  0.67978700348E+02  0.39541879238E+02  0.43584179256E+02  0.89912427373E+02  0.00000000000E+00 0.  1.
         21    1    1    2  504  503 -0.51080834505E+02 -0.10482955125E+01  0.99260115392E+03  0.99391518820E+03  0.00000000000E+00 0. -1.
         21    1    1    2  505  502  0.37900086138E+02  0.52893167677E+02 -0.27984606957E+02  0.70832492140E+02  0.00000000000E+00 0. -1.
          2    1    1    2  501    0 -0.54797951981E+02 -0.91386751403E+02  0.12050291686E+04  0.12097312309E+04  0.00000000000E+00 0. -1.
<scales pt_clust_3="126.50217" pt_clust_4="51.09159" pt_clust_5="64.56745" pt_clust_6="14000.00000"></scales>
<clustering>
<clus scale="   51.092">  1  4  2 -1</clus>
<clus scale="   64.567">  2  5  1 -1</clus>
<clus scale="  126.502">  2  3  1 -1</clus>
<clus scale="   64.567">  2  3  1 -1</clus>
</clustering>
</event>
<event>
 6    0  0.1361744E+002  0.1391481E+03  0.7546771E-02  0.1214480E+00
         21   -1    0    0  505  502  0.00000000000E+00  0.00000000000E+00  0.88385163437E+02  0.88385163437E+02  0.00000000000E+00 0.  1.
          2   -1    0    0  504    0 -0.00000000000E+00 -0.00000000000E+00 -0.19713997156E+04  0.19713997156E+04  0.00000000000E+00 0.  1.
         21    1    1    2  503  502  0.10905707551E+03 -0.28743127754E+02 -0.11832914945E+03  0.16346681841E+03  0.00000000000E+00 0. -1.
         21    1    1    2  504  503 -0.58935768688E+02  0.42627510291E+02 -0.32575804589E+03  0.33377961880E+03  0.00000000000E+00 0. -1.
         21    1    1    2  505  501 -0.56284426014E+02 -0.11462810128E+03 -0.78882742874E+01  0.12794437497E+03  0.00000000000E+00 0.  1.
          2    1    1    2  501    0  0.61631191911E+01  0.10074371875E+03 -0.14310390825E+04  0.14345940669E+04  0.00000000000E+00 0.  1.
<scales pt_clust_3="106.98116" pt_clust_4="72.73603" pt_clust_5="14000.00000" pt_clust_6="139.14808"></scales>
<clustering>
<clus scale="   72.736">  2  4  1 -1</clus>
<clus scale="  106.981">  1  3  2 -1</clus>
<clus scale="  139.148">  2  6  1 -1</clus>
<clus scale="  106.981">  1  3  2 -1</clus>
</clustering>
</event>
<event>
 6    0  0.1361744E+002  0.1398331E+03  0.7546771E-02  0.1213554E+00
         21   -1    0    0  503  502  0.00000000000E+00  0.00000000000E+00  0.72215894663E+02  0.72215894663E+02  0.00000000000E+00 0.  1.
         -1   -1    0    0    0  501 -0.00000000000E+00 -0.00000000000E+00 -0.38895924154E+03  0.38895924154E+03  0.00000000000E+00 0.  1.
         21    1    1    2  503  501  0.43043388435E+02  0.81094723262E+00 -0.28941875073E+02  0.51875071625E+02  0.00000000000E+00 0. -1.
         21    1    1    2  504  502 -0.32107981915E+02  0.12416719176E+03 -0.59805065468E+02  0.14150992852E+03  0.00000000000E+00 0.  1.
         21    1    1    2  505  504 -0.33013424787E+02 -0.88702936442E+02 -0.18231870368E+03  0.20542202136E+03  0.00000000000E+00 0.  1.
         -1    1    1    2    0  505  0.22078018268E+02 -0.36275202555E+02 -0.45677702660E+02  0.62368114701E+02  0.00000000000E+00 0.  1.
<scales pt_clust_3="43.05103" pt_clust_4="124.75262" pt_clust_5="42.31121" pt_clust_6="42.31121"></scales>
<clustering>
<clus scale="   42.311">  5  6 -1 -1</clus>
<clus scale="   43.051">  1  3  2 -1</clus>
<clus scale="  124.753">  1  4  2 -1</clus>
<clus scale="   43.051">  1  3  2 -1</clus>
</clustering>
</event>
<event>
 6    0  0.1361744E+002  0.1257023E+03  0.7546771E-02  0.1233976E+00
         21   -1    0    0  505  502  0.00000000000E+00  0.00000000000E+00  0.46265840893E+03  0.46265840893E+03  0.00000000000E+00 0.  1.
         -1   -1    0    0    0  501 -0.00000000000E+00 -0.00000000000E+00 -0.15413030572E+03  0.15413030572E+03  0.00000000000E+00 0.  1.
         21    1    1    2  503  501 -0.43620494523E+02 -0.35516086156E+02  0.28722930271E+02  0.63159691589E+02  0.00000000000E+00 0.  1.
         21    1    1    2  504  503  0.73833781066E+02  0.41041066862E+02  0.31285069704E+03  0.32405455565E+03  0.00000000000E+00 0.  1.
         21    1    1    2  505  504  0.20848869339E+02  0.73060280336E+02  0.60527942520E+02  0.97139650716E+02  0.00000000000E+00 0.  1.
         -1    1    1    2    0  502 -0.51062155881E+02 -0.78585261042E+02 -0.93573466632E+02  0.13243481670E+03  0.00000000000E+00 0.  1.
<scales pt_clust_3="56.25069" pt_clust_4="125.70232" pt_clust_5="69.94263" pt_clust_6="14000.00000"></scales>
<clustering>
<clus scale="   56.251">  2  3  1 -1</clus>
<clus scale="   69.943">  1  5  2 -1</clus>
<clus scale="  125.702">  1  4  2 -1</clus>
<clus scale="   69.943">  1  3  2 -1</clus>
</clustering>
</event>
<event>
 6    0  0.1361744E+002  0.1171214E+03  0.7546771E-02  0.1247923E+00
          2   -1    0    0  505    0 -0.00000000000E+00  0.00000000000E+00  0.13573202211E+04  0.13573202211E+04  0.00000000000E+00 0.  1.
         21   -1    0    0  501  502  0.00000000000E+00 -0.00000000000E+00 -0.15133604826E+03  0.15133604826E+03  0.00000000000E+00 0.  1.
         21    1    1    2  503  504  0.16903598884E+02  0.61170765430E+02  0.39453528432E+03  0.39960691282E+03  0.00000000000E+00 0.  1.
         21    1    1    2  504  502  0.10184237751E+03  0.56798559462E+02 -0.11184573429E+03  0.16157788986E+03  0.00000000000E+00 0.  1.
         21    1    1    2  505  503 -0.35342033223E+02  0.86961394584E+01  0.54477159772E+02  0.65516739011E+02  0.00000000000E+00 0. -1.
          2    1    1    2  501    0 -0.83403943167E+02 -0.12666546435E+03  0.86881746302E+03  0.88195472767E+03  0.00000000000E+00 0.  1.
<scales pt_clust_3="64.12191" pt_clust_4="14000.00000" pt_clust_5="36.39618" pt_clust_6="117.12137"></scales>
<clustering>
<clus scale="   36.396">  1  5  2 -1</clus>
<clus scale="   64.122">  1  3  2 -1</clus>
<clus scale="  117.121">  1  6  2 -1</clus>
<clus scale="  117.121">  2  3  1 -1</clus>
</clustering>
</event>
<event>
 6    0  0.1361744E+002  0.2884842E+03  0.7546771E-02  0.1091143E+00
         21   -1    0    0  504  502  0.00000000000E+00  0.00000000000E+00  0.30487631780E+04  0.30487631780E+04  0.00000000000E+00 0.  1.
         -2   -1    0    0    0  501 -0.00000000000E+00 -0.00000000000E+00 -0.35117133829E+03  0.35117133829E+03  0.00000000000E+00 0.  1.
         21    1    1    2  503  505 -0.50490853471E+02 -0.33497094842E+02 -0.19851115831E+02  0.63760869245E+02  0.00000000000E+00 0.  1.
         21    1    1    2  504  501  0.20160041845E+03  0.23036293404E+03  0.27214287094E+04  0.27385916144E+04  0.00000000000E+00 0.  1.
         21    1    1    2  505  502 -0.73690046184E+01 -0.36415620661E+02  0.25671800879E+03  0.25939262845E+03  0.00000000000E+00 0.  1.
         -2    1    1    2    0  503 -0.14374056036E+03 -0.16045021854E+03 -0.26070376259E+03  0.33818940426E+03  0.00000000000E+00 0.  1.
<scales pt_clust_3="45.99631" pt_clust_4="275.15731" pt_clust_5="37.15373" pt_clust_6="45.99631"></scales>
<clustering>
<clus scale="   37.154">  1  5  2 -1</clus>
<clus scale="   45.996">  3  6 -1 -1</clus>
<clus scale="  275.157">  1  4  2 -1</clus>
<clus scale="   37.154">  1  3  2 -1</clus>
</clustering>
</event>
<event>
 6    0  0.1361744E+002  0.1392182E+03  0.7546771E-02  0.1214385E+00
         21   -1    0    0  504  502  0.00000000000E+00  0.00000000000E+00  0.42421468293E+03  0.42421468293E+03  0.00000000000E+00 0. -1.
          2   -1    0    0  505    0 -0.00000000000E+00 -0.00000000000E+00 -0.86812746536E+02  0.86812746536E+02  0.00000000000E+00 0. -1.
         21    1    1    2  503  501  0.58216070015E+02 -0.67099061834E+02  0.12115005653E+03  0.15022892898E+03  0.00000000000E+00 0. -1.
         21    1    1    2  504  503  0.38397198263E+02 -0.32849986612E+02  0.18146015496E+03  0.18836468430E+03  0.00000000000E+00 0. -1.
         21    1    1    2  505  502 -0.45636192971E+02  0.93588582167E+02  0.54362804858E+02  0.11745977768E+03  0.00000000000E+00 0. -1.
          2    1    1    2  501    0 -0.50977075306E+02  0.63604662797E+01 -0.19571079952E+02  0.54974038496E+02  0.00000000000E+00 0. -1.
<scales pt_clust_3="46.17829" pt_clust_4="46.17829" pt_clust_5="125.03184" pt_clust_6="51.37234"></scales>
<clustering>
<clus scale="   46.178">  3  4 -1 -1</clus>
<clus scale="   51.372">  2  6  1 -1</clus>
<clus scale="  125.032">  2  5  1 -1</clus>
<clus scale="  139.218">  1  3  2 -1</clus>
</clustering>
</event>
<event>
 6    0  0.1361744E+002  0.1162066E+03  0.7546771E-02  0.1249490E+00
          2   -1    0    0  503    0 -0.00000000000E+00  0.00000000000E+00  0.20891991468E+04  0.20891991468E+04  0.00000000000E+00 0.  1.
         21   -1    0    0  505  502  0.00000000000E+00 -0.00000000000E+00 -0.21851462387E+02  0.21851462387E+02  0.00000000000E+00 0.  1.
         21    1    1    2  503  502  0.11132676233E+03  0.28295092160E+02  0.86232898789E+03  0.86994571302E+03  0.00000000000E+00 0.  1.
         21    1    1    2  504  501 -0.12795295615E+03  0.47206422395E+02  0.37620070448E+03  0.40015918751E+03  0.00000000000E+00 0.  1.
         21    1    1    2  505  504  0.28092035307E+02  0.12825587669E+02  0.65119362811E+02  0.72070726094E+02  0.00000000000E+00 0. -1.
          2    1    1    2  501    0 -0.11465841484E+02 -0.88327102224E+02  0.76369862919E+03  0.76887498251E+03  0.00000000000E+00 0.  1.
<scales pt_clust_3="116.20657" pt_clust_4="14000.00000" pt_clust_5="30.88136" pt_clust_6="86.84590"></scales>
<clustering>
<clus scale="   30.881">  2  5  1 -1</clus>
<clus scale="   86.846">  1  6  2 -1</clus>
<clus scale="  116.207">  1  3  2 -1</clus>
<clus scale="   30.881">  2  3  1 -1</clus>
</clustering>
</event>
<event>
 6    0  0.1361744E+002  0.1224499E+03  0.7546771E-02  0.1239109E+00
         21   -1    0    0  501  502  0.00000000000E+00  0.00000000000E+00  0.43769897570E+02  0.43769897570E+02  0.00000000000E+00 0. -1.
          2   -1    0    0  504    0 -0.00000000000E+00 -0.00000000000E+00 -0.24618830595E+04  0.24618830595E+04  0.00000000000E+00 0.  1.
         21    1    1    2  503  502  0.85585737765E+02 -0.90606894473E+02 -0.66768192793E+02  0.14139490586E+03  0.00000000000E+00 0. -1.
         21    1    1    2  504  505  0.38336909254E+02  0.25494175346E+02 -0.18697744457E+03  0.19256229217E+03  0.00000000000E+00 0.  1.
         21    1    1    2  505  503 -0.31294043413E+02  0.39991843821E+02 -0.26007012787E+03  0.26498138828E+03  0.00000000000E+00 0. -1.
          2    1    1    2  501    0 -0.92628603606E+02  0.25120875306E+02 -0.19042973967E+04  0.19067143708E+04  0.00000000000E+00 0.  1.
<scales pt_clust_3="122.44992" pt_clust_4="46.03989" pt_clust_5="50.64909" pt_clust_6="14000.00000"></scales>
<clustering>
<clus scale="   46.040">  2  4  1 -1</clus>
<clus scale="   50.649">  2  5  1 -1</clus>
<clus scale="  122.450">  1  3  2 -1</clus>
<clus scale="  122.450">  1  3  2 -1</clus>
</clustering>
</event>
<event>
 6    0  0.1361744E+002  0.1221411E+03  0.7546771E-02  0.1239606E+00
         21   -1    0    0  501  502  0.00000000000E+00  0.00000000000E+00  0.23349129203E+02  0.23349129203E+02  0.00000000000E+00 0.  1.
          1   -1    0    0  504    0 -0.00000000000E+00 -0.00000000000E+00 -0.15619341531E+04  0.15619341531E+04  0.00000000000E+00 0.  1.
         21    1    1    2  503  505  0.21007650541E+02 -0.58932876635E+02 -0.96963480910E+02  0.11539636892E+03  0.00000000000E+00 0.  1.
         21    1    1    2  504  503 -0.54560930677E+02  0.70739928985E+02 -0.58466420045E+03  0.59145013315E+03  0.00000000000E+00 0.  1.
         21    1    1    2  505  502  0.56288143870E+02 -0.39810935646E+02 -0.10498017122E+03  0.12559499228E+03  0.00000000000E+00 0.  1.
          1    1    1    2  501    0 -0.22734863734E+02  0.28003883296E+02 -0.75197717134E+03  0.75284178798E+03  0.00000000000E+00 0.  1.
<scales pt_clust_3="37.76466" pt_clust_4="115.53287" pt_clust_5="37.76466" pt_clust_6="36.07065"></scales>
<clustering>
<clus scale="   36.071">  2  6  1 -1</clus>
<clus scale="   37.765">  3  5 -1 -1</clus>
<clus scale="  115.533">  2  4  1 -1</clus>
<clus scale="  122.141">  1  3  2 -1</clus>
</clustering>
</event>
<event>
 6    0  0.1361744E+002  0.1843046E+03  0.7546771E-02  0.1163701E+00
         21   -1    0    0  505  502  0.00000000000E+00  0.00000000000E+00  0.37368464281E+02  0.37368464281E+02  0.00000000000E+00 0.  1.
          2   -1    0    0  503    0 -0.00000000000E+00 -0.00000000000E+00 -0.11414887575E+04  0.11414887575E+04  0.00000000000E+00 0. -1.
         21    1    1    2  503  504  0.53996401769E+02  0.31942077087E+02 -0.50957379000E+02  0.80824267193E+02  0.00000000000E+00 0.  1.
         21    1    1    2  504  502  0.10838876242E+03  0.25391270916E+02 -0.22479188860E+03  0.25084703235E+03  0.00000000000E+00 0.  1.
         21    1    1    2  505  501 -0.61749267476E+02 -0.43896339111E+02 -0.37697681014E+03  0.38451446788E+03  0.00000000000E+00 0. -1.
          2    1    1    2  501    0 -0.10063589672E+03 -0.13437008892E+02 -0.45139421551E+03  0.46267145439E+03  0.00000000000E+00 0. -1.
<scales pt_clust_3="49.29636" pt_clust_4="49.29636" pt_clust_5="37.34897" pt_clust_6="177.55402"></scales>
<clustering>
<clus scale="   37.349">  5  6 -1 -1</clus>
<clus scale="   49.296">  3  4 -1 -1</clus>
<clus scale="  177.554">  2  5  1 -1</clus>
<clus scale="  184.305">  1  3  2 -1</clus>
</clustering>
</event>
<event>
 6    0  0.1361744E+002  0.1430404E+03  0.7546771E-02  0.1209295E+00
         21   -1    0    0  504  502  0.00000000000E+00  0.00000000000E+00  0.45038312700E+02  0.45038312700E+02  0.00000000000E+00 0.  1.
          2   -1    0    0  502    0 -0.00000000000E+00 -0.00000000000E+00 -0.13991019314E+04  0.13991019314E+04  0.00000000000E+00 0. -1.
         21    1    1    2  503  501 -0.36687824098E+02  0.38333499820E+02 -0.29934621594E+03  0.30401251725E+03  0.00000000000E+00 0.  1.
         21    1    1    2  504  505  0.63224010433E+02  0.15861150241E+02 -0.60234236716E+02  0.88752548442E+02  0.00000000000E+00 0.  1.
         21    1    1    2  505  503  0.55208208443E+02 -0.93133358916E+02 -0.85668232145E+02  0.13806090982E+03  0.00000000000E+00 0.  1.
          2    1    1    2  501    0 -0.81744394778E+02  0.38938708856E+02 -0.90881493385E+03  0.91331426854E+03  0.00000000000E+00 0. -1.
<scales pt_clust_3="36.18199" pt_clust_4="65.18322" pt_clust_5="135.00591" pt_clust_6="36.18199"></scales>
<clustering>
<clus scale="   36.182">  3  6 -1 -1</clus>
<clus scale="   65.183">  1  4  2 -1</clus>
<clus scale="  135.006">  1  5  2 -1</clus>
<clus scale="   65.183">  1  3  2 -1</clus>
</clustering>
</event>
<event>
 6    0  0.1361744E+002  0.2309754E+03  0.7546771E-02  0.1125955E+00
         21   -1    0    0  503  502  0.00000000000E+00  0.00000000000E+00  0.54128250985E+03  0.54128250985E+03  0.00000000000E+00 0. -1.
          1   -1    0    0  504    0 -0.00000000000E+00 -0.00000000000E+00 -0.12693906283E+04  0.12693906283E+04  0.00000000000E+00 0.  1.
         21    1    1    2  503  505 -0.24393754622E+02 -0.10685973844E+03  0.21468130456E+03  0.24104381654E+03  0.00000000000E+00 0. -1.
         21    1    1    2  504  502 -0.96277144738E+02  0.21427381312E+03 -0.78282937688E+03  0.81731535462E+03  0.00000000000E+00 0.  1.
         21    1    1    2  505  501  0.69273769335E+01 -0.12132729589E+03  0.27598705921E+03  0.30155788520E+03  0.00000000000E+00 0. -1.
          1    1    1    2  501    0  0.11374352243E+03  0.13913221202E+02 -0.43594710531E+03  0.45075608176E+03  0.00000000000E+00 0.  1.
<scales pt_clust_3="34.06745" pt_clust_4="228.17289" pt_clust_5="34.06745" pt_clust_6="114.59130"></scales>
<clustering>
<clus scale="   34.067">  3  5 -1 -1</clus>
<clus scale="  114.591">  2  6  1 -1</clus>
<clus scale="  228.173">  2  4  1 -1</clus>
<clus scale="  230.975">  1  3  2 -1</clus>
</clustering>
</event>
<event>
 6    0  0.1361744E+002  0.1778512E+03  0.7546771E-02  0.1169899E+00
         21   -1    0    0  505  502  0.00000000000E+00  0.00000000000E+00  0.20474257379E+04  0.20474257379E+04  0.00000000000E+00 0.  1.
          2   -1    0    0  504    0 -0.00000000000E+00 -0.00000000000E+00 -0.14348430372E+03  0.14348430372E+03  0.00000000000E+00 0.  1.
         21    1    1    2  503  501  0.10833516953E+03 -0.45851622582E+01 -0.45526346549E+02  0.11760178952E+03  0.00000000000E+00 0. -1.
         21    1    1    2  504  502 -0.21179291410E+02  0.37480527287E+02  0.16670533005E+03  0.17217438653E+03  0.00000000000E+00 0.  1.
         21    1    1    2  505  503 -0.12043523148E+03  0.28950684840E+02  0.18182372649E+04  0.18224515188E+04  0.00000000000E+00 0.  1.
          2    1    1    2  501    0  0.33279353369E+02 -0.61846049869E+02 -0.35474814189E+02  0.78682346729E+02  0.00000000000E+00 0.  1.
<scales pt_clust_3="69.58388" pt_clust_4="43.05058" pt_clust_5="155.34659" pt_clust_6="69.58388"></scales>
<clustering>
<clus scale="   43.051">  1  4  2 -1</clus>
<clus scale="   69.584">  3  6 -1 -1</clus>
<clus scale="  155.347">  1  5  2 -1</clus>
<clus scale="   43.051">  1  3  2 -1</clus>
</clustering>
</event>
<event>
 6    0  0.1361744E+002  0.8545493E+02  0.7546771E-02  0.1314247E+00
         -1   -1    0    0    0  501 -0.00000000000E+00  0.00000000000E+00  0.14363515222E+04  0.14363515222E+04  0.00000000000E+00 0. -1.
         21   -1    0    0  505  502  0.00000000000E+00 -0.00000000000E+00 -0.62159869881E+02  0.62159869881E+02  0.00000000000E+00 0.  1.
         21    1    1    2  503  502 -0.10661687365E+03 -0.20046841978E+02  0.53767696302E+02  0.12107848193E+03  0.00000000000E+00 0.  1.
         21    1    1    2  504  503  0.74630138934E+02  0.22220278317E+02  0.28564400804E+03  0.29606738716E+03  0.00000000000E+00 0.  1.
         21    1    1    2  505  501  0.64595290046E+02  0.31314869166E+02  0.33887427023E+02  0.79382178335E+02  0.00000000000E+00 0.  1.
         -1    1    1    2    0  504 -0.32608555330E+02 -0.33488305506E+02  0.10008925209E+04  0.10019833446E+04  0.00000000000E+00 0. -1.
<scales pt_clust_3="85.45493" pt_clust_4="52.82292" pt_clust_5="14000.00000" pt_clust_6="46.74168"></scales>
<clustering>
<clus scale="   46.742">  1  6  2 -1</clus>
<clus scale="   52.823">  1  4  2 -1</clus>
<clus scale="   85.455">  1  3  2 -1</clus>
<clus scale="   85.455">  2  3  1 -1</clus>
</clustering>
</event>
<event>
 6    0  0.1361744E+002  0.8185229E+02  0.7546771E-02  0.1323876E+00
         21   -1    0    0  504  502  0.00000000000E+00  0.00000000000E+00  0.23390381887E+04  0.23390381887E+04  0.00000000000E+00 0.  1.
          4   -1    0    0  505    0 -0.00000000000E+00 -0.00000000000E+00 -0.27842559169E+04  0.27842559169E+04  0.00000000000E+00 0.  1.
         21    1    1    2  503  502 -0.48570583806E+02  0.23181682028E+01  0.19399056842E+04  0.19405150190E+04  0.00000000000E+00 0.  1.
         21    1    1    2  504  501 -0.32910405928E+02  0.90709177962E+01  0.38717526675E+03  0.38867732575E+03  0.00000000000E+00 0.  1.
         21    1    1    2  505  503  0.44321974613E+02 -0.80283225282E+02 -0.19366317945E+03  0.21427846548E+03  0.00000000000E+00 0. -1.
          4    1    1    2  501    0  0.37159015122E+02  0.68894139283E+02 -0.25786354997E+04  0.25798232954E+04  0.00000000000E+00 0.  1.
<scales pt_clust_3="14000.00000" pt_clust_4="34.13761" pt_clust_5="81.85229" pt_clust_6="78.27408"></scales>
<clustering>
<clus scale="   34.138">  1  4  2 -1</clus>
<clus scale="   78.274">  2  6  1 -1</clus>
<clus scale="   81.852">  2  5  1 -1</clus>
<clus scale="   34.138">  1  3  2 -1</clus>
</clustering>
</event>
<event>
 6    0  0.1361744E+002  0.1355812E+03  0.7546771E-02  0.1219402E+00
         21   -1    0    0  501  502  0.00000000000E+00  0.00000000000E+00  0.24515807664E+04  0.24515807664E+04  0.00000000000E+00 0. -1.
         -1   -1    0    0    0  501 -0.00000000000E+00 -0.00000000000E+00 -0.22143770699E+02  0.22143770699E+02  0.00000000000E+00 0.  1.
         21    1    1    2  503  504 -0.34894867960E+02 -0.18589791438E+02  0.29145176341E+02  0.49118972502E+02  0.00000000000E+00 0.  1.
         21    1    1    2  504  505  0.49723145086E+02 -0.17079694026E+02  0.70735971133E+03  0.70931084041E+03  0.00000000000E+00 0. -1.
         21    1    1    2  505  502  0.72698323611E+02  0.32116883135E+02  0.15138611282E+04  0.15159459278E+04  0.00000000000E+00 0. -1.
         -1    1    1    2    0  503 -0.87526600737E+02  0.35526023292E+01  0.17907097986E+03  0.19934879646E+03  0.00000000000E+00 0.  1.
<scales pt_clust_3="37.82050" pt_clust_4="42.51592" pt_clust_5="133.96144" pt_clust_6="37.82050"></scales>
<clustering>
<clus scale="   37.820">  3  6 -1 -1</clus>
<clus scale="   42.516">  4  5 -1 -1</clus>
<clus scale="  133.961">  1  4  2 -1</clus>
<clus scale="  133.961">  1  3  2 -1</clus>
</clustering>
</event>
<event>
 6    0  0.1361744E+002  0.9999742E+02  0.7546771E-02  0.1280301E+00
          2   -1    0    0  504    0 -0.00000000000E+00  0.00000000000E+00  0.96594280041E+03  0.96594280041E+03  0.00000000000E+00 0.  1.
         21   -1    0    0  503  502  0.00000000000E+00 -0.00000000000E+00 -0.46189367814E+02  0.46189367814E+02  0.00000000000E+00 0. -1.
         21    1    1    2  503  505  0.37780587683E+02  0.61934227422E+02  0.11667266959E+03  0.13738898486E+03  0.00000000000E+00 0.  1.
         21    1    1    2  504  502 -0.10171484558E+03 -0.84778965432E+02  0.10592739305E+03  0.16957003093E+03  0.00000000000E+00 0. -1.
         21    1    1    2  505  501  0.47503509318E+02  0.53252858128E+02  0.45339561494E+03  0.45897716059E+03  0.00000000000E+00 0.  1.
          2    1    1    2  501    0  0.16430748582E+02 -0.30408120118E+02  0.24375775501E+03  0.24619599184E+03  0.00000000000E+00 0.  1.
<scales pt_clust_3="99.99742" pt_clust_4="14000.00000" pt_clust_5="67.15090" pt_clust_6="34.56332"></scales>
<clustering>
<clus scale="   34.563">  1  6  2 -1</clus>
<clus scale="   67.151">  1  5  2 -1</clus>
<clus scale="   99.997">  2  3  1 -1</clus>
<clus scale="   99.997">  2  3  1 -1</clus>
</clustering>
</event>
<event>
 6    0  0.1361744E+002  0.9201310E+02  0.7546771E-02  0.1298049E+00
         21   -1    0    0  505  502  0.00000000000E+00  0.00000000000E+00  0.76350114187E+02  0.76350114187E+02  0.00000000000E+00 0.  1.
         -1   -1    0    0    0  501 -0.00000000000E+00 -0.00000000000E+00 -0.91390924017E+03  0.91390924017E+03  0.00000000000E+00 0.  1.
         21    1    1    2  503  501 -0.35153406828E+02  0.10481089866E+01 -0.28254504487E+03  0.28472541672E+03  0.00000000000E+00 0.  1.
         21    1    1    2  504  502  0.65471785838E+02 -0.59222148539E+02  0.22199574007E+02  0.91030976620E+02  0.00000000000E+00 0.  1.
         21    1    1    2  505  503 -0.61635186204E+02  0.10183209558E+03 -0.19447422680E+03  0.22801073825E+03  0.00000000000E+00 0.  1.
         -1    1    1    2    0  504  0.31316807194E+02 -0.43658056029E+02 -0.38273942832E+03  0.38649222277E+03  0.00000000000E+00 0.  1.
<scales pt_clust_3="35.16903" pt_clust_4="14000.00000" pt_clust_5="92.01310" pt_clust_6="44.13508"></scales>
<clustering>
<clus scale="   35.169">  2  3  1 -1</clus>
<clus scale="   44.135">  2  6  1 -1</clus>
<clus scale="   92.013">  2  5  1 -1</clus>
<clus scale="   92.013">  1  3  2 -1</clus>
</clustering>
</event>
<event>
 6    0  0.1361744E+002  0.9761873E+02  0.7546771E-02  0.1285385E+00
          1   -1    0    0  504    0 -0.00000000000E+00  0.00000000000E+00  0.23642652818E+04  0.23642652818E+04  0.00000000000E+00 0.  1.
         21   -1    0    0  505  502  0.00000000000E+00 -0.00000000000E+00 -0.43892577153E+02  0.43892577153E+02  0.00000000000E+00 0. -1.
         21    1    1    2  503  501 -0.58207878274E+02  0.35971882779E+02 -0.22651537250E+01  0.68463598834E+02  0.00000000000E+00 0. -1.
         21    1    1    2  504  502  0.18859862345E+02 -0.76274048204E+02  0.99260999925E+03  0.99571483641E+03  0.00000000000E+00 0.  1.
         21    1    1    2  505  503 -0.35076056025E+02  0.15705881099E+02  0.58234674638E+02  0.69773073156E+02  0.00000000000E+00 0.  1.
          1    1    1    2  501    0  0.74424071954E+02  0.24596284325E+02  0.12717931845E+04  0.12742063506E+04  0.00000000000E+00 0.  1.
<scales pt_clust_3="97.61873" pt_clust_4="14000.00000" pt_clust_5="38.43182" pt_clust_6="77.48942"></scales>
<clustering>
<clus scale="   38.432">  2  5  1 -1</clus>
<clus scale="   77.489">  1  6  2 -1</clus>
<clus scale="   97.619">  2  3  1 -1</clus>
<clus scale="   38.432">  2  3  1 -1</clus>
</clustering>
</event>
<event>
 6    0  0.1361744E+002  0.2451559E+03  0.7546771E-02  0.1116405E+00
         21   -1    0    0  501  502  0.00000000000E+00  0.00000000000E+00  0.31040699267E+02  0.31040699267E+02  0.00000000000E+00 0.  1.
          2   -1    0    0  504    0 -0.00000000000E+00 -0.00000000000E+00 -0.33524451721E+04  0.33524451721E+04  0.00000000000E+00 0. -1.
         21    1    1    2  503  505  0.59364582234E+02 -0.62700109446E+01 -0.13583884899E+03  0.14837674870E+03  0.00000000000E+00 0.  1.
         21    1    1    2  504  503  0.50198311878E+02  0.60207368693E+01 -0.42638103805E+03  0.42936803490E+03  0.00000000000E+00 0. -1.
         21    1    1    2  505  502  0.14485130618E+03 -0.98886494923E+02 -0.49501433567E+03  0.52516629014E+03  0.00000000000E+00 0.  1.
          2    1    1    2  501    0 -0.25441420029E+03  0.99135768999E+02 -0.22641702501E+04  0.22805747976E+04  0.00000000000E+00 0. -1.
<scales pt_clust_3="31.53876" pt_clust_4="50.55808" pt_clust_5="31.53876" pt_clust_6="239.12124"></scales>
<clustering>
<clus scale="   31.539">  3  5 -1 -1</clus>
<clus scale="   50.558">  2  4  1 -1</clus>
<clus scale="  239.121">  2  6  1 -1</clus>
<clus scale="  245.156">  1  3  2 -1</clus>
</clustering>
</event>
<event>
 6    0  0.1361744E+002  0.9292263E+02  0.7546771E-02  0.1295925E+00
          2   -1    0    0  503    0 -0.00000000000E+00  0.00000000000E+00  0.91490178582E+03  0.91490178582E+03  0.00000000000E+00 0. -1.
         21   -1    0    0  505  502  0.00000000000E+00 -0.00000000000E+00 -0.44632717276E+03  0.44632717276E+03  0.00000000000E+00 0. -1.
         21    1    1    2  503  504  0.76489755977E+01  0.46746773514E+02  0.16764606813E+03  0.17420956294E+03  0.00000000000E+00 0.  1.
         21    1    1    2  504  502 -0.49953031319E+02 -0.10140266650E+03 -0.29256525057E+03  0.31364347905E+03  0.00000000000E+00 0. -1.
         21    1    1    2  505  501 -0.13279274453E+02  0.32854366919E+02 -0.13645912706E+03  0.14098525424E+03  0.00000000000E+00 0. -1.
          2    1    1    2  501    0  0.55583330174E+02  0.21801526069E+02  0.72995292256E+03  0.73239066234E+03  0.00000000000E+00 0. -1.
<scales pt_clust_3="47.69187" pt_clust_4="92.92263" pt_clust_5="35.43654" pt_clust_6="14000.00000"></scales>
<clustering>
<clus scale="   35.437">  2  5  1 -1</clus>
<clus scale="   47.692">  1  3  2 -1</clus>
<clus scale="   92.923">  2  4  1 -1</clus>
<clus scale="   35.437">  2  3  1 -1</clus>
</clustering>
</event>
<event>
 6    0  0.1361744E+002  0.1714047E+03  0.7546771E-02  0.1176391E+00
         21   -1    0    0  501  502  0.00000000000E+00  0.00000000000E+00  0.60550408026E+03  0.60550408026E+03  0.00000000000E+00 0. -1.
          1   -1    0    0  505    0 -0.00000000000E+00 -0.00000000000E+00 -0.66694136768E+03  0.66694136768E+03  0.00000000000E+00 0. -1.
         21    1    1    2  503  504  0.89350047785E+01 -0.55306606304E+02  0.21234338070E+03  0.21960957707E+03  0.00000000000E+00 0. -1.
         21    1    1    2  504  502 -0.52129104613E+02 -0.10244274028E+03  0.36580832579E+03  0.38344189886E+03  0.00000000000E+00 0. -1.
         21    1    1    2  505  503 -0.27955134148E+02  0.12680172625E+02 -0.56130403634E+02  0.63975765061E+02  0.00000000000E+00 0. -1.
          1    1    1    2  501    0  0.71149233982E+02  0.14506917396E+03 -0.58345859028E+03  0.60541820695E+03  0.00000000000E+00 0. -1.
<scales pt_clust_3="35.97840" pt_clust_4="35.97840" pt_clust_5="30.69652" pt_clust_6="163.45781"></scales>
<clustering>
<clus scale="   30.697">  2  5  1 -1</clus>
<clus scale="   35.978">  3  4 -1 -1</clus>
<clus scale="  163.458">  2  6  1 -1</clus>
<clus scale="  171.405">  1  3  2 -1</clus>
</clustering>
</event>
<event>
 6    0  0.1361744E+002  0.7621860E+02  0.7546771E-02  0.1340138E+00
         21   -1    0    0  504  502  0.00000000000E+00  0.00000000000E+00  0.13312387995E+02  0.13312387995E+02  0.00000000000E+00 0. -1.
          2   -1    0    0  503    0 -0.00000000000E+00 -0.00000000000E+00 -0.20848436633E+04  0.20848436633E+04  0.00000000000E+00 0. -1.
         21    1    1    2  503  505 -0.47074702835E+02 -0.55843368239E+02 -0.42870292802E+03  0.43488010982E+03  0.00000000000E+00 0. -1.
         21    1    1    2  504  501  0.42497329712E+02  0.32098621013E+02 -0.29802173871E+03  0.30274296234E+03  0.00000000000E+00 0.  1.
         21    1    1    2  505  502 -0.56171079295E+01  0.78511742194E+02 -0.20852064110E+03  0.22288226338E+03  0.00000000000E+00 0. -1.
          2    1    1    2  501    0  0.10194481052E+02 -0.54766994968E+02 -0.11362859675E+04  0.11376507158E+04  0.00000000000E+00 0. -1.
<scales pt_clust_3="76.21860" pt_clust_4="53.25734" pt_clust_5="14000.00000" pt_clust_6="54.30732"></scales>
<clustering>
<clus scale="   53.257">  1  4  2 -1</clus>
<clus scale="   54.307">  2  6  1 -1</clus>
<clus scale="   76.219">  2  3  1 -1</clus>
<clus scale="   53.257">  1  3  2 -1</clus>
</clustering>
</event>
<event>
 6    0  0.1361744E+002  0.8404761E+02  0.7546771E-02  0.1317942E+00
         21   -1    0    0  505  502  0.00000000000E+00  0.00000000000E+00  0.28506833915E+03  0.28506833915E+03  0.00000000000E+00 0. -1.
          1   -1    0    0  503    0 -0.00000000000E+00 -0.00000000000E+00 -0.13418838085E+03  0.13418838085E+03  0.00000000000E+00 0.  1.
         21    1    1    2  503  502 -0.10468488134E+03  0.55429520471E+02  0.20774806067E+03  0.23914558920E+03  0.00000000000E+00 0. -1.
         21    1    1    2  504  501  0.27074275788E+02 -0.35701922565E+02 -0.26794712945E+02  0.52207282309E+02  0.00000000000E+00 0.  1.
         21    1    1    2  505  504  0.41762621598E+02 -0.29718450417E+02  0.28395144051E+02  0.58596817862E+02  0.00000000000E+00 0.  1.
          1    1    1    2  501    0  0.35847983952E+02  0.99908525113E+01 -0.58468533478E+02  0.69307030628E+02  0.00000000000E+00 0.  1.
<scales pt_clust_3="84.04761" pt_clust_4="55.98861" pt_clust_5="14000.00000" pt_clust_6="37.21418"></scales>
<clustering>
<clus scale="   37.214">  2  6  1 -1</clus>
<clus scale="   55.989">  2  4  1 -1</clus>
<clus scale="   84.048">  2  3  1 -1</clus>
<clus scale="   84.048">  1  3  2 -1</clus>
</clustering>
</event>
<event>
 6    0  0.1895910E+002  0.1056090E+03  0.7546771E-02  0.1268924E+00
          2   -1    0    0  505    0 -0.00000000000E+00  0.00000000000E+00  0.12183639894E+04  0.12183639894E+04  0.00000000000E+00 0. -1.
         21   -1    0    0  501  502  0.00000000000E+00 -0.00000000000E+00 -0.19725604399E+03  0.19725604399E+03  0.00000000000E+00 0. -1.
         21    1    1    2  503  504 -0.36676965701E+02  0.10326133686E+02 -0.37248869969E+02  0.53285149563E+02  0.00000000000E+00 0.  1.
         21    1    1    2  504  502 -0.39439193290E+02  0.47498703333E+02 -0.13774593965E+03  0.15094873525E+03  0.00000000000E+00 0. -1.
         21    1    1    2  505  503 -0.29561915874E+02  0.57884635050E+01  0.47951572287E+02  0.56628318576E+02  0.00000000000E+00 0. -1.
          2    1    1    2  501    0  0.10567807487E+03 -0.63613300524E+02  0.11481511828E+04  0.11547578300E+04  0.00000000000E+00 0. -1.
<scales pt_clust_3="34.75607" pt_clust_4="34.75607" pt_clust_5="30.12330" pt_clust_6="95.92882"></scales>
<clustering>
<clus scale="   30.123">  1  5  2 -1</clus>
<clus scale="   34.756">  3  4 -1 -1</clus>
<clus scale="   95.929">  1  6  2 -1</clus>
<clus scale="  105.609">  2  3  1 -1</clus>
</clustering>
</event>
<event>
 6    0  0.1361744E+002  0.1077784E+03  0.7546771E-02  0.1264740E+00
         21   -1    0    0  501  502  0.00000000000E+00  0.00000000000E+00  0.32607929257E+02  0.32607929257E+02  0.00000000000E+00 0. -1.
          1   -1    0    0  504    0 -0.00000000000E+00 -0.00000000000E+00 -0.20525461038E+04  0.20525461038E+04  0.00000000000E+00 0.  1.
         21    1    1    2  503  505  0.58036416617E+02  0.44194529658E+02 -0.11733096082E+03  0.13815909841E+03  0.00000000000E+00 0. -1.
         21    1    1    2  504  503 -0.12513633867E+02 -0.28575553829E+02 -0.17601079636E+03  0.17875389155E+03  0.00000000000E+00 0. -1.
         21    1    1    2  505  502  0.23166393122E+02  0.47883276762E+02 -0.16650184565E+02  0.55737945870E+02  0.00000000000E+00 0. -1.
          1    1    1    2  501    0 -0.68689175873E+02 -0.63502252590E+02 -0.17099462328E+04  0.17125030972E+04  0.00000000000E+00 0.  1.
<scales pt_clust_3="14000.00000" pt_clust_4="31.19541" pt_clust_5="52.59126" pt_clust_6="107.77841"></scales>
<clustering>
<clus scale="   31.195">  2  4  1 -1</clus>
<clus scale="   52.591">  1  5  2 -1</clus>
<clus scale="  107.778">  2  6  1 -1</clus>
<clus scale="   52.591">  1  3  2 -1</clus>
</clustering>
</event>
<event>
 6    0  0.1361744E+002  0.7685256E+02  0.7546771E-02  0.1338228E+00
         -4   -1    0    0    0  501 -0.00000000000E+00  0.00000000000E+00  0.30205234181E+03  0.30205234181E+03  0.00000000000E+00 0.  1.
         21   -1    0    0  505  502  0.00000000000E+00 -0.00000000000E+00 -0.17251791887E+03  0.17251791887E+03  0.00000000000E+00 0.  1.
         21    1    1    2  503  502  0.23206549383E+02 -0.26774802558E+02  0.28237548371E+01  0.35544445103E+02  0.00000000000E+00 0.  1.
         21    1    1    2  504  503  0.79533815325E+02 -0.13875385597E+02 -0.69471557896E+02  0.10651033500E+03  0.00000000000E+00 0.  1.
         21    1    1    2  505  501 -0.73645526425E+02 -0.14088465859E+02 -0.42312594736E+02  0.86095900634E+02  0.00000000000E+00 0.  1.
         -4    1    1    2    0  504 -0.29094838284E+02  0.54738654014E+02  0.23849482073E+03  0.24641957993E+03  0.00000000000E+00 0.  1.
<scales pt_clust_3="35.43210" pt_clust_4="76.85256" pt_clust_5="14000.00000" pt_clust_6="61.11461"></scales>
<clustering>
<clus scale="   35.432">  2  3  1 -1</clus>
<clus scale="   61.115">  1  6  2 -1</clus>
<clus scale="   76.853">  1  4  2 -1</clus>
<clus scale="   35.432">  2  3  1 -1</clus>
</clustering>
</event>
<event>
 6    0  0.1361744E+002  0.1495018E+03  0.7546771E-02  0.1201087E+00
         21   -1    0    0  503  502  0.00000000000E+00  0.00000000000E+00  0.51801593438E+02  0.51801593438E+02  0.00000000000E+00 0. -1.
          2   -1    0    0  504    0 -0.00000000000E+00 -0.00000000000E+00 -0.22016946501E+04  0.22016946501E+04  0.00000000000E+00 0.  1.
         21    1    1    2  503  505 -0.48828581841E+02 -0.25104445613E+02 -0.62115349703E+02  0.82902233160E+02  0.00000000000E+00 0.  1.
         21    1    1    2  504  502  0.38812297448E+02 -0.21966857848E+02 -0.16448390349E+03  0.17042268565E+03  0.00000000000E+00 0. -1.
         21    1    1    2  505  501 -0.62203260311E+02  0.13497315437E+03 -0.11400039430E+03  0.18730479945E+03  0.00000000000E+00 0. -1.
          2    1    1    2  501    0  0.72219544705E+02 -0.87901850912E+02 -0.18092934092E+04  0.18128665253E+04  0.00000000000E+00 0.  1.
<scales pt_clust_3="54.04814" pt_clust_4="44.59750" pt_clust_5="14000.00000" pt_clust_6="149.50176"></scales>
<clustering>
<clus scale="   44.598">  2  4  1 -1</clus>
<clus scale="   54.048">  1  3  2 -1</clus>
<clus scale="  149.502">  2  6  1 -1</clus>
<clus scale="   54.048">  1  3  2 -1</clus>
</clustering>
</event>
<event>
 6    0  0.1361744E+002  0.3598529E+03  0.7546771E-02  0.1058642E+00
         21   -1    0    0  505  502  0.00000000000E+00  0.00000000000E+00  0.23897762443E+04  0.23897762443E+04  0.00000000000E+00 0.  1.
         -1   -1    0    0    0  501 -0.00000000000E+00 -0.00000000000E+00 -0.16519772851E+04  0.16519772851E+04  0.00000000000E+00 0.  1.
         21    1    1    2  503  502  0.11189537730E+03 -0.71913612114E+01  0.17624856556E+03  0.20889195293E+03  0.00000000000E+00 0. -1.
         21    1    1    2  504  501  0.78400619583E+02 -0.13160550596E+03 -0.16208941552E+03  0.22302386637E+03  0.00000000000E+00 0.  1.
         21    1    1    2  505  504  0.24686136785E+03  0.53344681141E+02  0.21247087623E+04  0.21396666830E+04  0.00000000000E+00 0.  1.
         -1    1    1    2    0  503 -0.43715736473E+03  0.85452186030E+02 -0.14010689531E+04  0.14701710271E+04  0.00000000000E+00 0.  1.
<scales pt_clust_3="112.12623" pt_clust_4="154.07342" pt_clust_5="359.85291" pt_clust_6="14000.00000"></scales>
<clustering>
<clus scale="  112.126">  1  3  2 -1</clus>
<clus scale="  154.073">  2  4  1 -1</clus>
<clus scale="  359.853">  1  5  2 -1</clus>
<clus scale="  112.126">  1  3  2 -1</clus>
</clustering>
</event>
<event>
 6    0  0.1361744E+002  0.1577823E+03  0.7546771E-02  0.1191224E+00
         21   -1    0    0  505  502  0.00000000000E+00  0.00000000000E+00  0.85335824704E+02  0.85335824704E+02  0.00000000000E+00 0. -1.
          2   -1    0    0  503    0 -0.00000000000E+00 -0.00000000000E+00 -0.25666666722E+04  0.25666666722E+04  0.00000000000E+00 0.  1.
         21    1    1    2  503  504  0.21769363689E+02 -0.34642883777E+02 -0.44164209433E+01  0.41152634980E+02  0.00000000000E+00 0. -1.
         21    1    1    2  504  502  0.12518091298E+03 -0.17877553486E+02 -0.13340753137E+01  0.12645808654E+03  0.00000000000E+00 0. -1.
         21    1    1    2  505  501 -0.85035334979E+02  0.15164225852E+02 -0.49415780123E+03  0.50165017139E+03  0.00000000000E+00 0. -1.
          2    1    1    2  501    0 -0.61914941693E+02  0.37356211411E+02 -0.19814225500E+04  0.19827416039E+04  0.00000000000E+00 0.  1.
<scales pt_clust_3="34.63545" pt_clust_4="34.63545" pt_clust_5="145.56008" pt_clust_6="72.31146"></scales>
<clustering>
<clus scale="   34.635">  3  4 -1 -1</clus>
<clus scale="   72.311">  2  6  1 -1</clus>
<clus scale="  145.560">  2  5  1 -1</clus>
<clus scale="  157.782">  1  3  2 -1</clus>
</clustering>
</event>
<event>
 6    0  0.1537190E+002  0.1242201E+03  0.7546771E-02  0.1236293E+00
         21   -1    0    0  501  502  0.00000000000E+00  0.00000000000E+00  0.80898344359E+03  0.80898344359E+03  0.00000000000E+00 0. -1.
          2   -1    0    0  504    0 -0.00000000000E+00 -0.00000000000E+00 -0.20730698682E+04  0.20730698682E+04  0.00000000000E+00 0. -1.
         21    1    1    2  503  505 -0.63981529241E+02  0.19951760890E+02  0.45500212133E+03  0.45991155591E+03  0.00000000000E+00 0. -1.
         21    1    1    2  504  503  0.40246590222E+01  0.32400244522E+02 -0.27721911068E+02  0.42830807587E+02  0.00000000000E+00 0. -1.
         21    1    1    2  505  502 -0.34991897555E+02  0.44886221038E+02  0.33933086751E+03  0.34407069532E+03  0.00000000000E+00 0. -1.
          2    1    1    2  501    0  0.94948767774E+02 -0.97238226450E+02 -0.20306975024E+04  0.20352402530E+04  0.00000000000E+00 0. -1.
<scales pt_clust_3="34.76703" pt_clust_4="32.64925" pt_clust_5="34.76703" pt_clust_6="118.35443"></scales>
<clustering>
<clus scale="   32.649">  2  4  1 -1</clus>
<clus scale="   34.767">  3  5 -1 -1</clus>
<clus scale="  118.354">  2  6  1 -1</clus>
<clus scale="  124.220">  1  3  2 -1</clus>
</clustering>
</event>
<event>
 6    0  0.1361744E+002  0.1031927E+03  0.7546771E-02  0.1273722E+00
         21   -1    0    0  503  502  0.00000000000E+00  0.00000000000E+00  0.51085749213E+03  0.51085749213E+03  0.00000000000E+00 0.  1.
         -4   -1    0    0    0  501 -0.00000000000E+00 -0.00000000000E+00 -0.31660348717E+03  0.31660348717E+03  0.00000000000E+00 0. -1.
         21    1    1    2  503  505 -0.23698108353E+02  0.28593123976E+02  0.27160618087E+03  0.27413333356E+03  0.00000000000E+00 0.  1.
         21    1    1    2  504  502 -0.26399356762E+02 -0.11931405493E+03  0.20419333202E+03  0.23796572565E+03  0.00000000000E+00 0.  1.
         21    1    1    2  505  501  0.25608571890E+02  0.18098941663E+02 -0.95580673243E+01  0.32783033638E+02  0.00000000000E+00 0.  1.
         -4    1    1    2    0  504  0.24488893226E+02  0.72621989289E+02 -0.27198744061E+03  0.28257888646E+03  0.00000000000E+00 0. -1.
<scales pt_clust_3="37.12709" pt_clust_4="103.19271" pt_clust_5="31.35874" pt_clust_6="14000.00000"></scales>
<clustering>
<clus scale="   31.359">  2  5  1 -1</clus>
<clus scale="   37.127">  1  3  2 -1</clus>
<clus scale="  103.193">  1  4  2 -1</clus>
<clus scale="   37.127">  1  3  2 -1</clus>
</clustering>
</event>
<event>
 6    0  0.1361744E+002  0.1850154E+03  0.7546771E-02  0.1163036E+00
         21   -1    0    0  505  502  0.00000000000E+00  0.00000000000E+00  0.39299043654E+02  0.39299043654E+02  0.00000000000E+00 0. -1.
          2   -1    0    0  503    0 -0.00000000000E+00 -0.00000000000E+00 -0.17920214978E+04  0.17920214978E+04  0.00000000000E+00 0. -1.
         21    1    1    2  503  502 -0.12387786212E+02 -0.44772035307E+02 -0.24523923091E+02  0.52530136080E+02  0.00000000000E+00 0. -1.
         21    1    1    2  504  501  0.15696598695E+02  0.26748625659E+02 -0.15349364723E+03  0.15659556802E+03  0.00000000000E+00 0.  1.
         21    1    1    2  505  504  0.46637025132E+02 -0.13434038467E+03 -0.24833799775E+03  0.28617147341E+03  0.00000000000E+00 0. -1.
          2    1    1    2  501    0 -0.49945837615E+02  0.15236379432E+03 -0.13263668861E+04  0.13360233639E+04  0.00000000000E+00 0. -1.
<scales pt_clust_3="46.45420" pt_clust_4="30.05428" pt_clust_5="171.93277" pt_clust_6="30.05428"></scales>
<clustering>
<clus scale="   30.054">  4  6 -1 -1</clus>
<clus scale="   46.454">  1  3  2 -1</clus>
<clus scale="  171.933">  1  5  2 -1</clus>
<clus scale="   46.454">  1  3  2 -1</clus>
</clustering>
</event>
<event>
 6    0  0.1361744E+002  0.1240784E+03  0.7546771E-02  0.1236517E+00
         21   -1    0    0  505  502  0.00000000000E+00  0.00000000000E+00  0.30209758795E+03  0.30209758795E+03  0.00000000000E+00 0. -1.
          3   -1    0    0  503    0 -0.00000000000E+00 -0.00000000000E+00 -0.55744665636E+03  0.55744665636E+03  0.00000000000E+00 0. -1.
         21    1    1    2  503  502 -0.23722433621E+02 -0.91767820192E+02  0.35090215762E+02  0.10107131107E+03  0.00000000000E+00 0. -1.
         21    1    1    2  504  501  0.34665362023E+02  0.39004645654E+02 -0.23273228905E+03  0.23851072947E+03  0.00000000000E+00 0. -1.
         21    1    1    2  505  504 -0.83706886482E+02  0.44548545766E+02  0.21638905788E+03  0.23625333891E+03  0.00000000000E+00 0. -1.
          3    1    1    2  501    0  0.72763958081E+02  0.82146287731E+01 -0.27409605301E+03  0.28370886486E+03  0.00000000000E+00 0. -1.
<scales pt_clust_3="94.78442" pt_clust_4="38.38538" pt_clust_5="115.44620" pt_clust_6="38.38538"></scales>
<clustering>
<clus scale="   38.385">  4  6 -1 -1</clus>
<clus scale="   94.784">  1  3  2 -1</clus>
<clus scale="  115.446">  1  5  2 -1</clus>
<clus scale="   94.784">  1  3  2 -1</clus>
</clustering>
</event>
<event>
 6    0  0.1361744E+002  0.1091452E+03  0.7546771E-02  0.1262161E+00
          2   -1    0    0  503    0 -0.00000000000E+00  0.00000000000E+00  0.21245051538E+04  0.21245051538E+04  0.00000000000E+00 0.  1.
         21   -1    0    0  505  502  0.00000000000E+00 -0.00000000000E+00 -0.41968477521E+02  0.41968477521E+02  0.00000000000E+00 0. -1.
         21    1    1    2  503  504  0.13054888008E+03 -0.27903689466E+01  0.73054810092E+03  0.74212621838E+03  0.00000000000E+00 0.  1.
         21    1    1    2  504  502 -0.49049357488E+02  0.49961926885E+02  0.14730377307E+02  0.71547310387E+02  0.00000000000E+00 0. -1.
         21    1    1    2  505  501 -0.40649424397E+02  0.37769562471E+02  0.12355688424E+03  0.13544452443E+03  0.00000000000E+00 0.  1.
          2    1    1    2  501    0 -0.40850098200E+02 -0.84941120409E+02  0.12137013138E+04  0.12173555781E+04  0.00000000000E+00 0.  1.
<scales pt_clust_3="109.14518" pt_clust_4="14000.00000" pt_clust_5="55.48798" pt_clust_6="93.45937"></scales>
<clustering>
<clus scale="   55.488">  2  5  1 -1</clus>
<clus scale="   93.459">  1  6  2 -1</clus>
<clus scale="  109.145">  1  3  2 -1</clus>
<clus scale="   55.488">  2  3  1 -1</clus>
</clustering>
</event>
<event>
 6    0  0.1361744E+002  0.1214387E+03  0.7546771E-02  0.1240742E+00
          2   -1    0    0  503    0 -0.00000000000E+00  0.00000000000E+00  0.43655974753E+04  0.43655974753E+04  0.00000000000E+00 0. -1.
         21   -1    0    0  505  502  0.00000000000E+00 -0.00000000000E+00 -0.15427666463E+03  0.15427666463E+03  0.00000000000E+00 0. -1.
         21    1    1    2  503  502  0.30020406060E+02 -0.20115106952E+01  0.87951971705E+01  0.31346873027E+02  0.00000000000E+00 0. -1.
         21    1    1    2  504  501 -0.94561329224E+02  0.12277143075E+03  0.19925707942E+04  0.19985877612E+04  0.00000000000E+00 0. -1.
         21    1    1    2  505  504  0.22201862412E+01 -0.11477244464E+03 -0.11596729490E+03  0.16317492688E+03  0.00000000000E+00 0. -1.
          2    1    1    2  501    0  0.62320736923E+02 -0.59874754122E+01  0.23259221142E+04  0.23267645788E+04  0.00000000000E+00 0. -1.
<scales pt_clust_3="30.08772" pt_clust_4="121.43871" pt_clust_5="14000.00000" pt_clust_6="62.69629"></scales>
<clustering>
<clus scale="   30.088">  2  3  1 -1</clus>
<clus scale="   62.696">  1  6  2 -1</clus>
<clus scale="  121.439">  1  4  2 -1</clus>
<clus scale="   30.088">  2  3  1 -1</clus>
</clustering>
</event>
<event>
 6    0  0.1361744E+002  0.1764559E+03  0.7546771E-02  0.1171278E+00
         21   -1    0    0  501  502  0.00000000000E+00  0.00000000000E+00  0.27554931702E+02  0.27554931702E+02  0.00000000000E+00 0.  1.
          2   -1    0    0  504    0 -0.00000000000E+00 -0.00000000000E+00 -0.18426586679E+04  0.18426586679E+04  0.00000000000E+00 0.  1.
         21    1    1    2  503  502 -0.35510262377E+02  0.59156112193E+02 -0.18304511850E+03  0.19561681868E+03  0.00000000000E+00 0.  1.
         21    1    1    2  504  505 -0.13169519911E+02 -0.34083885608E+02 -0.43017707856E+03  0.43172614749E+03  0.00000000000E+00 0. -1.
         21    1    1    2  505  503 -0.92964233742E+02  0.55143225220E+02 -0.19533320637E+03  0.22324467643E+03  0.00000000000E+00 0.  1.
          2    1    1    2  501    0  0.14164401603E+03 -0.80215451804E+02 -0.10065483327E+04  0.10196259569E+04  0.00000000000E+00 0.  1.
<scales pt_clust_3="40.81456" pt_clust_4="36.53967" pt_clust_5="40.81456" pt_clust_6="168.61766"></scales>
<clustering>
<clus scale="   36.540">  2  4  1 -1</clus>
<clus scale="   40.815">  3  5 -1 -1</clus>
<clus scale="  168.618">  2  6  1 -1</clus>
<clus scale="  176.456">  1  3  2 -1</clus>
</clustering>
</event>
<event>
 6    0  0.1361744E+002  0.1075449E+03  0.7546771E-02  0.1265185E+00
          1   -1    0    0  503    0 -0.00000000000E+00  0.00000000000E+00  0.74055449767E+03  0.74055449767E+03  0.00000000000E+00 0. -1.
         21   -1    0    0  504  502  0.00000000000E+00 -0.00000000000E+00 -0.16105322036E+03  0.16105322036E+03  0.00000000000E+00 0.  1.
         21    1    1    2  503  505  0.95154384606E+02 -0.82794283591E+02  0.24730689509E+03  0.27761475224E+03  0.00000000000E+00 0.  1.
         21    1    1    2  504  501 -0.35009587367E+02  0.54538728536E+02 -0.11122231546E+03  0.12872663895E+03  0.00000000000E+00 0.  1.
         21    1    1    2  505  502  0.37448977154E+02 -0.43758212185E+01 -0.23492101005E+01  0.37776877708E+02  0.00000000000E+00 0.  1.
          1    1    1    2  501    0 -0.97593774393E+02  0.32631376273E+02  0.44576590779E+03  0.45748944913E+03  0.00000000000E+00 0. -1.
<scales pt_clust_3="14000.00000" pt_clust_4="50.91225" pt_clust_5="37.70376" pt_clust_6="107.54489"></scales>
<clustering>
<clus scale="   37.704">  2  5  1 -1</clus>
<clus scale="   50.912">  2  4  1 -1</clus>
<clus scale="  107.545">  1  6  2 -1</clus>
<clus scale="   37.704">  2  3  1 -1</clus>
</clustering>
</event>
<event>
 6    0  0.1361744E+002  0.2243415E+03  0.7546771E-02  0.1130687E+00
          2   -1    0    0  505    0 -0.00000000000E+00  0.00000000000E+00  0.29548523041E+04  0.29548523041E+04  0.00000000000E+00 0. -1.
         21   -1    0    0  504  502  0.00000000000E+00 -0.00000000000E+00 -0.97623616656E+02  0.97623616656E+02  0.00000000000E+00 0. -1.
         21    1    1    2  503  502 -0.64505560348E+02 -0.19417805922E+03  0.35935286059E+02  0.20774366605E+03  0.00000000000E+00 0. -1.
         21    1    1    2  504  501 -0.30536556999E+02 -0.14308521602E+02  0.54907991892E+02  0.64436811509E+02  0.00000000000E+00 0.  1.
         21    1    1    2  505  503  0.50148756406E+02  0.20355994633E+02  0.21940538393E+03  0.22598227095E+03  0.00000000000E+00 0. -1.
          2    1    1    2  501    0  0.44893360941E+02  0.18813058619E+03  0.25469800256E+04  0.25543131723E+04  0.00000000000E+00 0. -1.
<scales pt_clust_3="224.34145" pt_clust_4="33.72262" pt_clust_5="52.93014" pt_clust_6="14000.00000"></scales>
<clustering>
<clus scale="   33.723">  2  4  1 -1</clus>
<clus scale="   52.930">  1  5  2 -1</clus>
<clus scale="  224.341">  2  3  1 -1</clus>
<clus scale="   33.723">  2  3  1 -1</clus>
</clustering>
</event>
<event>
 6    0  0.1361744E+002  0.1261526E+03  0.7546771E-02  0.1233279E+00
         21   -1    0    0  504  502  0.00000000000E+00  0.00000000000E+00  0.10321419898E+03  0.10321419898E+03  0.00000000000E+00 0.  1.
          2   -1    0    0  503    0 -0.00000000000E+00 -0.00000000000E+00 -0.10601277654E+04  0.10601277654E+04  0.00000000000E+00 0.  1.
         21    1    1    2  503  505  0.69633981428E+02  0.33219498963E+02 -0.21698409812E+03  0.23029226065E+03  0.00000000000E+00 0.  1.
         21    1    1    2  504  501 -0.10549355900E+03  0.13818816514E+02  0.40533733879E+02  0.11385444332E+03  0.00000000000E+00 0.  1.
         21    1    1    2  505  502 -0.18475462931E+02  0.39052173326E+02 -0.13151221840E+02  0.45159380065E+02  0.00000000000E+00 0.  1.
          2    1    1    2  501    0  0.54335040503E+02 -0.86090488803E+02 -0.76731198039E+03  0.77403588039E+03  0.00000000000E+00 0.  1.
<scales pt_clust_3="77.23300" pt_clust_4="14000.00000" pt_clust_5="43.20203" pt_clust_6="126.15264"></scales>
<clustering>
<clus scale="   43.202">  1  5  2 -1</clus>
<clus scale="   77.233">  2  3  1 -1</clus>
<clus scale="  126.153">  2  6  1 -1</clus>
<clus scale="   43.202">  1  3  2 -1</clus>
</clustering>
</event>
<event>
 6    0  0.1361744E+002  0.9808366E+02  0.7546771E-02  0.1284378E+00
         21   -1    0    0  503  502  0.00000000000E+00  0.00000000000E+00  0.26496176135E+03  0.26496176135E+03  0.00000000000E+00 0.  1.
          1   -1    0    0  505    0 -0.00000000000E+00 -0.00000000000E+00 -0.74735770041E+03  0.74735770041E+03  0.00000000000E+00 0. -1.
         21    1    1    2  503  501  0.54196344993E+02  0.45303540378E+02  0.82098226126E+02  0.10830407801E+03  0.00000000000E+00 0.  1.
         21    1    1    2  504  502  0.32657348089E+02  0.50825766042E+01  0.15630742375E+03  0.15976340535E+03  0.00000000000E+00 0. -1.
         21    1    1    2  505  504 -0.12841334444E+03 -0.12890812156E+02 -0.48214061367E+03  0.49911494810E+03  0.00000000000E+00 0. -1.
          1    1    1    2  501    0  0.41559651359E+02 -0.37495304827E+02 -0.23866097527E+03  0.24513703030E+03  0.00000000000E+00 0. -1.
<scales pt_clust_3="98.08366" pt_clust_4="33.05049" pt_clust_5="14000.00000" pt_clust_6="56.61063"></scales>
<clustering>
<clus scale="   33.050">  1  4  2 -1</clus>
<clus scale="   56.611">  2  6  1 -1</clus>
<clus scale="   98.084">  1  3  2 -1</clus>
<clus scale="   33.050">  1  3  2 -1</clus>
</clustering>
</event>
<event>
 6    0  0.1361744E+002  0.2074798E+03  0.7546771E-02  0.1143577E+00
         21   -1    0    0  504  502  0.00000000000E+00  0.00000000000E+00  0.93006143821E+03  0.93006143821E+03  0.00000000000E+00 0.  1.
          2   -1    0    0  505    0 -0.00000000000E+00 -0.00000000000E+00 -0.82994481016E+03  0.82994481016E+03  0.00000000000E+00 0.  1.
         21    1    1    2  503  501 -0.12023320147E+03 -0.88025874270E+01 -0.17916625343E+03  0.21594919460E+03  0.00000000000E+00 0.  1.
         21    1    1    2  504  503  0.18460437386E+03 -0.25751114553E+02  0.87469853391E+03  0.89433741953E+03  0.00000000000E+00 0.  1.
         21    1    1    2  505  502  0.37954697684E+02  0.16632822559E+02  0.37560063584E+01  0.41609102926E+02  0.00000000000E+00 0. -1.
          2    1    1    2  501    0 -0.10232587008E+03  0.17920879421E+02 -0.59917165878E+03  0.60811053131E+03  0.00000000000E+00 0.  1.
<scales pt_clust_3="14000.00000" pt_clust_4="207.47982" pt_clust_5="41.43923" pt_clust_6="103.71335"></scales>
<clustering>
<clus scale="   41.439">  1  5  2 -1</clus>
<clus scale="  103.713">  2  6  1 -1</clus>
<clus scale="  207.480">  1  4  2 -1</clus>
<clus scale="   41.439">  1  3  2 -1</clus>
</clustering>
</event>
<event>
 6    0  0.1361744E+002  0.1384115E+03  0.7546771E-02  0.1215483E+00
         21   -1    0    0  504  502  0.00000000000E+00  0.00000000000E+00  0.91118397987E+02  0.91118397987E+02  0.00000000000E+00 0.  1.
          2   -1    0    0  505    0 -0.00000000000E+00 -0.00000000000E+00 -0.23823353663E+04  0.23823353663E+04  0.00000000000E+00 0.  1.
         21    1    1    2  503  501  0.37676540608E+02 -0.71863067425E+02  0.47783186475E+01  0.81281329351E+02  0.00000000000E+00 0.  1.
         21    1    1    2  504  503 -0.14847623761E+02 -0.52871985996E+02  0.29271158008E+02  0.62231017392E+02  0.00000000000E+00 0.  1.
         21    1    1    2  505  502 -0.20175108741E+02  0.38299727443E+02 -0.33338015454E+03  0.33617886843E+03  0.00000000000E+00 0.  1.
          2    1    1    2  501    0 -0.26538081047E+01  0.86435325978E+02 -0.19918862904E+04  0.19937625491E+04  0.00000000000E+00 0.  1.
<scales pt_clust_3="47.79128" pt_clust_4="47.79128" pt_clust_5="43.28861" pt_clust_6="125.70327"></scales>
<clustering>
<clus scale="   43.289">  2  5  1 -1</clus>
<clus scale="   47.791">  3  4 -1 -1</clus>
<clus scale="  125.703">  2  6  1 -1</clus>
<clus scale="  138.412">  1  3  2 -1</clus>
</clustering>
</event>
<event>
 6    0  0.1361744E+002  0.1528886E+03  0.7546771E-02  0.1196968E+00
          1   -1    0    0  504    0 -0.00000000000E+00  0.00000000000E+00  0.10886074830E+04  0.10886074830E+04  0.00000000000E+00 0. -1.
         21   -1    0    0  503  502  0.00000000000E+00 -0.00000000000E+00 -0.25736850537E+02  0.25736850537E+02  0.00000000000E+00 0. -1.
         21    1    1    2  503  501  0.36134904077E+02  0.56986476827E+02  0.27824263925E+03  0.28630779964E+03  0.00000000000E+00 0. -1.
         21    1    1    2  504  505  0.69786143823E+00 -0.68707418572E+02  0.90388588926E+02  0.11353983171E+03  0.00000000000E+00 0. -1.
         21    1    1    2  505  502 -0.23311097665E+02 -0.70053319287E+02  0.19667436986E+03  0.21007542117E+03  0.00000000000E+00 0. -1.
          1    1    1    2  501    0 -0.13521667850E+02  0.81774261032E+02  0.49756503444E+03  0.50442128104E+03  0.00000000000E+00 0. -1.
<scales pt_clust_3="54.20474" pt_clust_4="48.77069" pt_clust_5="149.40445" pt_clust_6="54.20474"></scales>
<clustering>
<clus scale="   48.771">  4  5 -1 -1</clus>
<clus scale="   54.205">  3  6 -1 -1</clus>
<clus scale="  149.404">  2  4  1 -1</clus>
<clus scale="  149.404">  2  3  1 -1</clus>
</clustering>
</event>
<event>
 6    0  0.1361744E+002  0.2676484E+03  0.7546771E-02  0.1102633E+00
         21   -1    0    0  501  502  0.00000000000E+00  0.00000000000E+00  0.36703114339E+03  0.36703114339E+03  0.00000000000E+00 0. -1.
          2   -1    0    0  505    0 -0.00000000000E+00 -0.00000000000E+00 -0.32388520397E+04  0.32388520397E+04  0.00000000000E+00 0.  1.
         21    1    1    2  503  504 -0.69057616977E+02  0.20296413364E+03  0.24220156961E+03  0.32345787102E+03  0.00000000000E+00 0. -1.
         21    1    1    2  504  502 -0.53387511839E+02  0.13364516139E+02  0.67745599506E+02  0.87282890445E+02  0.00000000000E+00 0. -1.
         21    1    1    2  505  503  0.23757353500E+02 -0.10623716560E+03 -0.64932872765E+03  0.65839087460E+03  0.00000000000E+00 0. -1.
          2    1    1    2  501    0  0.98687775316E+02 -0.11009148418E+03 -0.25324393378E+04  0.25367515470E+04  0.00000000000E+00 0.  1.
<scales pt_clust_3="52.77490" pt_clust_4="52.77490" pt_clust_5="108.86114" pt_clust_6="246.54788"></scales>
<clustering>
<clus scale="   52.775">  3  4 -1 -1</clus>
<clus scale="  108.861">  2  5  1 -1</clus>
<clus scale="  246.548">  2  6  1 -1</clus>
<clus scale="  267.648">  1  3  2 -1</clus>
</clustering>
</event>
<event>
 6    0  0.1361744E+002  0.1484036E+03  0.7546771E-02  0.1202449E+00
          1   -1    0    0  504    0 -0.00000000000E+00  0.00000000000E+00  0.97156556199E+03  0.97156556199E+03  0.00000000000E+00 0. -1.
         21   -1    0    0  501  502  0.00000000000E+00 -0.00000000000E+00 -0.10218551958E+03  0.10218551958E+03  0.00000000000E+00 0. -1.
         21    1    1    2  503  505 -0.52219359347E+02  0.84815185626E+02 -0.35431646618E+02  0.10571602899E+03  0.00000000000E+00 0. -1.
         21    1    1    2  504  503  0.55348164096E+02  0.14109290978E+02  0.26178008861E+03  0.26793899707E+03  0.00000000000E+00 0.  1.
         21    1    1    2  505  502 -0.42245065527E+02  0.22651536757E+02  0.36383130826E+01  0.48072601353E+02  0.00000000000E+00 0. -1.
          1    1    1    2  501    0  0.39116260778E+02 -0.12157601336E+03  0.63939328733E+03  0.65202345415E+03  0.00000000000E+00 0. -1.
<scales pt_clust_3="32.29772" pt_clust_4="57.11822" pt_clust_5="32.29772" pt_clust_6="140.91174"></scales>
<clustering>
<clus scale="   32.298">  3  5 -1 -1</clus>
<clus scale="   57.118">  1  4  2 -1</clus>
<clus scale="  140.912">  1  6  2 -1</clus>
<clus scale="  148.404">  2  3  1 -1</clus>
</clustering>
</event>
<event>
 6    0  0.1361744E+002  0.7933785E+02  0.7546771E-02  0.1330941E+00
          2   -1    0    0  504    0 -0.00000000000E+00  0.00000000000E+00  0.43222944488E+03  0.43222944488E+03  0.00000000000E+00 0.  1.
         21   -1    0    0  505  502  0.00000000000E+00 -0.00000000000E+00 -0.23658924786E+03  0.23658924786E+03  0.00000000000E+00 0. -1.
         21    1    1    2  503  502  0.27407632430E+02 -0.51784472259E+02 -0.18607797464E+02  0.61474059643E+02  0.00000000000E+00 0. -1.
         21    1    1    2  504  503 -0.52412057851E+01 -0.50773660592E+02  0.35979260515E+02  0.62449515892E+02  0.00000000000E+00 0. -1.
         21    1    1    2  505  501  0.54785669124E+02  0.55187600510E+02 -0.16901568156E+03  0.18604687959E+03  0.00000000000E+00 0. -1.
          2    1    1    2  501    0 -0.76952095769E+02  0.47370532341E+02  0.34728441552E+03  0.35884823762E+03  0.00000000000E+00 0.  1.
<scales pt_clust_3="60.98488" pt_clust_4="51.04346" pt_clust_5="79.33785" pt_clust_6="14000.00000"></scales>
<clustering>
<clus scale="   51.043">  1  4  2 -1</clus>
<clus scale="   60.985">  2  3  1 -1</clus>
<clus scale="   79.338">  2  5  1 -1</clus>
<clus scale="   60.985">  2  3  1 -1</clus>
</clustering>
</event>
<event>
 6    0  0.1361744E+002  0.1549035E+03  0.7546771E-02  0.1194574E+00
         21   -1    0    0  505  502  0.00000000000E+00  0.00000000000E+00  0.17538930427E+02  0.17538930427E+02  0.00000000000E+00 0.  1.
          2   -1    0    0  503    0 -0.00000000000E+00 -0.00000000000E+00 -0.18323532643E+04  0.18323532643E+04  0.00000000000E+00 0. -1.
         21    1    1    2  503  504  0.48376994578E+02  0.22566341373E+02 -0.20906002246E+03  0.21576762120E+03  0.00000000000E+00 0.  1.
         21    1    1    2  504  502  0.57762235259E+02  0.74096840259E+02 -0.21322157529E+03  0.23300269897E+03  0.00000000000E+00 0.  1.
         21    1    1    2  505  501 -0.31993385851E+02 -0.49978641968E+02 -0.35795098003E+03  0.36283652723E+03  0.00000000000E+00 0.  1.
          2    1    1    2  501    0 -0.74145843985E+02 -0.46684539664E+02 -0.10345817561E+04  0.10382853473E+04  0.00000000000E+00 0. -1.
<scales pt_clust_3="37.41466" pt_clust_4="151.89816" pt_clust_5="47.88625" pt_clust_6="47.88625"></scales>
<clustering>
<clus scale="   37.415">  3  4 -1 -1</clus>
<clus scale="   47.886">  5  6 -1 -1</clus>
<clus scale="  151.898">  1  3  2 -1</clus>
<clus scale="  151.898">  1  3  2 -1</clus>
</clustering>
</event>
<event>
 6    0  0.1361744E+002  0.2631231E+03  0.7546771E-02  0.1105281E+00
         21   -1    0    0  505  502  0.00000000000E+00  0.00000000000E+00  0.57504251578E+03  0.57504251578E+03  0.00000000000E+00 0.  1.
          1   -1    0    0  504    0 -0.00000000000E+00 -0.00000000000E+00 -0.14801003627E+04  0.14801003627E+04  0.00000000000E+00 0.  1.
         21    1    1    2  503  502  0.67858681353E+02  0.65984052937E+02 -0.97441869896E+02  0.13584407932E+03  0.00000000000E+00 0.  1.
         21    1    1    2  504  503 -0.31583235652E+02  0.39474009388E+01 -0.23616071406E+02  0.39633339212E+02  0.00000000000E+00 0. -1.
         21    1    1    2  505  501  0.17771083678E+03  0.19152562681E+03  0.49341790941E+03  0.55832288200E+03  0.00000000000E+00 0.  1.
          1    1    1    2  501    0 -0.21398628248E+03 -0.26145708069E+03 -0.12774178150E+04  0.13213425779E+04  0.00000000000E+00 0.  1.
<scales pt_clust_3="93.07008" pt_clust_4="31.82896" pt_clust_5="263.12312" pt_clust_6="14000.00000"></scales>
<clustering>
<clus scale="   31.829">  2  4  1 -1</clus>
<clus scale="   93.070">  2  3  1 -1</clus>
<clus scale="  263.123">  1  5  2 -1</clus>
<clus scale="  263.123">  1  3  2 -1</clus>
</clustering>
</event>
<event>
 6    0  0.1361744E+002  0.1142902E+03  0.7546771E-02  0.1252825E+00
          2   -1    0    0  504    0 -0.00000000000E+00  0.00000000000E+00  0.10153154860E+04  0.10153154860E+04  0.00000000000E+00 0.  1.
         21   -1    0    0  503  502  0.00000000000E+00 -0.00000000000E+00 -0.13330512296E+03  0.13330512296E+03  0.00000000000E+00 0. -1.
         21    1    1    2  503  501  0.75202635920E+02 -0.25497908334E+02 -0.17564325503E+02  0.81327026929E+02  0.00000000000E+00 0. -1.
         21    1    1    2  504  505  0.38517699993E+02  0.17096622542E+01  0.79276304808E+02  0.88154799426E+02  0.00000000000E+00 0. -1.
         21    1    1    2  505  502  0.43602430983E+02  0.26612438732E+02 -0.63469695778E+02  0.81472671277E+02  0.00000000000E+00 0. -1.
          2    1    1    2  501    0 -0.15732276690E+03 -0.28241926515E+01  0.88376807954E+03  0.89766611135E+03  0.00000000000E+00 0.  1.
<scales pt_clust_3="14000.00000" pt_clust_4="38.55562" pt_clust_5="51.40882" pt_clust_6="114.29024"></scales>
<clustering>
<clus scale="   38.556">  1  4  2 -1</clus>
<clus scale="   51.409">  2  5  1 -1</clus>
<clus scale="  114.290">  1  6  2 -1</clus>
<clus scale="   51.409">  2  3  1 -1</clus>
</clustering>
</event>
<event>
 6    0  0.1361744E+002  0.4635287E+03  0.7546771E-02  0.1023763E+00
         21   -1    0    0  505  502  0.00000000000E+00  0.00000000000E+00  0.11923647846E+03  0.11923647846E+03  0.00000000000E+00 0.  1.
          2   -1    0    0  503    0 -0.00000000000E+00 -0.00000000000E+00 -0.20721008091E+04  0.20721008091E+04  0.00000000000E+00 0.  1.
         21    1    1    2  503  504 -0.22158473350E+03  0.80788766118E+02 -0.35264527972E+03  0.42424675857E+03  0.00000000000E+00 0.  1.
         21    1    1    2  504  502 -0.20905083678E+03  0.75269417586E+02 -0.22260148332E+03  0.31451416178E+03  0.00000000000E+00 0.  1.
         21    1    1    2  505  501  0.27500478343E+03 -0.86031660201E+02 -0.80200806207E+03  0.85220068592E+03  0.00000000000E+00 0.  1.
          2    1    1    2  501    0  0.15563078686E+03 -0.70026523504E+02 -0.57560950549E+03  0.60037568123E+03  0.00000000000E+00 0.  1.
<scales pt_clust_3="69.02668" pt_clust_4="69.02668" pt_clust_5="37.28161" pt_clust_6="460.59520"></scales>
<clustering>
<clus scale="   37.282">  5  6 -1 -1</clus>
<clus scale="   69.027">  3  4 -1 -1</clus>
<clus scale="  460.595">  2  5  1 -1</clus>
<clus scale="  463.529">  1  3  2 -1</clus>
</clustering>
</event>
<event>
 6    0  0.1361744E+002  0.1603905E+03  0.7546771E-02  0.1188257E+00
          2   -1    0    0  504    0 -0.00000000000E+00  0.00000000000E+00  0.35951562250E+03  0.35951562250E+03  0.00000000000E+00 0.  1.
         21   -1    0    0  503  502  0.00000000000E+00 -0.00000000000E+00 -0.32192485168E+03  0.32192485168E+03  0.00000000000E+00 0. -1.
         21    1    1    2  503  501  0.35065062132E+02 -0.44256486437E+02 -0.65906629569E+01  0.56847445082E+02  0.00000000000E+00 0.  1.
         21    1    1    2  504  505 -0.15904586327E+02 -0.40279916938E+02  0.16993766008E+02  0.46521131305E+02  0.00000000000E+00 0. -1.
         21    1    1    2  505  502  0.76161728974E+02  0.16727224211E+03 -0.22830987620E+03  0.29309727312E+03  0.00000000000E+00 0. -1.
          2    1    1    2  501    0 -0.95322204780E+02 -0.82735838731E+02  0.25549754396E+03  0.28497462467E+03  0.00000000000E+00 0.  1.
<scales pt_clust_3="58.19834" pt_clust_4="43.30621" pt_clust_5="14000.00000" pt_clust_6="160.39049"></scales>
<clustering>
<clus scale="   43.306">  1  4  2 -1</clus>
<clus scale="   58.198">  2  3  1 -1</clus>
<clus scale="  160.390">  1  6  2 -1</clus>
<clus scale="   58.198">  2  3  1 -1</clus>
</clustering>
</event>
<event>
 6    0  0.1361744E+002  0.8934564E+02  0.7546771E-02  0.1304444E+00
          3   -1    0    0  504    0 -0.00000000000E+00  0.00000000000E+00  0.18581082391E+02  0.18581082391E+02  0.00000000000E+00 0.  1.
         21   -1    0    0  505  502  0.00000000000E+00 -0.00000000000E+00 -0.24966100028E+04  0.24966100028E+04  0.00000000000E+00 0.  1.
         21    1    1    2  503  502 -0.71890374917E+02  0.20515461237E+02 -0.10494937573E+04  0.10521531527E+04  0.00000000000E+00 0.  1.
         21    1    1    2  504  503  0.46393209957E+02  0.39018967821E+02 -0.10859803343E+03  0.12437179200E+03  0.00000000000E+00 0.  1.
         21    1    1    2  505  501 -0.35732806418E+02 -0.37337248955E+02 -0.12084096775E+04  0.12095143043E+04  0.00000000000E+00 0.  1.
          3    1    1    2  501    0  0.61229971378E+02 -0.22197180102E+02 -0.11152745215E+03  0.12915183616E+03  0.00000000000E+00 0.  1.
<scales pt_clust_3="89.34564" pt_clust_4="55.97454" pt_clust_5="51.68079" pt_clust_6="14000.00000"></scales>
<clustering>
<clus scale="   51.681">  2  5  1 -1</clus>
<clus scale="   55.975">  1  4  2 -1</clus>
<clus scale="   89.346">  2  3  1 -1</clus>
<clus scale="   51.681">  2  3  1 -1</clus>
</clustering>
</event>
<event>
 6    0  0.1361744E+002  0.2317472E+03  0.7546771E-02  0.1125416E+00
         21   -1    0    0  503  502  0.00000000000E+00  0.00000000000E+00  0.27973943390E+03  0.27973943390E+03  0.00000000000E+00 0. -1.
          2   -1    0    0  505    0 -0.00000000000E+00 -0.00000000000E+00 -0.18679674337E+04  0.18679674337E+04  0.00000000000E+00 0.  1.
         21    1    1    2  503  501 -0.15353167803E+03  0.19298429082E+03  0.15948457913E+03  0.29368391792E+03  0.00000000000E+00 0. -1.
         21    1    1    2  504  502  0.48373408032E+02  0.17328513478E+02  0.25889040942E+02  0.57537000486E+02  0.00000000000E+00 0.  1.
         21    1    1    2  505  504  0.19721521195E+02 -0.77363253923E+02 -0.20586271238E+03  0.22080187455E+03  0.00000000000E+00 0. -1.
          2    1    1    2  501    0  0.85436748805E+02 -0.13294955038E+03 -0.15677389075E+04  0.15756840746E+04  0.00000000000E+00 0.  1.
<scales pt_clust_3="231.74721" pt_clust_4="51.38350" pt_clust_5="79.70162" pt_clust_6="14000.00000"></scales>
<clustering>
<clus scale="   51.383">  1  4  2 -1</clus>
<clus scale="   79.702">  2  5  1 -1</clus>
<clus scale="  231.747">  1  3  2 -1</clus>
<clus scale="   51.383">  1  3  2 -1</clus>
</clustering>
</event>
<event>
 6    0  0.1361744E+002  0.9224786E+02  0.7546771E-02  0.1297498E+00
          2   -1    0    0  504    0 -0.00000000000E+00  0.00000000000E+00  0.14668100500E+04  0.14668100500E+04  0.00000000000E+00 0.  1.
         21   -1    0    0  503  502  0.00000000000E+00 -0.00000000000E+00 -0.69479450068E+02  0.69479450068E+02  0.00000000000E+00 0. -1.
         21    1    1    2  503  501  0.27487952635E+02 -0.35930393172E+02  0.18608649888E+02  0.48916894262E+02  0.00000000000E+00 0. -1.
         21    1    1    2  504  505 -0.42328427463E+02  0.29761576800E+02  0.40531773574E+03  0.40860728595E+03  0.00000000000E+00 0. -1.
         21    1    1    2  505  502  0.67012180786E+02  0.52786124090E+02 -0.16082507777E+02  0.86808146661E+02  0.00000000000E+00 0. -1.
          2    1    1    2  501    0 -0.52171705958E+02 -0.46617307719E+02  0.98948672212E+03  0.99195717323E+03  0.00000000000E+00 0.  1.
<scales pt_clust_3="45.23915" pt_clust_4="50.43924" pt_clust_5="92.24786" pt_clust_6="14000.00000"></scales>
<clustering>
<clus scale="   45.239">  2  3  1 -1</clus>
<clus scale="   50.439">  1  4  2 -1</clus>
<clus scale="   92.248">  2  5  1 -1</clus>
<clus scale="   45.239">  2  3  1 -1</clus>
</clustering>
</event>
<event>
 6    0  0.1361744E+002  0.1706042E+03  0.7546771E-02  0.1177219E+00
          1   -1    0    0  505    0 -0.00000000000E+00  0.00000000000E+00  0.77054348241E+03  0.77054348241E+03  0.00000000000E+00 0. -1.
         21   -1    0    0  501  502  0.00000000000E+00 -0.00000000000E+00 -0.27397212519E+03  0.27397212519E+03  0.00000000000E+00 0. -1.
         21    1    1    2  503  504  0.39142144862E+02 -0.52014950282E+01 -0.19178677321E+02  0.43897434078E+02  0.00000000000E+00 0. -1.
         21    1    1    2  504  502  0.11855031141E+03  0.38029210170E+02 -0.21266091924E+03  0.24642455992E+03  0.00000000000E+00 0. -1.
         21    1    1    2  505  503 -0.11255306871E+03  0.18764318315E+02  0.31270580080E+03  0.33287416657E+03  0.00000000000E+00 0. -1.
          1    1    1    2  501    0 -0.45139387561E+02 -0.51592033457E+02  0.41570515299E+03  0.42131944703E+03  0.00000000000E+00 0. -1.
<scales pt_clust_3="38.16549" pt_clust_4="38.16549" pt_clust_5="156.56661" pt_clust_6="68.55146"></scales>
<clustering>
<clus scale="   38.165">  3  4 -1 -1</clus>
<clus scale="   68.551">  1  6  2 -1</clus>
<clus scale="  156.567">  1  5  2 -1</clus>
<clus scale="  170.604">  2  3  1 -1</clus>
</clustering>
</event>
<event>
 6    0  0.1361744E+002  0.9637279E+02  0.7546771E-02  0.1288114E+00
         21   -1    0    0  505  502  0.00000000000E+00  0.00000000000E+00  0.90941332604E+02  0.90941332604E+02  0.00000000000E+00 0.  1.
          2   -1    0    0  503    0 -0.00000000000E+00 -0.00000000000E+00 -0.98749855072E+03  0.98749855072E+03  0.00000000000E+00 0. -1.
         21    1    1    2  503  502  0.93915300418E+00 -0.53069305002E+02  0.32404070265E+02  0.62187272906E+02  0.00000000000E+00 0.  1.
         21    1    1    2  504  501  0.65820501236E+02  0.76331737234E+01 -0.90626787097E+02  0.11226672821E+03  0.00000000000E+00 0.  1.
         21    1    1    2  505  504  0.29880724456E+02 -0.50904485949E+01  0.21564556246E+02  0.37199468370E+02  0.00000000000E+00 0.  1.
          2    1    1    2  501    0 -0.96640378696E+02  0.50526579873E+02 -0.85989905753E+03  0.86678641383E+03  0.00000000000E+00 0. -1.
<scales pt_clust_3="61.78824" pt_clust_4="96.37279" pt_clust_5="30.31122" pt_clust_6="14000.00000"></scales>
<clustering>
<clus scale="   30.311">  1  5  2 -1</clus>
<clus scale="   61.788">  1  3  2 -1</clus>
<clus scale="   96.373">  1  4  2 -1</clus>
<clus scale="   30.311">  1  3  2 -1</clus>
</clustering>
</event>
<event>
 6    0  0.1361744E+002  0.1011253E+03  0.7546771E-02  0.1277947E+00
         21   -1    0    0  504  502  0.00000000000E+00  0.00000000000E+00  0.43766043844E+03  0.43766043844E+03  0.00000000000E+00 0.  1.
          2   -1    0    0  503    0 -0.00000000000E+00 -0.00000000000E+00 -0.34391349359E+03  0.34391349359E+03  0.00000000000E+00 0.  1.
         21    1    1    2  503  505  0.55911351406E+02 -0.66050047461E+02 -0.26179404754E+03  0.27572597142E+03  0.00000000000E+00 0.  1.
         21    1    1    2  504  501  0.13923386610E+02  0.90611297466E+02  0.31353854343E+03  0.32666601620E+03  0.00000000000E+00 0.  1.
         21    1    1    2  505  502 -0.29133657694E+02  0.11388444233E+02  0.96983994232E+02  0.10190368889E+03  0.00000000000E+00 0. -1.
          2    1    1    2  501    0 -0.40701080321E+02 -0.35949694237E+02 -0.54981545272E+02  0.77278255516E+02  0.00000000000E+00 0.  1.
<scales pt_clust_3="101.12535" pt_clust_4="14000.00000" pt_clust_5="31.28045" pt_clust_6="54.78323"></scales>
<clustering>
<clus scale="   31.280">  1  5  2 -1</clus>
<clus scale="   54.783">  2  6  1 -1</clus>
<clus scale="  101.125">  2  3  1 -1</clus>
<clus scale="   31.280">  1  3  2 -1</clus>
</clustering>
</event>
<event>
 6    0  0.1361744E+002  0.1984626E+03  0.7546771E-02  0.1151043E+00
          1   -1    0    0  503    0 -0.00000000000E+00  0.00000000000E+00  0.23092288829E+04  0.23092288829E+04  0.00000000000E+00 0. -1.
         21   -1    0    0  501  502  0.00000000000E+00 -0.00000000000E+00 -0.20623301601E+03  0.20623301601E+03  0.00000000000E+00 0.  1.
         21    1    1    2  503  505  0.42991309486E+02  0.34641805760E+01  0.25361193144E+03  0.25725330903E+03  0.00000000000E+00 0.  1.
         21    1    1    2  504  502 -0.64908974566E+02 -0.85907258864E+02 -0.10896362403E+03  0.15318715177E+03  0.00000000000E+00 0.  1.
         21    1    1    2  505  504 -0.52804577487E+02 -0.69398113658E+02 -0.42514818673E+02  0.97015109079E+02  0.00000000000E+00 0.  1.
          1    1    1    2  501    0  0.74722242566E+02  0.15184119195E+03  0.20008623782E+04  0.20080063290E+04  0.00000000000E+00 0. -1.
<scales pt_clust_3="43.13065" pt_clust_4="36.87809" pt_clust_5="36.87809" pt_clust_6="194.18597"></scales>
<clustering>
<clus scale="   36.878">  4  5 -1 -1</clus>
<clus scale="   43.131">  1  3  2 -1</clus>
<clus scale="  194.186">  1  6  2 -1</clus>
<clus scale="  198.463">  2  3  1 -1</clus>
</clustering>
</event>
<event>
 6    0  0.1361744E+002  0.2817478E+03  0.7546771E-02  0.1094738E+00
         21   -1    0    0  503  502  0.00000000000E+00  0.00000000000E+00  0.29289916719E+03  0.29289916719E+03  0.00000000000E+00 0. -1.
         -3   -1    0    0    0  501 -0.00000000000E+00 -0.00000000000E+00 -0.39576222416E+03  0.39576222416E+03  0.00000000000E+00 0.  1.
         21    1    1    2  503  505 -0.56063996766E+02 -0.10609106989E+02  0.58027404990E+02  0.81381230111E+02  0.00000000000E+00 0. -1.
         21    1    1    2  504  502  0.55612321718E+02  0.38788651117E+02 -0.58424074493E+02  0.89502303114E+02  0.00000000000E+00 0.  1.
         21    1    1    2  505  501 -0.21002578774E+03  0.10025585839E+02  0.91224263159E+02  0.22920124362E+03  0.00000000000E+00 0. -1.
         -3    1    1    2    0  504  0.21047746279E+03 -0.38205129966E+02 -0.19369065063E+03  0.28857661450E+03  0.00000000000E+00 0.  1.
<scales pt_clust_3="30.29146" pt_clust_4="52.14215" pt_clust_5="272.36999" pt_clust_6="52.14215"></scales>
<clustering>
<clus scale="   30.291">  3  5 -1 -1</clus>
<clus scale="   52.142">  4  6 -1 -1</clus>
<clus scale="  272.370">  1  3  2 -1</clus>
<clus scale="  272.370">  1  3  2 -1</clus>
</clustering>
</event>
<event>
 6    0  0.1361744E+002  0.1256027E+03  0.7546771E-02  0.1234130E+00
         21   -1    0    0  505  502  0.00000000000E+00  0.00000000000E+00  0.10728620189E+03  0.10728620189E+03  0.00000000000E+00 0. -1.
          2   -1    0    0  504    0 -0.00000000000E+00 -0.00000000000E+00 -0.54831745509E+03  0.54831745509E+03  0.00000000000E+00 0. -1.
         21    1    1    2  503  502  0.56107858387E+02  0.15731932758E+02  0.32645857468E+02  0.66793244350E+02  0.00000000000E+00 0. -1.
         21    1    1    2  504  503  0.60667297523E+02  0.12790811470E+02 -0.18841508643E+02  0.64800681283E+02  0.00000000000E+00 0. -1.
         21    1    1    2  505  501 -0.60514518855E+02 -0.11737926284E+03 -0.14176010048E+03  0.19374164350E+03  0.00000000000E+00 0. -1.
          2    1    1    2  501    0 -0.56260637055E+02  0.88856518610E+02 -0.31307550155E+03  0.33026808785E+03  0.00000000000E+00 0. -1.
<scales pt_clust_3="50.15407" pt_clust_4="50.15407" pt_clust_5="114.45355" pt_clust_6="105.17005"></scales>
<clustering>
<clus scale="   50.154">  3  4 -1 -1</clus>
<clus scale="  105.170">  2  6  1 -1</clus>
<clus scale="  114.454">  2  5  1 -1</clus>
<clus scale="  125.603">  1  3  2 -1</clus>
</clustering>
</event>
<event>
 6    0  0.1361744E+002  0.1233348E+03  0.7546771E-02  0.1237695E+00
         21   -1    0    0  504  502  0.00000000000E+00  0.00000000000E+00  0.42774531359E+02  0.42774531359E+02  0.00000000000E+00 0.  1.
         -3   -1    0    0    0  501 -0.00000000000E+00 -0.00000000000E+00 -0.15170824938E+04  0.15170824938E+04  0.00000000000E+00 0. -1.
         21    1    1    2  503  502  0.31441465757E+02 -0.13227453517E+03 -0.97471443877E+02  0.16728957169E+03  0.00000000000E+00 0.  1.
         21    1    1    2  504  501  0.26314202294E+02  0.38264138257E+02 -0.10397003134E+03  0.11386987721E+03  0.00000000000E+00 0.  1.
         21    1    1    2  505  503 -0.37923037687E+01  0.40248615540E+02 -0.27865318933E+03  0.28157047527E+03  0.00000000000E+00 0. -1.
         -3    1    1    2    0  505 -0.53963364283E+02  0.53761781373E+02 -0.99421329785E+03  0.99712710094E+03  0.00000000000E+00 0. -1.
<scales pt_clust_3="111.83356" pt_clust_4="46.43901" pt_clust_5="37.88744" pt_clust_6="37.88744"></scales>
<clustering>
<clus scale="   37.887">  5  6 -1 -1</clus>
<clus scale="   46.439">  1  4  2 -1</clus>
<clus scale="  111.834">  1  3  2 -1</clus>
<clus scale="   46.439">  1  3  2 -1</clus>
</clustering>
</event>
<event>
 6    0  0.1361744E+002  0.9373368E+02  0.7546771E-02  0.1294054E+00
         21   -1    0    0  503  502  0.00000000000E+00  0.00000000000E+00  0.99598237996E+02  0.99598237996E+02  0.00000000000E+00 0.  1.
          3   -1    0    0  504    0 -0.00000000000E+00 -0.00000000000E+00 -0.16242959585E+04  0.16242959585E+04  0.00000000000E+00 0.  1.
         21    1    1    2  503  501 -0.52634771824E+02  0.98889759821E+01 -0.13963731490E+03  0.14955531005E+03  0.00000000000E+00 0. -1.
         21    1    1    2  504  505 -0.54103691446E+02 -0.59856243590E+02 -0.13717469485E+04  0.13741177788E+04  0.00000000000E+00 0.  1.
         21    1    1    2  505  502  0.91577738616E+02  0.22133223573E+02  0.65851595261E+02  0.11494691990E+03  0.00000000000E+00 0.  1.
          3    1    1    2  501    0  0.15160724654E+02  0.27834044034E+02 -0.79165052410E+02  0.85274187785E+02  0.00000000000E+00 0.  1.
<scales pt_clust_3="52.71635" pt_clust_4="93.73368" pt_clust_5="14000.00000" pt_clust_6="31.69513"></scales>
<clustering>
<clus scale="   31.695">  2  6  1 -1</clus>
<clus scale="   52.716">  2  3  1 -1</clus>
<clus scale="   93.734">  2  4  1 -1</clus>
<clus scale="   93.734">  1  3  2 -1</clus>
</clustering>
</event>
<event>
 6    0  0.1361744E+002  0.8987434E+02  0.7546771E-02  0.1303156E+00
          1   -1    0    0  505    0 -0.00000000000E+00  0.00000000000E+00  0.17160768040E+03  0.17160768040E+03  0.00000000000E+00 0.  1.
         21   -1    0    0  503  502  0.00000000000E+00 -0.00000000000E+00 -0.14739006257E+04  0.14739006257E+04  0.00000000000E+00 0.  1.
         21    1    1    2  503  501 -0.38479556472E+01  0.31511294133E+02 -0.15038892935E+03  0.15370295538E+03  0.00000000000E+00 0.  1.
         21    1    1    2  504  502 -0.17657585267E+02  0.32232854241E+02 -0.12128860095E+04  0.12134427136E+04  0.00000000000E+00 0.  1.
         21    1    1    2  505  504 -0.77282598057E+01 -0.14107878017E+03 -0.40961563527E+02  0.14710811636E+03  0.00000000000E+00 0.  1.
          1    1    1    2  501    0  0.29233800720E+02  0.77334631794E+02  0.10194355709E+03  0.13125452073E+03  0.00000000000E+00 0.  1.
<scales pt_clust_3="31.74537" pt_clust_4="64.72003" pt_clust_5="89.87434" pt_clust_6="14000.00000"></scales>
<clustering>
<clus scale="   31.745">  2  3  1 -1</clus>
<clus scale="   64.720">  2  4  1 -1</clus>
<clus scale="   89.874">  2  5  1 -1</clus>
<clus scale="   31.745">  2  3  1 -1</clus>
</clustering>
</event>
<event>
 6    0  0.1361744E+002  0.1239367E+03  0.7546771E-02  0.1236740E+00
          1   -1    0    0  504    0 -0.00000000000E+00  0.00000000000E+00  0.15860603658E+04  0.15860603658E+04  0.00000000000E+00 0.  1.
         21   -1    0    0  501  502  0.00000000000E+00 -0.00000000000E+00 -0.28352038990E+03  0.28352038990E+03  0.00000000000E+00 0. -1.
         21    1    1    2  503  505 -0.80817298582E+02  0.10624489233E+03 -0.19587581749E+03  0.23703744171E+03  0.00000000000E+00 0. -1.
         21    1    1    2  504  503 -0.26927485518E+01  0.54323171419E+02  0.79474290961E+02  0.96303794170E+02  0.00000000000E+00 0. -1.
         21    1    1    2  505  502  0.30933889291E+02  0.58897906765E+01 -0.48841398328E+02  0.58112626266E+02  0.00000000000E+00 0.  1.
          1    1    1    2  501    0  0.52576157843E+02 -0.16645785442E+03  0.14677829008E+04  0.14781268935E+04  0.00000000000E+00 0.  1.
<scales pt_clust_3="123.93670" pt_clust_4="54.56096" pt_clust_5="31.48960" pt_clust_6="14000.00000"></scales>
<clustering>
<clus scale="   31.490">  2  5  1 -1</clus>
<clus scale="   54.561">  1  4  2 -1</clus>
<clus scale="  123.937">  2  3  1 -1</clus>
<clus scale="   31.490">  2  3  1 -1</clus>
</clustering>
</event>
<event>
 6    0  0.1361744E+002  0.1654737E+03  0.7546771E-02  0.1182652E+00
         21   -1    0    0  505  502  0.00000000000E+00  0.00000000000E+00  0.47551466454E+03  0.47551466454E+03  0.00000000000E+00 0.  1.
          1   -1    0    0  503    0 -0.00000000000E+00 -0.00000000000E+00 -0.97753602583E+02  0.97753602583E+02  0.00000000000E+00 0.  1.
         21    1    1    2  503  502  0.48121055987E+02 -0.27328259505E+02 -0.14406433263E+02  0.57184045994E+02  0.00000000000E+00 0.  1.
         21    1    1    2  504  501 -0.11401762024E+02  0.13020015444E+03  0.24159337238E+03  0.27468061084E+03  0.00000000000E+00 0.  1.
         21    1    1    2  505  504 -0.35359768659E+02  0.31984964307E+02  0.68728106511E+02  0.83647497308E+02  0.00000000000E+00 0.  1.
          1    1    1    2  501    0 -0.13595253034E+01 -0.13485685924E+03  0.81846016326E+02  0.15775611298E+03  0.00000000000E+00 0.  1.
<scales pt_clust_3="55.33959" pt_clust_4="36.28461" pt_clust_5="36.28461" pt_clust_6="154.18362"></scales>
<clustering>
<clus scale="   36.285">  4  5 -1 -1</clus>
<clus scale="   55.340">  2  3  1 -1</clus>
<clus scale="  154.184">  2  6  1 -1</clus>
<clus scale="  165.474">  1  3  2 -1</clus>
</clustering>
</event>
<event>
 6    0  0.1361744E+002  0.1151626E+03  0.7546771E-02  0.1251298E+00
          2   -1    0    0  503    0 -0.00000000000E+00  0.00000000000E+00  0.54837610506E+03  0.54837610506E+03  0.00000000000E+00 0.  1.
         21   -1    0    0  505  502  0.00000000000E+00 -0.00000000000E+00 -0.10513741360E+03  0.10513741360E+03  0.00000000000E+00 0. -1.
         21    1    1    2  503  502  0.84062056135E+01  0.67972446639E+02  0.88718675419E+02  0.11207997664E+03  0.00000000000E+00 0. -1.
         21    1    1    2  504  501 -0.44896728986E+02 -0.21073326281E+02  0.71332660684E-01  0.49596435785E+02  0.00000000000E+00 0. -1.
         21    1    1    2  505  504 -0.52491978084E+02 -0.31624973854E+02 -0.48966423937E+02  0.78442701429E+02  0.00000000000E+00 0. -1.
          2    1    1    2  501    0  0.88982501456E+02 -0.15274146505E+02  0.40341510732E+03  0.41339440481E+03  0.00000000000E+00 0.  1.
<scales pt_clust_3="68.49028" pt_clust_4="37.54338" pt_clust_5="37.54338" pt_clust_6="107.33500"></scales>
<clustering>
<clus scale="   37.543">  4  5 -1 -1</clus>
<clus scale="   68.490">  1  3  2 -1</clus>
<clus scale="  107.335">  1  6  2 -1</clus>
<clus scale="  115.163">  2  3  1 -1</clus>
</clustering>
</event>
<event>
 6    0  0.1361744E+002  0.1388945E+03  0.7546771E-02  0.1214824E+00
         21   -1    0    0  505  502  0.00000000000E+00  0.00000000000E+00  0.36195065156E+03  0.36195065156E+03  0.00000000000E+00 0.  1.
          2   -1    0    0  502    0 -0.00000000000E+00 -0.00000000000E+00 -0.44687850587E+03  0.44687850587E+03  0.00000000000E+00 0.  1.
         21    1    1    2  503  504 -0.35723967456E+02  0.72025907280E+02  0.31302056697E+03  0.32318076756E+03  0.00000000000E+00 0.  1.
         21    1    1    2  504  501  0.73870899807E+02 -0.55831883500E+02 -0.21874355194E+03  0.23753494599E+03  0.00000000000E+00 0.  1.
         21    1    1    2  505  503 -0.46817417047E+02  0.25470165454E+02  0.99605841404E+01  0.54220043375E+02  0.00000000000E+00 0. -1.
          2    1    1    2  501    0  0.86704846956E+01 -0.41664189235E+02 -0.18916545348E+03  0.19389340051E+03  0.00000000000E+00 0.  1.
<scales pt_clust_3="125.97454" pt_clust_4="39.65824" pt_clust_5="53.29728" pt_clust_6="39.65824"></scales>
<clustering>
<clus scale="   39.658">  4  6 -1 -1</clus>
<clus scale="   53.297">  1  5  2 -1</clus>
<clus scale="  125.975">  1  3  2 -1</clus>
<clus scale="   53.297">  1  3  2 -1</clus>
</clustering>
</event>
<event>
 6    0  0.1361744E+002  0.1058200E+03  0.7546771E-02  0.1268512E+00
         21   -1    0    0  503  502  0.00000000000E+00  0.00000000000E+00  0.23626457394E+03  0.23626457394E+03  0.00000000000E+00 0.  1.
          2   -1    0    0  504    0 -0.00000000000E+00 -0.00000000000E+00 -0.58257982994E+03  0.58257982994E+03  0.00000000000E+00 0. -1.
         21    1    1    2  503  505 -0.42359969294E+01  0.37116642380E+02  0.52253355605E+01  0.37721253204E+02  0.00000000000E+00 0. -1.
         21    1    1    2  504  502 -0.19110334146E+02  0.71515940783E+02  0.17325328363E+03  0.18840497590E+03  0.00000000000E+00 0.  1.
         21    1    1    2  505  501 -0.64149769733E+02 -0.46426924390E+02 -0.27282041432E+02  0.83755370275E+02  0.00000000000E+00 0.  1.
          2    1    1    2  501    0  0.87496100809E+02 -0.62205658773E+02 -0.49751183376E+03  0.50896280450E+03  0.00000000000E+00 0. -1.
<scales pt_clust_3="37.35758" pt_clust_4="105.82000" pt_clust_5="76.89699" pt_clust_6="14000.00000"></scales>
<clustering>
<clus scale="   37.358">  1  3  2 -1</clus>
<clus scale="   76.897">  1  5  2 -1</clus>
<clus scale="  105.820">  1  4  2 -1</clus>
<clus scale="   37.358">  1  3  2 -1</clus>
</clustering>
</event>
<event>
 6    0  0.1361744E+002  0.1441982E+03  0.7546771E-02  0.1207789E+00
         -2   -1    0    0    0  501 -0.00000000000E+00  0.00000000000E+00  0.92968529687E+03  0.92968529687E+03  0.00000000000E+00 0.  1.
         21   -1    0    0  503  502  0.00000000000E+00 -0.00000000000E+00 -0.19931732635E+03  0.19931732635E+03  0.00000000000E+00 0.  1.
         21    1    1    2  503  505  0.39878278426E+02 -0.14934685556E+02 -0.12338841003E+03  0.13052977305E+03  0.00000000000E+00 0.  1.
         21    1    1    2  504  501 -0.52218637591E+02 -0.10069964911E+03  0.29703284972E+03  0.31795553031E+03  0.00000000000E+00 0. -1.
         21    1    1    2  505  504 -0.64847326014E+02 -0.58734209731E+02 -0.46751270817E+01  0.87617006895E+02  0.00000000000E+00 0.  1.
         -2    1    1    2    0  502  0.77187685178E+02  0.17436854439E+03  0.56139865791E+03  0.59290031297E+03  0.00000000000E+00 0.  1.
<scales pt_clust_3="42.58312" pt_clust_4="144.19821" pt_clust_5="78.82138" pt_clust_6="14000.00000"></scales>
<clustering>
<clus scale="   42.583">  2  3  1 -1</clus>
<clus scale="   78.821">  2  5  1 -1</clus>
<clus scale="  144.198">  1  4  2 -1</clus>
<clus scale="   42.583">  2  3  1 -1</clus>
</clustering>
</event>
<event>
 6    0  0.1361744E+002  0.1061170E+03  0.7546771E-02  0.1267934E+00
         21   -1    0    0  504  502  0.00000000000E+00  0.00000000000E+00  0.26436724379E+03  0.26436724379E+03  0.00000000000E+00 0.  1.
          2   -1    0    0  505    0 -0.00000000000E+00 -0.00000000000E+00 -0.95984361585E+03  0.95984361585E+03  0.00000000000E+00 0.  1.
         21    1    1    2  503  502  0.35934887149E+02 -0.28363976524E+02  0.76910832430E+02  0.89504789948E+02  0.00000000000E+00 0.  1.
         21    1    1    2  504  501  0.36518264945E+02 -0.79072322505E+01  0.16530795863E+03  0.16947810827E+03  0.00000000000E+00 0.  1.
         21    1    1    2  505  503 -0.13949616670E+03 -0.18895588258E+02 -0.62867782345E+03  0.64424531778E+03  0.00000000000E+00 0.  1.
          2    1    1    2  501    0  0.67043014610E+02  0.55166797032E+02 -0.30901733967E+03  0.32098264364E+03  0.00000000000E+00 0.  1.
<scales pt_clust_3="75.89832" pt_clust_4="37.36453" pt_clust_5="106.11703" pt_clust_6="14000.00000"></scales>
<clustering>
<clus scale="   37.365">  1  4  2 -1</clus>
<clus scale="   75.898">  1  3  2 -1</clus>
<clus scale="  106.117">  1  5  2 -1</clus>
<clus scale="   37.365">  1  3  2 -1</clus>
</clustering>
</event>
<event>
 6    0  0.1361744E+002  0.9281492E+02  0.7546771E-02  0.1296175E+00
          1   -1    0    0  504    0 -0.00000000000E+00  0.00000000000E+00  0.67577151772E+03  0.67577151772E+03  0.00000000000E+00 0.  1.
         21   -1    0    0  503  502  0.00000000000E+00 -0.00000000000E+00 -0.63525198695E+03  0.63525198695E+03  0.00000000000E+00 0.  1.
         21    1    1    2  503  505  0.76294993181E+02 -0.17276478432E+02 -0.22373539285E+03  0.23701672663E+03  0.00000000000E+00 0.  1.
         21    1    1    2  504  502  0.59119663964E+01 -0.49551471583E+02  0.17495948596E+03  0.18193713587E+03  0.00000000000E+00 0.  1.
         21    1    1    2  505  501 -0.12701274095E+03  0.95891501353E+02 -0.38405126953E+03  0.41571960986E+03  0.00000000000E+00 0.  1.
          1    1    1    2  501    0  0.44805781370E+02 -0.29063551338E+02  0.47334670720E+03  0.47635003230E+03  0.00000000000E+00 0.  1.
<scales pt_clust_3="78.45224" pt_clust_4="49.90290" pt_clust_5="14000.00000" pt_clust_6="92.81492"></scales>
<clustering>
<clus scale="   49.903">  1  4  2 -1</clus>
<clus scale="   78.452">  2  3  1 -1</clus>
<clus scale="   92.815">  1  6  2 -1</clus>
<clus scale="   78.452">  2  3  1 -1</clus>
</clustering>
</event>
<event>
 6    0  0.1361744E+002  0.8338301E+02  0.7546771E-02  0.1319716E+00
          1   -1    0    0  504    0 -0.00000000000E+00  0.00000000000E+00  0.19267171634E+04  0.19267171634E+04  0.00000000000E+00 0. -1.
         21   -1    0    0  503  502  0.00000000000E+00 -0.00000000000E+00 -0.25719743071E+03  0.25719743071E+03  0.00000000000E+00 0. -1.
         21    1    1    2  503  505 -0.21899517421E+02 -0.41136764104E+02 -0.15949540068E+03  0.16616439168E+03  0.00000000000E+00 0. -1.
         21    1    1    2  504  502  0.55011171159E+02  0.43576188042E+02  0.50099725161E+02  0.86227000282E+02  0.00000000000E+00 0. -1.
         21    1    1    2  505  501 -0.65049833288E+02 -0.79260579101E+02 -0.40471899508E+02  0.11023472620E+03  0.00000000000E+00 0. -1.
          1    1    1    2  501    0  0.31938179550E+02  0.76821155163E+02  0.18193873077E+04  0.18212884759E+04  0.00000000000E+00 0. -1.
<scales pt_clust_3="46.60281" pt_clust_4="62.10649" pt_clust_5="83.38301" pt_clust_6="14000.00000"></scales>
<clustering>
<clus scale="   46.603">  2  3  1 -1</clus>
<clus scale="   62.106">  2  4  1 -1</clus>
<clus scale="   83.383">  2  5  1 -1</clus>
<clus scale="   46.603">  2  3  1 -1</clus>
</clustering>
</event>
<event>
 6    0  0.1361744E+002  0.1913969E+03  0.7546771E-02  0.1157207E+00
         21   -1    0    0  503  502  0.00000000000E+00  0.00000000000E+00  0.17373234564E+03  0.17373234564E+03  0.00000000000E+00 0. -1.
          2   -1    0    0  505    0 -0.00000000000E+00 -0.00000000000E+00 -0.27289282901E+04  0.27289282901E+04  0.00000000000E+00 0.  1.
         21    1    1    2  503  504  0.57617489796E+02 -0.51360921801E+02 -0.13148665244E+03  0.15246789560E+03  0.00000000000E+00 0. -1.
         21    1    1    2  504  501  0.48826609917E+02 -0.74175596885E+02 -0.10391667174E+04  0.10429542288E+04  0.00000000000E+00 0. -1.
         21    1    1    2  505  502 -0.71690387412E+02  0.21970296340E+03  0.75978178977E+02  0.24327266072E+03  0.00000000000E+00 0. -1.
          2    1    1    2  501    0 -0.34753712301E+02 -0.94166444709E+02 -0.14605207537E+04  0.14639658506E+04  0.00000000000E+00 0.  1.
<scales pt_clust_3="77.18626" pt_clust_4="82.67271" pt_clust_5="170.17349" pt_clust_6="82.67271"></scales>
<clustering>
<clus scale="   77.186">  1  3  2 -1</clus>
<clus scale="   82.673">  4  6 -1 -1</clus>
<clus scale="  170.173">  1  5  2 -1</clus>
<clus scale="   77.186">  1  3  2 -1</clus>
</clustering>
</event>
<event>
 6    0  0.3310632E+002  0.1099269E+03  0.7546771E-02  0.1260705E+00
         21   -1    0    0  503  502  0.00000000000E+00  0.00000000000E+00  0.32567187885E+03  0.32567187885E+03  0.00000000000E+00 0.  1.
          2   -1    0    0  504    0 -0.00000000000E+00 -0.00000000000E+00 -0.32192714897E+04  0.32192714897E+04  0.00000000000E+00 0.  1.
         21    1    1    2  503  501  0.63407829192E+02 -0.15110105966E+02  0.29636603603E+03  0.30344965879E+03  0.00000000000E+00 0.  1.
         21    1    1    2  504  505  0.43585327465E+02  0.25215505235E+01 -0.10034026841E+03  0.10942672641E+03  0.00000000000E+00 0. -1.
         21    1    1    2  505  502  0.34520820966E+02 -0.35803631285E+02 -0.12463927855E+02  0.51273156631E+02  0.00000000000E+00 0. -1.
          2    1    1    2  501    0 -0.14151397762E+03  0.48392186727E+02 -0.30771614506E+04  0.30807938267E+04  0.00000000000E+00 0.  1.
<scales pt_clust_3="109.92695" pt_clust_4="43.65821" pt_clust_5="50.02731" pt_clust_6="14000.00000"></scales>
<clustering>
<clus scale="   43.658">  2  4  1 -1</clus>
<clus scale="   50.027">  1  5  2 -1</clus>
<clus scale="  109.927">  1  3  2 -1</clus>
<clus scale="   50.027">  1  3  2 -1</clus>
</clustering>
</event>
<event>
 6    0  0.1361744E+002  0.6104446E+02  0.7546771E-02  0.1393500E+00
         21   -1    0    0  505  502  0.00000000000E+00  0.00000000000E+00  0.25166914093E+03  0.25166914093E+03  0.00000000000E+00 0. -1.
          2   -1    0    0  503    0 -0.00000000000E+00 -0.00000000000E+00 -0.18658323515E+04  0.18658323515E+04  0.00000000000E+00 0.  1.
         21    1    1    2  503  504  0.20493933188E+02 -0.10097880234E+03 -0.87561522734E+03  0.88165681882E+03  0.00000000000E+00 0.  1.
         21    1    1    2  504  502 -0.43315002169E+02  0.57653371410E+02  0.22638275818E+03  0.23759051717E+03  0.00000000000E+00 0. -1.
         21    1    1    2  505  501  0.35740388359E+02  0.16841926054E+01 -0.36283351095E+01  0.35963546550E+02  0.00000000000E+00 0. -1.
          2    1    1    2  501    0 -0.12919319378E+02  0.41641238324E+02 -0.96130240627E+03  0.96229060987E+03  0.00000000000E+00 0.  1.
<scales pt_clust_3="14000.00000" pt_clust_4="61.04446" pt_clust_5="35.78005" pt_clust_6="43.58055"></scales>
<clustering>
<clus scale="   35.780">  1  5  2 -1</clus>
<clus scale="   43.581">  2  6  1 -1</clus>
<clus scale="   61.044">  1  4  2 -1</clus>
<clus scale="   35.780">  1  3  2 -1</clus>
</clustering>
</event>
<event>
 6    0  0.1361744E+002  0.3188847E+03  0.7546771E-02  0.1076164E+00
          2   -1    0    0  503    0 -0.00000000000E+00  0.00000000000E+00  0.15482648529E+04  0.15482648529E+04  0.00000000000E+00 0. -1.
         21   -1    0    0  504  502  0.00000000000E+00 -0.00000000000E+00 -0.22774800823E+03  0.22774800823E+03  0.00000000000E+00 0. -1.
         21    1    1    2  503  505  0.15686896159E+02 -0.40958480713E+02  0.38453354486E+03  0.38702677295E+03  0.00000000000E+00 0. -1.
         21    1    1    2  504  501 -0.55592636862E+02 -0.28198093346E+03 -0.80006131708E+02  0.29833667093E+03  0.00000000000E+00 0. -1.
         21    1    1    2  505  502 -0.52378364420E+01 -0.30201073303E+02  0.32351360750E+02  0.44566246215E+02  0.00000000000E+00 0. -1.
          2    1    1    2  501    0  0.45143577145E+02  0.35314048748E+03  0.98363807075E+03  0.10460831710E+04  0.00000000000E+00 0. -1.
<scales pt_clust_3="44.00791" pt_clust_4="14000.00000" pt_clust_5="30.65191" pt_clust_6="318.88467"></scales>
<clustering>
<clus scale="   30.652">  2  5  1 -1</clus>
<clus scale="   44.008">  1  3  2 -1</clus>
<clus scale="  318.885">  1  6  2 -1</clus>
<clus scale="   30.652">  2  3  1 -1</clus>
</clustering>
</event>
<event>
 6    0  0.1361744E+002  0.3157381E+03  0.7546771E-02  0.1077628E+00
         -2   -1    0    0    0  501 -0.00000000000E+00  0.00000000000E+00  0.99837915677E+03  0.99837915677E+03  0.00000000000E+00 0. -1.
         21   -1    0    0  505  502  0.00000000000E+00 -0.00000000000E+00 -0.12327395203E+03  0.12327395203E+03  0.00000000000E+00 0. -1.
         21    1    1    2  503  504 -0.36279197057E+02 -0.99922602470E+02  0.16817219919E+03  0.19895375142E+03  0.00000000000E+00 0.  1.
         21    1    1    2  504  501  0.62935096391E+02  0.10957637861E+02  0.11673221357E+03  0.13306880127E+03  0.00000000000E+00 0. -1.
         21    1    1    2  505  503  0.16291227123E+02 -0.21446902035E+03  0.28572512546E+03  0.35763278945E+03  0.00000000000E+00 0. -1.
         -2    1    1    2    0  502 -0.42947126457E+02  0.30343398496E+03  0.30447566651E+03  0.43199776666E+03  0.00000000000E+00 0. -1.
<scales pt_clust_3="47.28677" pt_clust_4="63.88189" pt_clust_5="47.28677" pt_clust_6="308.49050"></scales>
<clustering>
<clus scale="   47.287">  3  5 -1 -1</clus>
<clus scale="   63.882">  1  4  2 -1</clus>
<clus scale="  308.491">  2  6  1 -1</clus>
<clus scale="  308.491">  2  3  1 -1</clus>
</clustering>
</event>
<event>
 6    0  0.1361744E+002  0.3712100E+03  0.7546771E-02  0.1054231E+00
         21   -1    0    0  503  502  0.00000000000E+00  0.00000000000E+00  0.33871808699E+04  0.33871808699E+04  0.00000000000E+00 0. -1.
         -1   -1    0    0    0  501 -0.00000000000E+00 -0.00000000000E+00 -0.16073097545E+03  0.16073097545E+03  0.00000000000E+00 0.  1.
         21    1    1    2  503  505 -0.48972394084E+02  0.51052787679E+02  0.11204372536E+04  0.11226683935E+04  0.00000000000E+00 0. -1.
         21    1    1    2  504  501 -0.26268682053E+02  0.21508967350E+02  0.58024225838E+02  0.67227153126E+02  0.00000000000E+00 0. -1.
         21    1    1    2  505  504 -0.24430792083E+03  0.13444136581E+03  0.19432197360E+04  0.19631260233E+04  0.00000000000E+00 0. -1.
         -1    1    1    2    0  502  0.31954899697E+03 -0.20700312084E+03  0.10476867898E+03  0.39489027539E+03  0.00000000000E+00 0.  1.
<scales pt_clust_3="63.00153" pt_clust_4="33.95113" pt_clust_5="63.00153" pt_clust_6="349.40704"></scales>
<clustering>
<clus scale="   33.951">  2  4  1 -1</clus>
<clus scale="   63.002">  3  5 -1 -1</clus>
<clus scale="  349.407">  2  6  1 -1</clus>
<clus scale="  371.210">  1  3  2 -1</clus>
</clustering>
</event>
<event>
 6    0  0.1361744E+002  0.8932375E+02  0.7546771E-02  0.1304498E+00
          4   -1    0    0  503    0 -0.00000000000E+00  0.00000000000E+00  0.20186093013E+02  0.20186093013E+02  0.00000000000E+00 0.  1.
         21   -1    0    0  504  502  0.00000000000E+00 -0.00000000000E+00 -0.31601076923E+04  0.31601076923E+04  0.00000000000E+00 0.  1.
         21    1    1    2  503  505 -0.35207317621E+02 -0.22190632194E+02 -0.10344912486E+03  0.11150650566E+03  0.00000000000E+00 0. -1.
         21    1    1    2  504  501  0.69776720598E+02 -0.52849597215E+02 -0.14517723858E+04  0.14544087908E+04  0.00000000000E+00 0.  1.
         21    1    1    2  505  502  0.27882430375E+02  0.58867891422E+02 -0.15252838791E+04  0.15266740878E+04  0.00000000000E+00 0.  1.
          4    1    1    2  501    0 -0.62451833353E+02  0.16172337987E+02 -0.59416209593E+02  0.87704401073E+02  0.00000000000E+00 0.  1.
<scales pt_clust_3="41.61706" pt_clust_4="89.32375" pt_clust_5="63.63334" pt_clust_6="14000.00000"></scales>
<clustering>
<clus scale="   41.617">  1  3  2 -1</clus>
<clus scale="   63.633">  2  5  1 -1</clus>
<clus scale="   89.324">  2  4  1 -1</clus>
<clus scale="   63.633">  2  3  1 -1</clus>
</clustering>
</event>
<event>
 6    0  0.1361744E+002  0.9156204E+02  0.7546771E-02  0.1299112E+00
         21   -1    0    0  505  502  0.00000000000E+00  0.00000000000E+00  0.49783551949E+03  0.49783551949E+03  0.00000000000E+00 0.  1.
          2   -1    0    0  504    0 -0.00000000000E+00 -0.00000000000E+00 -0.26244512548E+04  0.26244512548E+04  0.00000000000E+00 0. -1.
         21    1    1    2  503  502  0.26681571228E+02 -0.30941209940E+02  0.41795441121E+02  0.58447614273E+02  0.00000000000E+00 0.  1.
         21    1    1    2  504  503  0.42306427687E+02 -0.21297091657E+02 -0.28561040505E+03  0.28951114557E+03  0.00000000000E+00 0.  1.
         21    1    1    2  505  501 -0.18398562240E+02 -0.60362273099E+02  0.44188449586E+03  0.44636758259E+03  0.00000000000E+00 0.  1.
          2    1    1    2  501    0 -0.50589436676E+02  0.11260057470E+03 -0.23246852673E+04  0.23279604319E+04  0.00000000000E+00 0. -1.
<scales pt_clust_3="40.85664" pt_clust_4="47.52902" pt_clust_5="14000.00000" pt_clust_6="91.56204"></scales>
<clustering>
<clus scale="   40.857">  1  3  2 -1</clus>
<clus scale="   47.529">  2  4  1 -1</clus>
<clus scale="   91.562">  2  6  1 -1</clus>
<clus scale="   40.857">  1  3  2 -1</clus>
</clustering>
</event>
<event>
 6    0  0.1361744E+002  0.1611155E+03  0.7546771E-02  0.1187443E+00
          1   -1    0    0  503    0 -0.00000000000E+00  0.00000000000E+00  0.21459333246E+03  0.21459333246E+03  0.00000000000E+00 0.  1.
         21   -1    0    0  505  502  0.00000000000E+00 -0.00000000000E+00 -0.13313386661E+03  0.13313386661E+03  0.00000000000E+00 0.  1.
         21    1    1    2  503  504 -0.27793695984E+02  0.11093223358E+03  0.10040354766E+02  0.11480095255E+03  0.00000000000E+00 0.  1.
         21    1    1    2  504  502  0.16453430252E+02  0.37009932868E+02 -0.23618145673E+02  0.46885683348E+02  0.00000000000E+00 0.  1.
         21    1    1    2  505  501  0.17046313752E+02 -0.51733829300E+02  0.59463154844E+01  0.54793472005E+02  0.00000000000E+00 0.  1.
          1    1    1    2  501    0 -0.57060480203E+01 -0.96208337148E+02  0.89090941281E+02  0.13124709116E+03  0.00000000000E+00 0.  1.
<scales pt_clust_3="37.36801" pt_clust_4="37.36801" pt_clust_5="44.87768" pt_clust_6="159.93440"></scales>
<clustering>
<clus scale="   37.368">  3  4 -1 -1</clus>
<clus scale="   44.878">  5  6 -1 -1</clus>
<clus scale="  159.934">  1  5  2 -1</clus>
<clus scale="  161.116">  2  3  1 -1</clus>
</clustering>
</event>
<event>
 6    0  0.1361744E+002  0.8889994E+02  0.7546771E-02  0.1305538E+00
          2   -1    0    0  505    0 -0.00000000000E+00  0.00000000000E+00  0.12858533696E+04  0.12858533696E+04  0.00000000000E+00 0. -1.
         21   -1    0    0  503  502  0.00000000000E+00 -0.00000000000E+00 -0.24927231454E+02  0.24927231454E+02  0.00000000000E+00 0.  1.
         21    1    1    2  503  501  0.37752025268E+02  0.93604797715E+01  0.14170603889E+03  0.14694704983E+03  0.00000000000E+00 0. -1.
         21    1    1    2  504  502 -0.65623001359E+01  0.35984437491E+02  0.75592338464E+02  0.83977051384E+02  0.00000000000E+00 0.  1.
         21    1    1    2  505  504 -0.78691804684E+02  0.32781827977E+02  0.98291393085E+02  0.13010859435E+03  0.00000000000E+00 0.  1.
          2    1    1    2  501    0  0.47502079552E+02 -0.78126745240E+02  0.94533636765E+03  0.94974790544E+03  0.00000000000E+00 0. -1.
<scales pt_clust_3="39.45533" pt_clust_4="36.57791" pt_clust_5="88.89994" pt_clust_6="14000.00000"></scales>
<clustering>
<clus scale="   36.578">  2  4  1 -1</clus>
<clus scale="   39.455">  2  3  1 -1</clus>
<clus scale="   88.900">  2  5  1 -1</clus>
<clus scale="   36.578">  2  3  1 -1</clus>
</clustering>
</event>
<event>
 6    0  0.1361744E+002  0.1600777E+03  0.7546771E-02  0.1188609E+00
          1   -1    0    0  502    0 -0.00000000000E+00  0.00000000000E+00  0.32106631047E+03  0.32106631047E+03  0.00000000000E+00 0. -1.
         21   -1    0    0  505  502  0.00000000000E+00 -0.00000000000E+00 -0.19570959917E+03  0.19570959917E+03  0.00000000000E+00 0.  1.
         21    1    1    2  503  504 -0.81153764099E+01  0.56730099071E+02 -0.29757402625E+02  0.64572954755E+02  0.00000000000E+00 0.  1.
         21    1    1    2  504  501  0.27655027849E+02 -0.60715199533E+02  0.57249487355E+02  0.87912682942E+02  0.00000000000E+00 0. -1.
         21    1    1    2  505  503 -0.55529816086E+02  0.72498695115E+02 -0.10971798424E+03  0.14275033216E+03  0.00000000000E+00 0.  1.
          1    1    1    2  501    0  0.35990164647E+02 -0.68513594653E+02  0.20758261081E+03  0.22153993977E+03  0.00000000000E+00 0. -1.
<scales pt_clust_3="41.75860" pt_clust_4="64.82145" pt_clust_5="153.39349" pt_clust_6="64.82145"></scales>
<clustering>
<clus scale="   41.759">  3  5 -1 -1</clus>
<clus scale="   64.821">  4  6 -1 -1</clus>
<clus scale="  153.393">  2  3  1 -1</clus>
<clus scale="  153.393">  2  3  1 -1</clus>
</clustering>
</event>
<event>
 6    0  0.1361744E+002  0.1280707E+03  0.7546771E-02  0.1230347E+00
          2   -1    0    0  504    0 -0.00000000000E+00  0.00000000000E+00  0.23755210063E+04  0.23755210063E+04  0.00000000000E+00 0. -1.
         21   -1    0    0  503  502  0.00000000000E+00 -0.00000000000E+00 -0.57521123207E+02  0.57521123207E+02  0.00000000000E+00 0.  1.
         21    1    1    2  503  501 -0.50623543284E+02 -0.39185142998E+02  0.52154974252E+02  0.82573360751E+02  0.00000000000E+00 0. -1.
         21    1    1    2  504  505  0.15882802527E+03  0.87357872198E+02  0.10340824167E+04  0.10498496007E+04  0.00000000000E+00 0. -1.
         21    1    1    2  505  502 -0.52940805034E+02  0.53930872998E+02  0.13417357708E+02  0.76754761337E+02  0.00000000000E+00 0.  1.
          2    1    1    2  501    0 -0.55263676955E+02 -0.10210360220E+03  0.12183451344E+04  0.12238644067E+04  0.00000000000E+00 0. -1.
<scales pt_clust_3="64.01733" pt_clust_4="128.07074" pt_clust_5="94.10336" pt_clust_6="14000.00000"></scales>
<clustering>
<clus scale="   64.017">  2  3  1 -1</clus>
<clus scale="   94.103">  2  5  1 -1</clus>
<clus scale="  128.071">  2  4  1 -1</clus>
<clus scale="   64.017">  2  3  1 -1</clus>
</clustering>
</event>
<event>
 6    0  0.1469638E+002  0.9083748E+02  0.7546771E-02  0.1300836E+00
          1   -1    0    0  504    0 -0.00000000000E+00  0.00000000000E+00  0.19111394816E+04  0.19111394816E+04  0.00000000000E+00 0.  1.
         21   -1    0    0  503  502  0.00000000000E+00 -0.00000000000E+00 -0.35328309681E+03  0.35328309681E+03  0.00000000000E+00 0. -1.
         21    1    1    2  503  501  0.48992285524E+02 -0.56206826162E+01 -0.30958141635E+03  0.31348443257E+03  0.00000000000E+00 0. -1.
         21    1    1    2  504  505  0.15810924942E+01 -0.41558142062E+02  0.14634778859E+03  0.15214221719E+03  0.00000000000E+00 0. -1.
         21    1    1    2  505  502  0.35971624838E+02 -0.27750287904E+02 -0.23021580369E+02  0.50931615279E+02  0.00000000000E+00 0.  1.
          1    1    1    2  501    0 -0.86545002857E+02  0.74929112581E+02  0.17441115930E+04  0.17478643134E+04  0.00000000000E+00 0.  1.
<scales pt_clust_3="90.83748" pt_clust_4="41.58821" pt_clust_5="45.64334" pt_clust_6="14000.00000"></scales>
<clustering>
<clus scale="   41.588">  1  4  2 -1</clus>
<clus scale="   45.643">  2  5  1 -1</clus>
<clus scale="   90.837">  2  3  1 -1</clus>
<clus scale="   45.643">  2  3  1 -1</clus>
</clustering>
</event>
<event>
 6    0  0.1361744E+002  0.1670008E+03  0.7546771E-02  0.1181012E+00
         -4   -1    0    0    0  501 -0.00000000000E+00  0.00000000000E+00  0.12249668769E+04  0.12249668769E+04  0.00000000000E+00 0.  1.
         21   -1    0    0  505  502  0.00000000000E+00 -0.00000000000E+00 -0.18161845942E+03  0.18161845942E+03  0.00000000000E+00 0. -1.
         21    1    1    2  503  504  0.92717798053E+02 -0.19538248660E+03  0.41647891715E+02  0.22023953558E+03  0.00000000000E+00 0. -1.
         21    1    1    2  504  501  0.31198357279E+02 -0.39996053625E+02  0.47700309225E+03  0.47969258053E+03  0.00000000000E+00 0. -1.
         21    1    1    2  505  503  0.46449437839E+01  0.81567623832E+02 -0.51502133806E+02  0.96578064522E+02  0.00000000000E+00 0. -1.
         -4    1    1    2    0  502 -0.12856109912E+03  0.15381091640E+03  0.57619956730E+03  0.61007515567E+03  0.00000000000E+00 0.  1.
<scales pt_clust_3="14000.00000" pt_clust_4="50.72496" pt_clust_5="80.55424" pt_clust_6="167.00078"></scales>
<clustering>
<clus scale="   50.725">  1  4  2 -1</clus>
<clus scale="   80.554">  2  5  1 -1</clus>
<clus scale="  167.001">  1  6  2 -1</clus>
<clus scale="   80.554">  2  3  1 -1</clus>
</clustering>
</event>
<event>
 6    0  0.1361744E+002  0.1177131E+03  0.7546771E-02  0.1246918E+00
         21   -1    0    0  503  502  0.00000000000E+00  0.00000000000E+00  0.16697670174E+03  0.16697670174E+03  0.00000000000E+00 0. -1.
          1   -1    0    0  505    0 -0.00000000000E+00 -0.00000000000E+00 -0.33623637989E+03  0.33623637989E+03  0.00000000000E+00 0.  1.
         21    1    1    2  503  504  0.23834062650E+02 -0.37269581016E+02  0.57741856944E+02  0.72740678131E+02  0.00000000000E+00 0. -1.
         21    1    1    2  504  501 -0.45480027586E+02 -0.86808352196E+02  0.47363898919E+02  0.10884604651E+03  0.00000000000E+00 0. -1.
         21    1    1    2  505  502  0.34573981182E+02 -0.22341145995E+01 -0.10071083197E+03  0.10650362961E+03  0.00000000000E+00 0. -1.
          1    1    1    2  501    0 -0.12928016246E+02  0.12631204781E+03 -0.17365460204E+03  0.21512272738E+03  0.00000000000E+00 0.  1.
<scales pt_clust_3="44.90913" pt_clust_4="117.71306" pt_clust_5="34.64609" pt_clust_6="14000.00000"></scales>
<clustering>
<clus scale="   34.646">  2  5  1 -1</clus>
<clus scale="   44.909">  1  3  2 -1</clus>
<clus scale="  117.713">  1  4  2 -1</clus>
<clus scale="   44.909">  1  3  2 -1</clus>
</clustering>
</event>
<event>
 6    0  0.1361744E+002  0.1040376E+03  0.7546771E-02  0.1272027E+00
         21   -1    0    0  505  502  0.00000000000E+00  0.00000000000E+00  0.19714746973E+03  0.19714746973E+03  0.00000000000E+00 0.  1.
          2   -1    0    0  504    0 -0.00000000000E+00 -0.00000000000E+00 -0.30818079263E+04  0.30818079263E+04  0.00000000000E+00 0. -1.
         21    1    1    2  503  502 -0.19539187087E+02 -0.24330571911E+02  0.14451348815E+02  0.34388923277E+02  0.00000000000E+00 0.  1.
         21    1    1    2  504  503 -0.37474730485E+02 -0.72051276915E+02 -0.21020027377E+04  0.21035710711E+04  0.00000000000E+00 0. -1.
         21    1    1    2  505  501 -0.55554581211E+01  0.12563215295E+03  0.14751895782E+03  0.19384567028E+03  0.00000000000E+00 0.  1.
          2    1    1    2  501    0  0.62569375692E+02 -0.29250304119E+02 -0.94462802557E+03  0.94714973143E+03  0.00000000000E+00 0. -1.
<scales pt_clust_3="31.20507" pt_clust_4="104.03763" pt_clust_5="14000.00000" pt_clust_6="69.01522"></scales>
<clustering>
<clus scale="   31.205">  1  3  2 -1</clus>
<clus scale="   69.015">  2  6  1 -1</clus>
<clus scale="  104.038">  2  4  1 -1</clus>
<clus scale="   31.205">  1  3  2 -1</clus>
</clustering>
</event>
<event>
 6    0  0.1361744E+002  0.1170264E+03  0.7546771E-02  0.1248085E+00
          2   -1    0    0  502    0 -0.00000000000E+00  0.00000000000E+00  0.26827249960E+04  0.26827249960E+04  0.00000000000E+00 0.  1.
         21   -1    0    0  505  502  0.00000000000E+00 -0.00000000000E+00 -0.12497333891E+03  0.12497333891E+03  0.00000000000E+00 0.  1.
         21    1    1    2  503  501  0.70536664067E+02  0.25412967991E+02  0.21719915021E+03  0.22977534849E+03  0.00000000000E+00 0.  1.
         21    1    1    2  504  503  0.51758680347E+02  0.69866261810E+01 -0.37625653739E+02  0.64369742550E+02  0.00000000000E+00 0.  1.
         21    1    1    2  505  504  0.73118723825E+01 -0.32984309039E+02 -0.61641759899E+02  0.70293205105E+02  0.00000000000E+00 0.  1.
          2    1    1    2  501    0 -0.12960721680E+03  0.58471486720E+00  0.24398199205E+04  0.24432600388E+04  0.00000000000E+00 0.  1.
<scales pt_clust_3="14000.00000" pt_clust_4="61.93735" pt_clust_5="33.78503" pt_clust_6="117.02638"></scales>
<clustering>
<clus scale="   33.785">  2  5  1 -1</clus>
<clus scale="   61.937">  2  4  1 -1</clus>
<clus scale="  117.026">  1  6  2 -1</clus>
<clus scale="   33.785">  2  3  1 -1</clus>
</clustering>
</event>
<event>
 6    0  0.1361744E+002  0.9493921E+02  0.7546771E-02  0.1291313E+00
         21   -1    0    0  503  502  0.00000000000E+00  0.00000000000E+00  0.63248362893E+03  0.63248362893E+03  0.00000000000E+00 0.  1.
          1   -1    0    0  505    0 -0.00000000000E+00 -0.00000000000E+00 -0.92740680885E+03  0.92740680885E+03  0.00000000000E+00 0. -1.
         21    1    1    2  503  501 -0.21627024013E+02  0.55695637298E+02  0.88648230201E+02  0.10690295085E+03  0.00000000000E+00 0. -1.
         21    1    1    2  504  502 -0.19565589975E+02  0.39693404325E+02  0.51483617403E+03  0.51673461733E+03  0.00000000000E+00 0.  1.
         21    1    1    2  505  504 -0.69810449188E+02 -0.52070036676E+02 -0.69560492554E+03  0.70103566241E+03  0.00000000000E+00 0. -1.
          1    1    1    2  501    0  0.11100306318E+03 -0.43319004947E+02 -0.20280265861E+03  0.23521720720E+03  0.00000000000E+00 0. -1.
<scales pt_clust_3="14000.00000" pt_clust_4="44.25357" pt_clust_5="86.90931" pt_clust_6="94.93921"></scales>
<clustering>
<clus scale="   44.254">  1  4  2 -1</clus>
<clus scale="   86.909">  2  5  1 -1</clus>
<clus scale="   94.939">  2  6  1 -1</clus>
<clus scale="   44.254">  1  3  2 -1</clus>
</clustering>
</event>
<event>
 6    0  0.1361744E+002  0.9888084E+02  0.7546771E-02  0.1282667E+00
         21   -1    0    0  504  502  0.00000000000E+00  0.00000000000E+00  0.10622434967E+03  0.10622434967E+03  0.00000000000E+00 0. -1.
          1   -1    0    0  503    0 -0.00000000000E+00 -0.00000000000E+00 -0.80437029527E+03  0.80437029527E+03  0.00000000000E+00 0.  1.
         21    1    1    2  503  505  0.48105977182E+02  0.53494301856E+02 -0.74059132349E+01  0.72323391254E+02  0.00000000000E+00 0.  1.
         21    1    1    2  504  501 -0.50952024788E+02 -0.70225448105E+02 -0.26151102580E+03  0.27552810929E+03  0.00000000000E+00 0.  1.
         21    1    1    2  505  502  0.54421022271E+02  0.11213140432E+02  0.53560182199E+02  0.77175613380E+02  0.00000000000E+00 0. -1.
          1    1    1    2  501    0 -0.51574974665E+02  0.55180058169E+01 -0.48278918876E+03  0.48556753102E+03  0.00000000000E+00 0.  1.
<scales pt_clust_3="98.88084" pt_clust_4="14000.00000" pt_clust_5="53.74565" pt_clust_6="51.86932"></scales>
<clustering>
<clus scale="   51.869">  2  6  1 -1</clus>
<clus scale="   53.746">  1  5  2 -1</clus>
<clus scale="   98.881">  1  3  2 -1</clus>
<clus scale="   53.746">  1  3  2 -1</clus>
</clustering>
</event>
<event>
 6    0  0.1361744E+002  0.1284885E+03  0.7546771E-02  0.1229716E+00
          2   -1    0    0  504    0 -0.00000000000E+00  0.00000000000E+00  0.95399309845E+03  0.95399309845E+03  0.00000000000E+00 0.  1.
         21   -1    0    0  503  502  0.00000000000E+00 -0.00000000000E+00 -0.20898219042E+04  0.20898219042E+04  0.00000000000E+00 0. -1.
         21    1    1    2  503  505 -0.10317639911E+03 -0.48607157899E+02 -0.73183853871E+02  0.13551347387E+03  0.00000000000E+00 0. -1.
         21    1    1    2  504  502 -0.12214482475E+02  0.29084772068E+02 -0.19808562166E+04  0.19811073844E+04  0.00000000000E+00 0. -1.
         21    1    1    2  505  501  0.61551065696E+02  0.14934315415E+02  0.67940666886E+03  0.68235254023E+03  0.00000000000E+00 0.  1.
          2    1    1    2  501    0  0.53839815887E+02  0.45880704162E+01  0.23880459583E+03  0.24484160421E+03  0.00000000000E+00 0.  1.
<scales pt_clust_3="116.74079" pt_clust_4="31.54548" pt_clust_5="49.48131" pt_clust_6="49.48131"></scales>
<clustering>
<clus scale="   31.545">  2  4  1 -1</clus>
<clus scale="   49.481">  5  6 -1 -1</clus>
<clus scale="  116.741">  2  3  1 -1</clus>
<clus scale="   31.545">  2  3  1 -1</clus>
</clustering>
</event>
<event>
 6    0  0.1361744E+002  0.8326553E+02  0.7546771E-02  0.1320032E+00
          2   -1    0    0  504    0 -0.00000000000E+00  0.00000000000E+00  0.12683778429E+04  0.12683778429E+04  0.00000000000E+00 0.  1.
         21   -1    0    0  503  502  0.00000000000E+00 -0.00000000000E+00 -0.52512528869E+02  0.52512528869E+02  0.00000000000E+00 0.  1.
         21    1    1    2  503  501  0.28618138577E+02 -0.53920765217E+02 -0.44702176054E+01  0.61208084618E+02  0.00000000000E+00 0.  1.
         21    1    1    2  504  505 -0.93583441068E+02  0.85135321434E+02  0.94121172303E+03  0.94967646647E+03  0.00000000000E+00 0.  1.
         21    1    1    2  505  502 -0.12594318033E+02 -0.32927689395E+02  0.22286438085E+02  0.41707731875E+02  0.00000000000E+00 0. -1.
          2    1    1    2  501    0  0.77559620524E+02  0.17131331776E+01  0.25683737054E+03  0.26829808882E+03  0.00000000000E+00 0.  1.
<scales pt_clust_3="83.26553" pt_clust_4="14000.00000" pt_clust_5="35.25407" pt_clust_6="75.92134"></scales>
<clustering>
<clus scale="   35.254">  2  5  1 -1</clus>
<clus scale="   75.921">  1  6  2 -1</clus>
<clus scale="   83.266">  2  3  1 -1</clus>
<clus scale="   35.254">  2  3  1 -1</clus>
</clustering>
</event>
<event>
 6    0  0.1361744E+002  0.1414346E+03  0.7546771E-02  0.1211412E+00
         21   -1    0    0  504  502  0.00000000000E+00  0.00000000000E+00  0.28350678269E+03  0.28350678269E+03  0.00000000000E+00 0.  1.
         -2   -1    0    0    0  501 -0.00000000000E+00 -0.00000000000E+00 -0.14383986189E+03  0.14383986189E+03  0.00000000000E+00 0. -1.
         21    1    1    2  503  502 -0.44354326482E+02 -0.73388113894E+02 -0.36096464801E+02  0.93038036897E+02  0.00000000000E+00 0. -1.
         21    1    1    2  504  505  0.52830324007E+02  0.59385802941E+02  0.11312225329E+03  0.13825469581E+03  0.00000000000E+00 0.  1.
         21    1    1    2  505  501 -0.20007936313E+02  0.91706973458E+02  0.70090309604E+02  0.11714579803E+03  0.00000000000E+00 0.  1.
         -2    1    1    2    0  503  0.11531938788E+02 -0.77704662506E+02 -0.74491772946E+01  0.78908113840E+02  0.00000000000E+00 0. -1.
<scales pt_clust_3="58.71289" pt_clust_4="79.48407" pt_clust_5="127.43946" pt_clust_6="58.71289"></scales>
<clustering>
<clus scale="   58.713">  3  6 -1 -1</clus>
<clus scale="   79.484">  1  4  2 -1</clus>
<clus scale="  127.439">  1  5  2 -1</clus>
<clus scale="   79.484">  1  3  2 -1</clus>
</clustering>
</event>
<event>
 6    0  0.1361744E+002  0.1154945E+03  0.7546771E-02  0.1250720E+00
         21   -1    0    0  504  502  0.00000000000E+00  0.00000000000E+00  0.13957922453E+03  0.13957922453E+03  0.00000000000E+00 0. -1.
          2   -1    0    0  505    0 -0.00000000000E+00 -0.00000000000E+00 -0.92185774207E+03  0.92185774207E+03  0.00000000000E+00 0.  1.
         21    1    1    2  503  502  0.45903205504E+02  0.34220281872E+02  0.41923443963E+02  0.70962716412E+02  0.00000000000E+00 0. -1.
         21    1    1    2  504  501 -0.53041917169E+02 -0.13866689872E+03 -0.12900455125E+02  0.14902474802E+03  0.00000000000E+00 0. -1.
         21    1    1    2  505  503  0.44358467984E+02 -0.47940508432E+02 -0.20307283597E+03  0.21331793816E+03  0.00000000000E+00 0. -1.
          2    1    1    2  501    0 -0.37219756319E+02  0.15238712528E+03 -0.60822867040E+03  0.62813156402E+03  0.00000000000E+00 0.  1.
<scales pt_clust_3="57.25497" pt_clust_4="115.49454" pt_clust_5="65.78123" pt_clust_6="14000.00000"></scales>
<clustering>
<clus scale="   57.255">  1  3  2 -1</clus>
<clus scale="   65.781">  2  5  1 -1</clus>
<clus scale="  115.495">  1  4  2 -1</clus>
<clus scale="   57.255">  1  3  2 -1</clus>
</clustering>
</event>
<event>
 6    0  0.1361744E+002  0.1520652E+03  0.7546771E-02  0.1197958E+00
          1   -1    0    0  503    0 -0.00000000000E+00  0.00000000000E+00  0.36041313167E+04  0.36041313167E+04  0.00000000000E+00 0.  1.
         21   -1    0    0  504  502  0.00000000000E+00 -0.00000000000E+00 -0.44122659353E+03  0.44122659353E+03  0.00000000000E+00 0.  1.
         21    1    1    2  503  505 -0.54144165298E+01 -0.62634911450E+02  0.49619880173E+03  0.50016567143E+03  0.00000000000E+00 0.  1.
         21    1    1    2  504  501 -0.30714371132E+02  0.90756473618E+02 -0.32792459723E+02  0.10126922293E+03  0.00000000000E+00 0.  1.
         21    1    1    2  505  502  0.21279991451E+02  0.65592202466E+02 -0.36827867250E+03  0.37467900352E+03  0.00000000000E+00 0.  1.
          1    1    1    2  501    0  0.14848796211E+02 -0.93713764634E+02  0.30677770536E+04  0.30692440123E+04  0.00000000000E+00 0.  1.
<scales pt_clust_3="62.86850" pt_clust_4="152.06525" pt_clust_5="68.89467" pt_clust_6="14000.00000"></scales>
<clustering>
<clus scale="   62.868">  1  3  2 -1</clus>
<clus scale="   68.895">  2  5  1 -1</clus>
<clus scale="  152.065">  2  4  1 -1</clus>
<clus scale="   68.895">  2  3  1 -1</clus>
</clustering>
</event>
<event>
 6    0  0.1361744E+002  0.1792111E+03  0.7546771E-02  0.1168569E+00
          2   -1    0    0  503    0 -0.00000000000E+00  0.00000000000E+00  0.33272155012E+04  0.33272155012E+04  0.00000000000E+00 0. -1.
         21   -1    0    0  505  502  0.00000000000E+00 -0.00000000000E+00 -0.13742102809E+04  0.13742102809E+04  0.00000000000E+00 0.  1.
         21    1    1    2  503  502  0.65419033730E+02  0.53417672145E+01 -0.40332735613E+02  0.77038393112E+02  0.00000000000E+00 0.  1.
         21    1    1    2  504  501 -0.12440091402E+03 -0.44667619431E+02  0.12940368897E+04  0.13007698703E+04  0.00000000000E+00 0. -1.
         21    1    1    2  505  504  0.11344966847E+03 -0.30553509088E+02 -0.13085492615E+04  0.13138133482E+04  0.00000000000E+00 0.  1.
          2    1    1    2  501    0 -0.54467788174E+02  0.69879361305E+02  0.20078503278E+04  0.20098041705E+04  0.00000000000E+00 0. -1.
<scales pt_clust_3="65.63676" pt_clust_4="179.21107" pt_clust_5="14000.00000" pt_clust_6="88.57274"></scales>
<clustering>
<clus scale="   65.637">  2  3  1 -1</clus>
<clus scale="   88.573">  1  6  2 -1</clus>
<clus scale="  179.211">  1  4  2 -1</clus>
<clus scale="   65.637">  2  3  1 -1</clus>
</clustering>
</event>
<event>
 6    0  0.1361744E+002  0.1778010E+03  0.7546771E-02  0.1169948E+00
         21   -1    0    0  503  502  0.00000000000E+00  0.00000000000E+00  0.27870982828E+03  0.27870982828E+03  0.00000000000E+00 0. -1.
          1   -1    0    0  505    0 -0.00000000000E+00 -0.00000000000E+00 -0.68440875412E+03  0.68440875412E+03  0.00000000000E+00 0. -1.
         21    1    1    2  503  504 -0.68415741340E+02  0.78611901684E+01  0.23321887876E+01  0.68905377719E+02  0.00000000000E+00 0. -1.
         21    1    1    2  504  501  0.33093285562E+02  0.19017215395E+03 -0.14289627669E+03  0.24016652468E+03  0.00000000000E+00 0. -1.
         21    1    1    2  505  502 -0.73127444675E+02 -0.13944333950E+03  0.15213830797E+03  0.21894778567E+03  0.00000000000E+00 0. -1.
          1    1    1    2  501    0  0.10844990045E+03 -0.58590004615E+02 -0.41727314591E+03  0.43509889433E+03  0.00000000000E+00 0. -1.
<scales pt_clust_3="68.86590" pt_clust_4="177.80104" pt_clust_5="14000.00000" pt_clust_6="120.92431"></scales>
<clustering>
<clus scale="   68.866">  1  3  2 -1</clus>
<clus scale="  120.924">  2  6  1 -1</clus>
<clus scale="  177.801">  2  4  1 -1</clus>
<clus scale="   68.866">  1  3  2 -1</clus>
</clustering>
</event>
<event>
 6    0  0.1361744E+002  0.7203047E+02  0.7546771E-02  0.1353321E+00
         21   -1    0    0  503  502  0.00000000000E+00  0.00000000000E+00  0.31053863734E+02  0.31053863734E+02  0.00000000000E+00 0.  1.
          2   -1    0    0  505    0 -0.00000000000E+00 -0.00000000000E+00 -0.36379116562E+04  0.36379116562E+04  0.00000000000E+00 0. -1.
         21    1    1    2  503  504 -0.56752449597E+02 -0.10421387309E+02 -0.16431082155E+02  0.59995219055E+02  0.00000000000E+00 0.  1.
         21    1    1    2  504  501  0.10977662137E+03  0.52343998265E+02 -0.45750219105E+03  0.47339101763E+03  0.00000000000E+00 0.  1.
         21    1    1    2  505  502 -0.15524972342E+02 -0.27376165037E+02 -0.20704209961E+03  0.20942041493E+03  0.00000000000E+00 0.  1.
          2    1    1    2  501    0 -0.37499199432E+02 -0.14546445920E+02 -0.29258824197E+04  0.29261588684E+04  0.00000000000E+00 0. -1.
<scales pt_clust_3="57.92720" pt_clust_4="14000.00000" pt_clust_5="31.47188" pt_clust_6="72.03047"></scales>
<clustering>
<clus scale="   31.472">  2  5  1 -1</clus>
<clus scale="   57.927">  1  3  2 -1</clus>
<clus scale="   72.030">  2  6  1 -1</clus>
<clus scale="   57.927">  1  3  2 -1</clus>
</clustering>
</event>
<event>
 6    0  0.1361744E+002  0.2015639E+03  0.7546771E-02  0.1148426E+00
         21   -1    0    0  504  502  0.00000000000E+00  0.00000000000E+00  0.11336090519E+03  0.11336090519E+03  0.00000000000E+00 0.  1.
          1   -1    0    0  505    0 -0.00000000000E+00 -0.00000000000E+00 -0.47434513774E+03  0.47434513774E+03  0.00000000000E+00 0.  1.
         21    1    1    2  503  502 -0.37802637270E+02  0.24621212316E+02 -0.53725894589E+02  0.70154937316E+02  0.00000000000E+00 0.  1.
         21    1    1    2  504  501  0.21717163038E+02  0.37338684944E+02  0.38316089482E+01  0.43364660622E+02  0.00000000000E+00 0.  1.
         21    1    1    2  505  503 -0.15917283203E+03  0.12213372548E+02 -0.93065078183E+02  0.18478708208E+03  0.00000000000E+00 0.  1.
          1    1    1    2  501    0  0.17525830626E+03 -0.74173269808E+02 -0.21802486873E+03  0.28939936291E+03  0.00000000000E+00 0.  1.
<scales pt_clust_3="30.49958" pt_clust_4="43.19505" pt_clust_5="30.49958" pt_clust_6="193.22603"></scales>
<clustering>
<clus scale="   30.500">  3  5 -1 -1</clus>
<clus scale="   43.195">  1  4  2 -1</clus>
<clus scale="  193.226">  2  6  1 -1</clus>
<clus scale="   43.195">  1  3  2 -1</clus>
</clustering>
</event>
<event>
 6    0  0.1386682E+002  0.1448372E+03  0.7546771E-02  0.1206964E+00
          1   -1    0    0  504    0 -0.00000000000E+00  0.00000000000E+00  0.16957279871E+04  0.16957279871E+04  0.00000000000E+00 0.  1.
         21   -1    0    0  505  502  0.00000000000E+00 -0.00000000000E+00 -0.22053286221E+03  0.22053286221E+03  0.00000000000E+00 0. -1.
         21    1    1    2  503  502  0.52576543190E+02  0.15081446923E+03 -0.17730456102E+03  0.23863403861E+03  0.00000000000E+00 0. -1.
         21    1    1    2  504  503 -0.27397408106E+02 -0.22640618951E+02  0.12358702713E+03  0.12859614642E+03  0.00000000000E+00 0.  1.
         21    1    1    2  505  501  0.26155900458E+02 -0.27645292230E+02  0.37759489859E+02  0.53611308374E+02  0.00000000000E+00 0. -1.
          1    1    1    2  501    0 -0.51335035542E+02 -0.10052855805E+03  0.14911531689E+04  0.14954193559E+04  0.00000000000E+00 0.  1.
<scales pt_clust_3="14000.00000" pt_clust_4="35.54174" pt_clust_5="38.00242" pt_clust_6="144.83723"></scales>
<clustering>
<clus scale="   35.542">  1  4  2 -1</clus>
<clus scale="   38.002">  2  5  1 -1</clus>
<clus scale="  144.837">  1  6  2 -1</clus>
<clus scale="   38.002">  2  3  1 -1</clus>
</clustering>
</event>
<event>
 6    0  0.1361744E+002  0.1636208E+03  0.7546771E-02  0.1184669E+00
          2   -1    0    0  502    0 -0.00000000000E+00  0.00000000000E+00  0.29146817008E+04  0.29146817008E+04  0.00000000000E+00 0. -1.
         21   -1    0    0  504  502  0.00000000000E+00 -0.00000000000E+00 -0.11429680440E+02  0.11429680440E+02  0.00000000000E+00 0. -1.
         21    1    1    2  503  505 -0.21062037466E+02 -0.93362202729E+02  0.49352307208E+03  0.50271774685E+03  0.00000000000E+00 0. -1.
         21    1    1    2  504  503 -0.59652047299E+02 -0.31712169366E+02  0.30385964186E+03  0.31127915186E+03  0.00000000000E+00 0. -1.
         21    1    1    2  505  501  0.32694950893E+01  0.54828488423E+02  0.54994516586E+03  0.55268122656E+03  0.00000000000E+00 0.  1.
          2    1    1    2  501    0  0.77444589675E+02  0.70245883672E+02  0.15559241405E+04  0.15594332559E+04  0.00000000000E+00 0. -1.
<scales pt_clust_3="57.06533" pt_clust_4="57.06533" pt_clust_5="46.88046" pt_clust_6="162.30235"></scales>
<clustering>
<clus scale="   46.880">  5  6 -1 -1</clus>
<clus scale="   57.065">  3  4 -1 -1</clus>
<clus scale="  162.302">  1  5  2 -1</clus>
<clus scale="  163.621">  2  3  1 -1</clus>
</clustering>
</event>
<event>
 6    0  0.1361744E+002  0.1835827E+03  0.7546771E-02  0.1164380E+00
         21   -1    0    0  505  502  0.00000000000E+00  0.00000000000E+00  0.27671667291E+03  0.27671667291E+03  0.00000000000E+00 0. -1.
         -4   -1    0    0    0  501 -0.00000000000E+00 -0.00000000000E+00 -0.24653766226E+03  0.24653766226E+03  0.00000000000E+00 0. -1.
         21    1    1    2  503  504 -0.10837309921E+03 -0.16085633318E+03  0.76440926596E+02  0.20847710622E+03  0.00000000000E+00 0. -1.
         21    1    1    2  504  502  0.15885272033E+02 -0.30980423182E+02  0.54739516078E+02  0.64873285014E+02  0.00000000000E+00 0. -1.
         21    1    1    2  505  501  0.14744726180E+02  0.28915771472E+02  0.14549090912E+02  0.35569717968E+02  0.00000000000E+00 0.  1.
         -4    1    1    2    0  503  0.77743100996E+02  0.16292098489E+03 -0.11555052294E+03  0.21433422597E+03  0.00000000000E+00 0. -1.
<scales pt_clust_3="183.58273" pt_clust_4="30.93818" pt_clust_5="32.45811" pt_clust_6="14000.00000"></scales>
<clustering>
<clus scale="   32.458">  1  5  2 -1</clus>
<clus scale="   30.938">  1  4  2 -1</clus>
<clus scale="  183.583">  1  3  2 -1</clus>
<clus scale="   32.458">  1  3  2 -1</clus>
</clustering>
</event>
<event>
 6    0  0.1361744E+002  0.1661218E+03  0.7546771E-02  0.1181954E+00
         -4   -1    0    0    0  501 -0.00000000000E+00  0.00000000000E+00  0.32990343899E+03  0.32990343899E+03  0.00000000000E+00 0. -1.
         21   -1    0    0  505  502  0.00000000000E+00 -0.00000000000E+00 -0.15811274172E+04  0.15811274172E+04  0.00000000000E+00 0.  1.
         21    1    1    2  503  501 -0.44812988572E+01 -0.50401608547E+02 -0.18155860000E+02  0.53759087008E+02  0.00000000000E+00 0.  1.
         21    1    1    2  504  502 -0.49794292573E+02  0.53568315449E+02 -0.33543310176E+03  0.34331385313E+03  0.00000000000E+00 0.  1.
         21    1    1    2  505  503  0.17059602941E+03  0.62342500094E+02 -0.11840811217E+04  0.11979305887E+04  0.00000000000E+00 0.  1.
         -4    1    1    2    0  504 -0.11632043798E+03 -0.65509206996E+02  0.28644610519E+03  0.31602732742E+03  0.00000000000E+00 0. -1.
<scales pt_clust_3="50.60044" pt_clust_4="72.71110" pt_clust_5="166.12175" pt_clust_6="14000.00000"></scales>
<clustering>
<clus scale="   50.600">  1  3  2 -1</clus>
<clus scale="   72.711">  2  4  1 -1</clus>
<clus scale="  166.122">  2  5  1 -1</clus>
<clus scale="   72.711">  2  3  1 -1</clus>
</clustering>
</event>
<event>
 6    0  0.1361744E+002  0.6635148E+02  0.7546771E-02  0.1372959E+00
          2   -1    0    0  505    0 -0.00000000000E+00  0.00000000000E+00  0.18639975428E+04  0.18639975428E+04  0.00000000000E+00 0. -1.
         21   -1    0    0  504  502  0.00000000000E+00 -0.00000000000E+00 -0.45882509214E+03  0.45882509214E+03  0.00000000000E+00 0. -1.
         21    1    1    2  503  501 -0.68039566290E+02 -0.66232453304E+02 -0.18018987973E+03  0.20367747350E+03  0.00000000000E+00 0. -1.
         21    1    1    2  504  503  0.40846215153E+02  0.23102217480E+02 -0.25436801370E+03  0.25866041857E+03  0.00000000000E+00 0. -1.
         21    1    1    2  505  502 -0.40094524114E+02  0.50582497011E+02  0.97436609200E+02  0.11687622804E+03  0.00000000000E+00 0.  1.
          2    1    1    2  501    0  0.67287875252E+02 -0.74522611875E+01  0.17422937349E+04  0.17436085148E+04  0.00000000000E+00 0. -1.
<scales pt_clust_3="53.11925" pt_clust_4="46.92681" pt_clust_5="14000.00000" pt_clust_6="66.35148"></scales>
<clustering>
<clus scale="   46.927">  2  4  1 -1</clus>
<clus scale="   53.119">  2  3  1 -1</clus>
<clus scale="   66.351">  1  6  2 -1</clus>
<clus scale="   46.927">  2  3  1 -1</clus>
</clustering>
</event>
<event>
 6    0  0.1361744E+002  0.6095277E+02  0.7546771E-02  0.1393876E+00
          1   -1    0    0  504    0 -0.00000000000E+00  0.00000000000E+00  0.11302750966E+04  0.11302750966E+04  0.00000000000E+00 0.  1.
         21   -1    0    0  505  502  0.00000000000E+00 -0.00000000000E+00 -0.38416566271E+02  0.38416566271E+02  0.00000000000E+00 0.  1.
         21    1    1    2  503  501  0.24913861555E+02  0.66426991837E+02  0.10109229043E+03  0.12350261910E+03  0.00000000000E+00 0.  1.
         21    1    1    2  504  502 -0.41129010509E+01 -0.53712241040E+02  0.29130783481E+03  0.29624681503E+03  0.00000000000E+00 0.  1.
         21    1    1    2  505  503  0.39644755729E+02 -0.53695686181E+02  0.26150156522E+02  0.71685173205E+02  0.00000000000E+00 0.  1.
          1    1    1    2  501    0 -0.60445716232E+02  0.40980935384E+02  0.67330824854E+03  0.67725705551E+03  0.00000000000E+00 0.  1.
<scales pt_clust_3="14000.00000" pt_clust_4="53.86948" pt_clust_5="60.95277" pt_clust_6="63.81034"></scales>
<clustering>
<clus scale="   53.869">  1  4  2 -1</clus>
<clus scale="   63.810">  1  6  2 -1</clus>
<clus scale="   60.953">  2  5  1 -1</clus>
<clus scale="   60.953">  2  3  1 -1</clus>
</clustering>
</event>
<event>
 6    0  0.1361744E+002  0.2125282E+03  0.7546771E-02  0.1139579E+00
          1   -1    0    0  505    0 -0.00000000000E+00  0.00000000000E+00  0.54816042432E+03  0.54816042432E+03  0.00000000000E+00 0.  1.
         21   -1    0    0  501  502  0.00000000000E+00 -0.00000000000E+00 -0.28342417592E+03  0.28342417592E+03  0.00000000000E+00 0.  1.
         21    1    1    2  503  502  0.82273029573E+02 -0.30197165229E+02 -0.48900175416E+02  0.10035909196E+03  0.00000000000E+00 0.  1.
         21    1    1    2  504  503 -0.51186437771E+02  0.31015940822E+02 -0.17639181926E+02  0.62395358287E+02  0.00000000000E+00 0.  1.
         21    1    1    2  505  504 -0.22205919093E+03 -0.18400253040E+02 -0.62000216023E+02  0.23128527920E+03  0.00000000000E+00 0.  1.
          1    1    1    2  501    0  0.19097259913E+03  0.17581477447E+02  0.39327582177E+03  0.43754487079E+03  0.00000000000E+00 0.  1.
<scales pt_clust_3="87.63972" pt_clust_4="36.95209" pt_clust_5="36.95209" pt_clust_6="200.21155"></scales>
<clustering>
<clus scale="   36.952">  4  5 -1 -1</clus>
<clus scale="   87.640">  2  3  1 -1</clus>
<clus scale="  200.212">  1  6  2 -1</clus>
<clus scale="   87.640">  2  3  1 -1</clus>
</clustering>
</event>
<event>
 6    0  0.1361744E+002  0.1113187E+03  0.7546771E-02  0.1258147E+00
         21   -1    0    0  504  502  0.00000000000E+00  0.00000000000E+00  0.16887133141E+02  0.16887133141E+02  0.00000000000E+00 0.  1.
          2   -1    0    0  505    0 -0.00000000000E+00 -0.00000000000E+00 -0.25444219673E+04  0.25444219673E+04  0.00000000000E+00 0. -1.
         21    1    1    2  503  502  0.36898855247E+02  0.76004336961E+02 -0.13245268507E+03  0.15710473748E+03  0.00000000000E+00 0.  1.
         21    1    1    2  504  501  0.12934802184E+02  0.34760723609E+02 -0.16817843668E+03  0.17221963761E+03  0.00000000000E+00 0. -1.
         21    1    1    2  505  503  0.21742551199E+02 -0.35256176515E+02 -0.40499314651E+03  0.40710586490E+03  0.00000000000E+00 0. -1.
          2    1    1    2  501    0 -0.71576208630E+02 -0.75508884055E+02 -0.18219105659E+04  0.18248788605E+04  0.00000000000E+00 0. -1.
<scales pt_clust_3="111.31867" pt_clust_4="37.08931" pt_clust_5="39.85582" pt_clust_6="14000.00000"></scales>
<clustering>
<clus scale="   37.089">  1  4  2 -1</clus>
<clus scale="   39.856">  2  5  1 -1</clus>
<clus scale="  111.319">  1  3  2 -1</clus>
<clus scale="   37.089">  1  3  2 -1</clus>
</clustering>
</event>
<event>
 6    0  0.1361744E+002  0.9107771E+02  0.7546771E-02  0.1300263E+00
          1   -1    0    0  505    0 -0.00000000000E+00  0.00000000000E+00  0.19577827926E+04  0.19577827926E+04  0.00000000000E+00 0.  1.
         21   -1    0    0  501  502  0.00000000000E+00 -0.00000000000E+00 -0.25666576820E+02  0.25666576820E+02  0.00000000000E+00 0.  1.
         21    1    1    2  503  502  0.39295417925E+02 -0.14916482052E+02  0.39218118513E+02  0.57486451677E+02  0.00000000000E+00 0. -1.
         21    1    1    2  504  503  0.43654140691E+01 -0.73691422051E+02  0.92861059099E+02  0.11862823787E+03  0.00000000000E+00 0.  1.
         21    1    1    2  505  504  0.34252373950E+02  0.28960127258E+02  0.23613368226E+03  0.24035604838E+03  0.00000000000E+00 0.  1.
          1    1    1    2  501    0 -0.77913205944E+02  0.59647776846E+02  0.15639033559E+04  0.15669786315E+04  0.00000000000E+00 0.  1.
<scales pt_clust_3="42.03131" pt_clust_4="14000.00000" pt_clust_5="47.68807" pt_clust_6="91.07771"></scales>
<clustering>
<clus scale="   42.031">  2  3  1 -1</clus>
<clus scale="   47.688">  1  5  2 -1</clus>
<clus scale="   91.078">  1  6  2 -1</clus>
<clus scale="   42.031">  2  3  1 -1</clus>
</clustering>
</event>
<event>
 6    0  0.1361744E+002  0.1887378E+03  0.7546771E-02  0.1159605E+00
          2   -1    0    0  503    0 -0.00000000000E+00  0.00000000000E+00  0.12585135620E+04  0.12585135620E+04  0.00000000000E+00 0. -1.
         21   -1    0    0  504  502  0.00000000000E+00 -0.00000000000E+00 -0.43658707480E+03  0.43658707480E+03  0.00000000000E+00 0. -1.
         21    1    1    2  503  502  0.90895733692E+02 -0.12625184998E+03  0.47082810528E+03  0.49586355860E+03  0.00000000000E+00 0. -1.
         21    1    1    2  504  505 -0.17050592338E+01 -0.45149716925E+02 -0.85086987069E+02  0.96338982420E+02  0.00000000000E+00 0. -1.
         21    1    1    2  505  501  0.94306366453E+01 -0.49126016730E+02 -0.31235826267E+03  0.31633840533E+03  0.00000000000E+00 0. -1.
          2    1    1    2  501    0 -0.98621311104E+02  0.22052758364E+03  0.74854363167E+03  0.78655969046E+03  0.00000000000E+00 0. -1.
<scales pt_clust_3="14000.00000" pt_clust_4="45.18190" pt_clust_5="90.50421" pt_clust_6="188.73785"></scales>
<clustering>
<clus scale="   45.182">  2  4  1 -1</clus>
<clus scale="   90.504">  2  5  1 -1</clus>
<clus scale="  188.738">  2  6  1 -1</clus>
<clus scale="   45.182">  2  3  1 -1</clus>
</clustering>
</event>
<event>
 6    0  0.1361744E+002  0.8736705E+02  0.7546771E-02  0.1309356E+00
         21   -1    0    0  505  502  0.00000000000E+00  0.00000000000E+00  0.78503450210E+03  0.78503450210E+03  0.00000000000E+00 0. -1.
         -4   -1    0    0    0  501 -0.00000000000E+00 -0.00000000000E+00 -0.10064970945E+03  0.10064970945E+03  0.00000000000E+00 0. -1.
         21    1    1    2  503  504  0.62334885065E+02  0.35652102664E+02  0.32655422024E+02  0.78886544531E+02  0.00000000000E+00 0. -1.
         21    1    1    2  504  502  0.37060376916E+02 -0.18011988943E+02  0.75561857926E+02  0.86066820878E+02  0.00000000000E+00 0. -1.
         21    1    1    2  505  501 -0.78780674354E+02 -0.67783821288E+02  0.63341548920E+03  0.64188489859E+03  0.00000000000E+00 0. -1.
         -4    1    1    2    0  503 -0.20614587627E+02  0.50143707567E+02 -0.57247976502E+02  0.78845947551E+02  0.00000000000E+00 0. -1.
<scales pt_clust_3="14000.00000" pt_clust_4="41.20562" pt_clust_5="87.36705" pt_clust_6="53.74589"></scales>
<clustering>
<clus scale="   41.206">  1  4  2 -1</clus>
<clus scale="   53.746">  2  6  1 -1</clus>
<clus scale="   87.367">  1  5  2 -1</clus>
<clus scale="   41.206">  1  3  2 -1</clus>
</clustering>
</event>
<event>
 6    0  0.1361744E+002  0.1056807E+03  0.7546771E-02  0.1268784E+00
          2   -1    0    0  504    0 -0.00000000000E+00  0.00000000000E+00  0.17992532606E+04  0.17992532606E+04  0.00000000000E+00 0.  1.
         21   -1    0    0  501  502  0.00000000000E+00 -0.00000000000E+00 -0.44120420435E+02  0.44120420435E+02  0.00000000000E+00 0. -1.
         21    1    1    2  503  505 -0.20064886433E+02 -0.51554724925E+02  0.90684628364E+02  0.10622707353E+03  0.00000000000E+00 0. -1.
         21    1    1    2  504  503  0.13668293265E+02 -0.93339373407E+02  0.53003064523E+03  0.53836005215E+03  0.00000000000E+00 0. -1.
         21    1    1    2  505  502  0.30988357031E+02  0.34174360550E+02 -0.11278139793E+02  0.47490647792E+02  0.00000000000E+00 0. -1.
          2    1    1    2  501    0 -0.24591763863E+02  0.11071973778E+03  0.11456957063E+04  0.11512959075E+04  0.00000000000E+00 0.  1.
<scales pt_clust_3="33.73848" pt_clust_4="14000.00000" pt_clust_5="46.13204" pt_clust_6="105.68073"></scales>
<clustering>
<clus scale="   46.132">  2  5  1 -1</clus>
<clus scale="   33.738">  2  3  1 -1</clus>
<clus scale="  105.681">  1  6  2 -1</clus>
<clus scale="   46.132">  2  3  1 -1</clus>
</clustering>
</event>
<event>
 6    0  0.1361744E+002  0.1446844E+03  0.7546771E-02  0.1207161E+00
         21   -1    0    0  505  502  0.00000000000E+00  0.00000000000E+00  0.28843004357E+03  0.28843004357E+03  0.00000000000E+00 0.  1.
          2   -1    0    0  504    0 -0.00000000000E+00 -0.00000000000E+00 -0.17627959824E+03  0.17627959824E+03  0.00000000000E+00 0.  1.
         21    1    1    2  503  502 -0.72339333654E+01 -0.56565874747E+02  0.69691366764E+02  0.90049511822E+02  0.00000000000E+00 0.  1.
         21    1    1    2  504  503 -0.26893470006E+02 -0.15186411918E+02  0.67087279691E+01  0.31605266442E+02  0.00000000000E+00 0.  1.
         21    1    1    2  505  501  0.99003110007E+02 -0.72302432642E+02  0.11341374141E+03  0.16700878509E+03  0.00000000000E+00 0.  1.
          2    1    1    2  501    0 -0.64875706636E+02  0.14405471931E+03 -0.77663390812E+02  0.17604607845E+03  0.00000000000E+00 0.  1.
<scales pt_clust_3="58.19477" pt_clust_4="30.88504" pt_clust_5="144.68440" pt_clust_6="14000.00000"></scales>
<clustering>
<clus scale="   30.885">  2  4  1 -1</clus>
<clus scale="   58.195">  1  3  2 -1</clus>
<clus scale="  144.684">  1  5  2 -1</clus>
<clus scale="   58.195">  1  3  2 -1</clus>
</clustering>
</event>
<event>
 6    0  0.1361744E+002  0.2390236E+03  0.7546771E-02  0.1120445E+00
          1   -1    0    0  504    0 -0.00000000000E+00  0.00000000000E+00  0.13713889830E+04  0.13713889830E+04  0.00000000000E+00 0. -1.
         21   -1    0    0  501  502  0.00000000000E+00 -0.00000000000E+00 -0.17221615004E+03  0.17221615004E+03  0.00000000000E+00 0.  1.
         21    1    1    2  503  505  0.79825891188E+02 -0.16388340393E+02 -0.15018101399E+02  0.82863103818E+02  0.00000000000E+00 0. -1.
         21    1    1    2  504  503 -0.32821691910E+02  0.42677690831E+02  0.80519263663E+02  0.96860727725E+02  0.00000000000E+00 0.  1.
         21    1    1    2  505  502  0.11408178158E+03 -0.11327686272E+03 -0.48260237943E+02  0.16785514911E+03  0.00000000000E+00 0.  1.
          1    1    1    2  501    0 -0.16108598086E+03  0.86987512287E+02  0.11819319086E+04  0.11960261524E+04  0.00000000000E+00 0. -1.
<scales pt_clust_3="47.45215" pt_clust_4="53.83910" pt_clust_5="47.45215" pt_clust_6="229.54313"></scales>
<clustering>
<clus scale="   47.452">  3  5 -1 -1</clus>
<clus scale="   53.839">  1  4  2 -1</clus>
<clus scale="  229.543">  1  6  2 -1</clus>
<clus scale="  239.024">  2  3  1 -1</clus>
</clustering>
</event>
<event>
 6    0  0.1361744E+002  0.2961679E+03  0.7546771E-02  0.1087172E+00
         -2   -1    0    0    0  501 -0.00000000000E+00  0.00000000000E+00  0.45941871075E+03  0.45941871075E+03  0.00000000000E+00 0. -1.
         21   -1    0    0  503  502  0.00000000000E+00 -0.00000000000E+00 -0.28519410159E+03  0.28519410159E+03  0.00000000000E+00 0. -1.
         21    1    1    2  503  504 -0.14775968015E+03  0.20901606515E+02 -0.69048038979E+02  0.16443062950E+03  0.00000000000E+00 0. -1.
         21    1    1    2  504  505 -0.10480494059E+03  0.11292792265E+03 -0.36995705231E+02  0.15844706842E+03  0.00000000000E+00 0. -1.
         21    1    1    2  505  501  0.54185915555E+02  0.25953449755E+02  0.46087375958E+02  0.75721471337E+02  0.00000000000E+00 0.  1.
         -2    1    1    2    0  502  0.19837870518E+03 -0.15978297892E+03  0.23418097740E+03  0.34601364308E+03  0.00000000000E+00 0. -1.
<scales pt_clust_3="103.37524" pt_clust_4="103.37524" pt_clust_5="60.08074" pt_clust_6="276.42346"></scales>
<clustering>
<clus scale="   60.081">  1  5  2 -1</clus>
<clus scale="  103.375">  3  4 -1 -1</clus>
<clus scale="  276.423">  1  6  2 -1</clus>
<clus scale="  296.168">  2  3  1 -1</clus>
</clustering>
</event>
<event>
 6    0  0.1361744E+002  0.9515391E+02  0.7546771E-02  0.1290830E+00
         21   -1    0    0  505  502  0.00000000000E+00  0.00000000000E+00  0.15859853688E+03  0.15859853688E+03  0.00000000000E+00 0. -1.
          2   -1    0    0  503    0 -0.00000000000E+00 -0.00000000000E+00 -0.37981824180E+03  0.37981824180E+03  0.00000000000E+00 0.  1.
         21    1    1    2  503  504  0.10612921205E+02  0.32655684505E+02 -0.39378625218E+02  0.52246568797E+02  0.00000000000E+00 0.  1.
         21    1    1    2  504  502  0.71567888415E+01  0.34600430381E+02  0.20824029847E+01  0.35394149393E+02  0.00000000000E+00 0.  1.
         21    1    1    2  505  501 -0.19346528461E+02 -0.13031779390E+03  0.96524107820E+02  0.16332152020E+03  0.00000000000E+00 0. -1.
          2    1    1    2  501    0  0.15768184143E+01  0.63061679011E+02 -0.28044759051E+03  0.28745454029E+03  0.00000000000E+00 0.  1.
<scales pt_clust_3="34.33697" pt_clust_4="37.03520" pt_clust_5="14000.00000" pt_clust_6="95.15391"></scales>
<clustering>
<clus scale="   34.337">  2  3  1 -1</clus>
<clus scale="   37.035">  1  4  2 -1</clus>
<clus scale="   95.154">  2  6  1 -1</clus>
<clus scale="   37.035">  1  3  2 -1</clus>
</clustering>
</event>
<event>
 6    0  0.1361744E+002  0.9146108E+02  0.7546771E-02  0.1299352E+00
         21   -1    0    0  501  502  0.00000000000E+00  0.00000000000E+00  0.15301045918E+03  0.15301045918E+03  0.00000000000E+00 0. -1.
          2   -1    0    0  503    0 -0.00000000000E+00 -0.00000000000E+00 -0.88482285258E+03  0.88482285258E+03  0.00000000000E+00 0.  1.
         21    1    1    2  503  504 -0.13389872559E+01  0.30356640286E+02 -0.51701612548E+02  0.59969786029E+02  0.00000000000E+00 0. -1.
         21    1    1    2  504  505 -0.30035744797E+02 -0.89254271024E+02 -0.76537611933E+02  0.12135269631E+03  0.00000000000E+00 0. -1.
         21    1    1    2  505  502  0.68849766075E+02  0.62189928666E+02  0.10888974328E+03  0.14305542180E+03  0.00000000000E+00 0. -1.
          2    1    1    2  501    0 -0.37475034021E+02 -0.32922979274E+01 -0.71246291220E+03  0.71345540762E+03  0.00000000000E+00 0.  1.
<scales pt_clust_3="30.38616" pt_clust_4="14000.00000" pt_clust_5="91.46108" pt_clust_6="44.86160"></scales>
<clustering>
<clus scale="   30.386">  2  3  1 -1</clus>
<clus scale="   44.862">  2  6  1 -1</clus>
<clus scale="   91.461">  1  5  2 -1</clus>
<clus scale="   91.461">  1  3  2 -1</clus>
</clustering>
</event>
<event>
 6    0  0.1361744E+002  0.1361467E+03  0.7546771E-02  0.1218610E+00
          2   -1    0    0  504    0 -0.00000000000E+00  0.00000000000E+00  0.10741437257E+04  0.10741437257E+04  0.00000000000E+00 0. -1.
         21   -1    0    0  503  502  0.00000000000E+00 -0.00000000000E+00 -0.60099190520E+03  0.60099190520E+03  0.00000000000E+00 0. -1.
         21    1    1    2  503  505  0.91903413613E+02 -0.12559167098E+02 -0.37461962005E+03  0.38593241616E+03  0.00000000000E+00 0. -1.
         21    1    1    2  504  502 -0.32023882498E+02 -0.13312640594E+02  0.11714647828E+03  0.12217222607E+03  0.00000000000E+00 0.  1.
         21    1    1    2  505  501  0.20760395612E+02 -0.37622367876E+02 -0.21327829781E+03  0.21756394211E+03  0.00000000000E+00 0. -1.
          2    1    1    2  501    0 -0.80639926726E+02  0.63494175569E+02  0.94390326012E+03  0.94946704660E+03  0.00000000000E+00 0. -1.
<scales pt_clust_3="39.56052" pt_clust_4="34.68076" pt_clust_5="39.56052" pt_clust_6="123.13958"></scales>
<clustering>
<clus scale="   34.681">  1  4  2 -1</clus>
<clus scale="   39.561">  3  5 -1 -1</clus>
<clus scale="  123.140">  1  6  2 -1</clus>
<clus scale="  136.147">  2  3  1 -1</clus>
</clustering>
</event>
<event>
 6    0  0.1361744E+002  0.8182524E+02  0.7546771E-02  0.1323950E+00
          2   -1    0    0  505    0 -0.00000000000E+00  0.00000000000E+00  0.17427637422E+03  0.17427637422E+03  0.00000000000E+00 0. -1.
         21   -1    0    0  503  502  0.00000000000E+00 -0.00000000000E+00 -0.46711599783E+03  0.46711599783E+03  0.00000000000E+00 0.  1.
         21    1    1    2  503  501 -0.41390664645E+02  0.48348831151E+02 -0.12311507082E+03  0.13859335213E+03  0.00000000000E+00 0.  1.
         21    1    1    2  504  502  0.48639792836E+02 -0.12927110148E+03 -0.29979121143E+03  0.33007819918E+03  0.00000000000E+00 0.  1.
         21    1    1    2  505  504  0.16156586519E+02  0.27436148132E+02  0.19158656579E+01  0.31897461552E+02  0.00000000000E+00 0.  1.
          2    1    1    2  501    0 -0.23405714709E+02  0.53486122196E+02  0.12815079298E+03  0.14082335918E+03  0.00000000000E+00 0. -1.
<scales pt_clust_3="64.17121" pt_clust_4="14000.00000" pt_clust_5="31.83987" pt_clust_6="81.82524"></scales>
<clustering>
<clus scale="   31.840">  1  5  2 -1</clus>
<clus scale="   64.171">  2  3  1 -1</clus>
<clus scale="   81.825">  1  6  2 -1</clus>
<clus scale="   64.171">  2  3  1 -1</clus>
</clustering>
</event>
<event>
 6    0  0.1361744E+002  0.1430511E+03  0.7546771E-02  0.1209281E+00
          3   -1    0    0  505    0 -0.00000000000E+00  0.00000000000E+00  0.57861234111E+02  0.57861234111E+02  0.00000000000E+00 0. -1.
         21   -1    0    0  504  502  0.00000000000E+00 -0.00000000000E+00 -0.20314964151E+04  0.20314964151E+04  0.00000000000E+00 0. -1.
         21    1    1    2  503  501 -0.68025266381E+02  0.33571699775E+02 -0.48799786504E+02  0.90199307397E+02  0.00000000000E+00 0.  1.
         21    1    1    2  504  503  0.11792099216E+03 -0.30561359422E+02 -0.16298483046E+04  0.16343943383E+04  0.00000000000E+00 0. -1.
         21    1    1    2  505  502 -0.76616858105E+01 -0.45054955670E+02 -0.30138226266E+03  0.30482768691E+03  0.00000000000E+00 0.  1.
          3    1    1    2  501    0 -0.42234039963E+02  0.42044615318E+02  0.63951728038E+01  0.59936316570E+02  0.00000000000E+00 0. -1.
<scales pt_clust_3="47.46005" pt_clust_4="132.64994" pt_clust_5="45.70176" pt_clust_6="47.46005"></scales>
<clustering>
<clus scale="   45.702">  2  5  1 -1</clus>
<clus scale="   47.460">  3  6 -1 -1</clus>
<clus scale="  132.650">  2  4  1 -1</clus>
<clus scale="   45.702">  2  3  1 -1</clus>
</clustering>
</event>
<event>
 6    0  0.1361744E+002  0.1296408E+03  0.7546771E-02  0.1227990E+00
          1   -1    0    0  505    0 -0.00000000000E+00  0.00000000000E+00  0.21440673366E+04  0.21440673366E+04  0.00000000000E+00 0. -1.
         21   -1    0    0  503  502  0.00000000000E+00 -0.00000000000E+00 -0.14545169767E+03  0.14545169767E+03  0.00000000000E+00 0.  1.
         21    1    1    2  503  501 -0.11522381697E+03 -0.15285300089E+03  0.63041212122E+02  0.20153104551E+03  0.00000000000E+00 0.  1.
         21    1    1    2  504  502  0.25745735310E+02  0.55512717655E+02 -0.59582225462E+02  0.85408116119E+02  0.00000000000E+00 0.  1.
         21    1    1    2  505  504  0.87208402024E+02  0.23055961933E+02  0.78986545496E+03  0.79499957214E+03  0.00000000000E+00 0.  1.
          1    1    1    2  501    0  0.22696796406E+01  0.74284321303E+02  0.12052911973E+04  0.12075803005E+04  0.00000000000E+00 0. -1.
<scales pt_clust_3="14000.00000" pt_clust_4="61.19236" pt_clust_5="129.64081" pt_clust_6="75.20275"></scales>
<clustering>
<clus scale="   61.192">  2  4  1 -1</clus>
<clus scale="   75.203">  1  6  2 -1</clus>
<clus scale="  129.641">  1  5  2 -1</clus>
<clus scale="   61.192">  2  3  1 -1</clus>
</clustering>
</event>
<event>
 6    0  0.1361744E+002  0.2443781E+03  0.7546771E-02  0.1116910E+00
         21   -1    0    0  504  502  0.00000000000E+00  0.00000000000E+00  0.23633063485E+03  0.23633063485E+03  0.00000000000E+00 0. -1.
         -3   -1    0    0    0  501 -0.00000000000E+00 -0.00000000000E+00 -0.71827585880E+03  0.71827585880E+03  0.00000000000E+00 0. -1.
         21    1    1    2  503  502  0.58354303735E+02 -0.14358973115E+02 -0.50385883280E+01  0.60305822651E+02  0.00000000000E+00 0. -1.
         21    1    1    2  504  505  0.29780239267E+02 -0.41374848038E+02  0.92017637676E+02  0.10519499201E+03  0.00000000000E+00 0. -1.
         21    1    1    2  505  501 -0.14088385286E+03  0.27078276211E+03 -0.22157401769E+03  0.37718246191E+03  0.00000000000E+00 0. -1.
         -3    1    1    2    0  503  0.52749309862E+02 -0.21504894096E+03 -0.34735025561E+03  0.41192321708E+03  0.00000000000E+00 0. -1.
<scales pt_clust_3="68.20406" pt_clust_4="50.97785" pt_clust_5="244.37811" pt_clust_6="14000.00000"></scales>
<clustering>
<clus scale="   50.978">  1  4  2 -1</clus>
<clus scale="   68.204">  1  3  2 -1</clus>
<clus scale="  244.378">  1  5  2 -1</clus>
<clus scale="   50.978">  1  3  2 -1</clus>
</clustering>
</event>
<event>
 6    0  0.1361744E+002  0.1045396E+03  0.7546771E-02  0.1271029E+00
         21   -1    0    0  503  502  0.00000000000E+00  0.00000000000E+00  0.25490962823E+03  0.25490962823E+03  0.00000000000E+00 0.  1.
          3   -1    0    0  504    0 -0.00000000000E+00 -0.00000000000E+00 -0.53245494817E+03  0.53245494817E+03  0.00000000000E+00 0. -1.
         21    1    1    2  503  501 -0.58183517896E+02 -0.26561787148E+02  0.20208175186E+03  0.21196198887E+03  0.00000000000E+00 0.  1.
         21    1    1    2  504  505 -0.67709080287E+02  0.44731174402E+02 -0.36045182014E+02  0.88795566686E+02  0.00000000000E+00 0. -1.
         21    1    1    2  505  502  0.25851337492E+02  0.29769009474E+02 -0.12321758783E+02  0.41307521284E+02  0.00000000000E+00 0. -1.
          3    1    1    2  501    0  0.10004126069E+03 -0.47938396728E+02 -0.43126013100E+03  0.44529949957E+03  0.00000000000E+00 0. -1.
<scales pt_clust_3="35.93502" pt_clust_4="14000.00000" pt_clust_5="39.42697" pt_clust_6="104.53961"></scales>
<clustering>
<clus scale="   39.427">  1  5  2 -1</clus>
<clus scale="   35.935">  1  3  2 -1</clus>
<clus scale="  104.540">  2  6  1 -1</clus>
<clus scale="   39.427">  1  3  2 -1</clus>
</clustering>
</event>
<event>
 6    0  0.1361744E+002  0.1931165E+03  0.7546771E-02  0.1155680E+00
          2   -1    0    0  505    0 -0.00000000000E+00  0.00000000000E+00  0.13966291436E+04  0.13966291436E+04  0.00000000000E+00 0.  1.
         21   -1    0    0  504  502  0.00000000000E+00 -0.00000000000E+00 -0.43242332239E+02  0.43242332239E+02  0.00000000000E+00 0. -1.
         21    1    1    2  503  502  0.40792203525E+02  0.47188453293E+02  0.25809868433E+02  0.67504839094E+02  0.00000000000E+00 0. -1.
         21    1    1    2  504  501 -0.95248404553E+02 -0.91115050999E+02  0.68810376800E+03  0.70061473480E+03  0.00000000000E+00 0.  1.
         21    1    1    2  505  503  0.80025734107E+02  0.80091198252E+02  0.19817621032E+03  0.22823787699E+03  0.00000000000E+00 0. -1.
          2    1    1    2  501    0 -0.25569533078E+02 -0.36164600546E+02  0.44129696459E+03  0.44351402493E+03  0.00000000000E+00 0.  1.
<scales pt_clust_3="59.82747" pt_clust_4="30.05084" pt_clust_5="59.82747" pt_clust_6="182.98799"></scales>
<clustering>
<clus scale="   30.051">  4  6 -1 -1</clus>
<clus scale="   59.827">  3  5 -1 -1</clus>
<clus scale="  182.988">  1  4  2 -1</clus>
<clus scale="  193.117">  2  3  1 -1</clus>
</clustering>
</event>
<event>
 6    0  0.1361744E+002  0.7063891E+02  0.7546771E-02  0.1357934E+00
         21   -1    0    0  503  502  0.00000000000E+00  0.00000000000E+00  0.24482421975E+04  0.24482421975E+04  0.00000000000E+00 0.  1.
          2   -1    0    0  504    0 -0.00000000000E+00 -0.00000000000E+00 -0.28082390938E+02  0.28082390938E+02  0.00000000000E+00 0.  1.
         21    1    1    2  503  501 -0.68699360238E+02 -0.40927188883E+02  0.19519130735E+04  0.19535504302E+04  0.00000000000E+00 0.  1.
         21    1    1    2  504  505  0.19931802619E+02 -0.51937999615E+02  0.88193358426E+02  0.10427320380E+03  0.00000000000E+00 0.  1.
         21    1    1    2  505  502 -0.51799213550E+01  0.53755763055E+02  0.33196259922E+03  0.33632674727E+03  0.00000000000E+00 0.  1.
          2    1    1    2  501    0  0.53947478975E+02  0.39109425443E+02  0.48090775477E+02  0.82174207220E+02  0.00000000000E+00 0.  1.
<scales pt_clust_3="70.63891" pt_clust_4="53.26628" pt_clust_5="54.00476" pt_clust_6="14000.00000"></scales>
<clustering>
<clus scale="   54.005">  1  5  2 -1</clus>
<clus scale="   53.266">  2  4  1 -1</clus>
<clus scale="   70.639">  1  3  2 -1</clus>
<clus scale="   54.005">  1  3  2 -1</clus>
</clustering>
</event>
<event>
 6    0  0.1361744E+002  0.1282690E+03  0.7546771E-02  0.1230047E+00
          4   -1    0    0  505    0 -0.00000000000E+00  0.00000000000E+00  0.81707424405E+02  0.81707424405E+02  0.00000000000E+00 0. -1.
         21   -1    0    0  504  502  0.00000000000E+00 -0.00000000000E+00 -0.31079958923E+03  0.31079958923E+03  0.00000000000E+00 0.  1.
         21    1    1    2  503  501 -0.19385793187E+02 -0.59493578308E+02 -0.33536250353E+02  0.70992780796E+02  0.00000000000E+00 0. -1.
         21    1    1    2  504  503  0.38839339980E+02 -0.36194584004E+02 -0.24403406190E+02  0.58430030591E+02  0.00000000000E+00 0. -1.
         21    1    1    2  505  502 -0.45446358322E+02  0.11086486705E+03 -0.19210649603E+03  0.22640957587E+03  0.00000000000E+00 0.  1.
          4    1    1    2  501    0  0.25992811529E+02 -0.15176704736E+02  0.20953987741E+02  0.36674626380E+02  0.00000000000E+00 0. -1.
<scales pt_clust_3="60.63796" pt_clust_4="60.63796" pt_clust_5="112.22454" pt_clust_6="30.09915"></scales>
<clustering>
<clus scale="   30.099">  1  6  2 -1</clus>
<clus scale="   60.638">  3  4 -1 -1</clus>
<clus scale="  112.225">  2  5  1 -1</clus>
<clus scale="  112.225">  2  3  1 -1</clus>
</clustering>
</event>
<event>
 6    0  0.1361744E+002  0.1953402E+03  0.7546771E-02  0.1153731E+00
         -2   -1    0    0    0  501 -0.00000000000E+00  0.00000000000E+00  0.83979459239E+02  0.83979459239E+02  0.00000000000E+00 0. -1.
         21   -1    0    0  504  502  0.00000000000E+00 -0.00000000000E+00 -0.70430281978E+03  0.70430281978E+03  0.00000000000E+00 0. -1.
         21    1    1    2  503  505  0.76370745142E+02 -0.54066775354E+02 -0.47283198087E+02  0.10483991478E+03  0.00000000000E+00 0. -1.
         21    1    1    2  504  501 -0.10166008666E+03  0.12955544028E+03 -0.38368407227E+03  0.41753185823E+03  0.00000000000E+00 0. -1.
         21    1    1    2  505  502  0.48414899768E+01  0.29874268411E+02 -0.14772068017E+03  0.15078896275E+03  0.00000000000E+00 0. -1.
         -2    1    1    2    0  503  0.20447851540E+02 -0.10536293333E+03 -0.41635410019E+02  0.11512154325E+03  0.00000000000E+00 0. -1.
<scales pt_clust_3="71.07666" pt_clust_4="180.20252" pt_clust_5="30.26404" pt_clust_6="71.07666"></scales>
<clustering>
<clus scale="   30.264">  2  5  1 -1</clus>
<clus scale="   71.077">  3  6 -1 -1</clus>
<clus scale="  180.203">  2  4  1 -1</clus>
<clus scale="   30.264">  2  3  1 -1</clus>
</clustering>
</event>
<event>
 6    0  0.1361744E+002  0.1002642E+03  0.7546771E-02  0.1279741E+00
          2   -1    0    0  504    0 -0.00000000000E+00  0.00000000000E+00  0.62666276165E+03  0.62666276165E+03  0.00000000000E+00 0. -1.
         21   -1    0    0  503  502  0.00000000000E+00 -0.00000000000E+00 -0.64850642142E+03  0.64850642142E+03  0.00000000000E+00 0. -1.
         21    1    1    2  503  505 -0.71703783356E+02 -0.66612423848E+02 -0.48779559358E+03  0.49751702350E+03  0.00000000000E+00 0. -1.
         21    1    1    2  504  502  0.28893614415E+02 -0.15154774556E+02  0.40450442171E+03  0.40581810621E+03  0.00000000000E+00 0. -1.
         21    1    1    2  505  501  0.40905093044E+02  0.11749091903E+03 -0.12831815070E+03  0.17872574098E+03  0.00000000000E+00 0. -1.
          2    1    1    2  501    0  0.19050758966E+01 -0.35723720629E+02  0.18976566281E+03  0.19310831238E+03  0.00000000000E+00 0. -1.
<scales pt_clust_3="100.26419" pt_clust_4="32.62680" pt_clust_5="14000.00000" pt_clust_6="55.73071"></scales>
<clustering>
<clus scale="   32.627">  1  4  2 -1</clus>
<clus scale="   55.731">  1  6  2 -1</clus>
<clus scale="  100.264">  2  3  1 -1</clus>
<clus scale="  100.264">  2  3  1 -1</clus>
</clustering>
</event>
<event>
 6    0  0.1361744E+002  0.1386744E+03  0.7546771E-02  0.1215124E+00
          1   -1    0    0  503    0 -0.00000000000E+00  0.00000000000E+00  0.42267993554E+04  0.42267993554E+04  0.00000000000E+00 0.  1.
         21   -1    0    0  505  502  0.00000000000E+00 -0.00000000000E+00 -0.14088354291E+02  0.14088354291E+02  0.00000000000E+00 0. -1.
         21    1    1    2  503  502 -0.24100466331E+02 -0.33701676487E+02  0.15878079575E+03  0.16409746060E+03  0.00000000000E+00 0. -1.
         21    1    1    2  504  501  0.52556185538E+02 -0.46671317055E+02  0.29270903671E+03  0.30102980691E+03  0.00000000000E+00 0. -1.
         21    1    1    2  505  504  0.50645124614E+02 -0.28388301701E+02  0.13387803935E+03  0.14592516487E+03  0.00000000000E+00 0. -1.
          1    1    1    2  501    0 -0.79100843821E+02  0.10876129524E+03  0.36273431293E+04  0.36298352773E+04  0.00000000000E+00 0.  1.
<scales pt_clust_3="41.43230" pt_clust_4="35.29067" pt_clust_5="35.29067" pt_clust_6="133.12710"></scales>
<clustering>
<clus scale="   35.291">  4  5 -1 -1</clus>
<clus scale="   41.432">  2  3  1 -1</clus>
<clus scale="  133.127">  1  6  2 -1</clus>
<clus scale="   41.432">  2  3  1 -1</clus>
</clustering>
</event>
<event>
 6    0  0.1361744E+002  0.7340970E+02  0.7546771E-02  0.1348868E+00
         21   -1    0    0  503  502  0.00000000000E+00  0.00000000000E+00  0.44799457299E+03  0.44799457299E+03  0.00000000000E+00 0.  1.
          2   -1    0    0  505    0 -0.00000000000E+00 -0.00000000000E+00 -0.14631991158E+04  0.14631991158E+04  0.00000000000E+00 0. -1.
         21    1    1    2  503  501  0.43237677030E+02  0.58996729794E+02  0.37435208265E+03  0.38143098016E+03  0.00000000000E+00 0.  1.
         21    1    1    2  504  502 -0.22310532654E+02 -0.76171345538E+02  0.39436022011E+02  0.88628627319E+02  0.00000000000E+00 0. -1.
         21    1    1    2  505  504 -0.68733216790E+02  0.17239875107E+02 -0.21861984525E+03  0.22981754747E+03  0.00000000000E+00 0. -1.
          2    1    1    2  501    0  0.47806072414E+02 -0.65259363200E-01 -0.12103728022E+04  0.12113165338E+04  0.00000000000E+00 0. -1.
<scales pt_clust_3="73.40970" pt_clust_4="14000.00000" pt_clust_5="31.37925" pt_clust_6="47.80612"></scales>
<clustering>
<clus scale="   47.806">  2  6  1 -1</clus>
<clus scale="   31.379">  2  5  1 -1</clus>
<clus scale="   73.410">  1  3  2 -1</clus>
<clus scale="   73.410">  1  3  2 -1</clus>
</clustering>
</event>
<event>
 6    0  0.1361744E+002  0.1199987E+03  0.7546771E-02  0.1243099E+00
         21   -1    0    0  504  502  0.00000000000E+00  0.00000000000E+00  0.78305252019E+03  0.78305252019E+03  0.00000000000E+00 0.  1.
          1   -1    0    0  505    0 -0.00000000000E+00 -0.00000000000E+00 -0.25574934237E+04  0.25574934237E+04  0.00000000000E+00 0.  1.
         21    1    1    2  503  502 -0.41827362843E+02  0.17290784137E+02  0.81661526090E+02  0.93365434406E+02  0.00000000000E+00 0.  1.
         21    1    1    2  504  501 -0.66893625838E+02  0.34047156347E+02  0.69103240383E+03  0.69509693510E+03  0.00000000000E+00 0.  1.
         21    1    1    2  505  503  0.17276504925E+01 -0.30843526589E+02 -0.19539357507E+03  0.19782051736E+03  0.00000000000E+00 0. -1.
          1    1    1    2  501    0  0.10699333819E+03 -0.20494413895E+02 -0.23517412584E+04  0.23542630570E+04  0.00000000000E+00 0.  1.
<scales pt_clust_3="45.22724" pt_clust_4="119.99869" pt_clust_5="30.89187" pt_clust_6="14000.00000"></scales>
<clustering>
<clus scale="   30.892">  2  5  1 -1</clus>
<clus scale="   45.227">  1  3  2 -1</clus>
<clus scale="  119.999">  1  4  2 -1</clus>
<clus scale="   45.227">  1  3  2 -1</clus>
</clustering>
</event>
<event>
 6    0  0.1361744E+002  0.8394776E+02  0.7546771E-02  0.1318207E+00
          1   -1    0    0  505    0 -0.00000000000E+00  0.00000000000E+00  0.51237502148E+03  0.51237502148E+03  0.00000000000E+00 0. -1.
         21   -1    0    0  501  502  0.00000000000E+00 -0.00000000000E+00 -0.61326798277E+03  0.61326798277E+03  0.00000000000E+00 0. -1.
         21    1    1    2  503  502  0.61581590230E+02 -0.10637412113E+02 -0.65376558638E+02  0.90440816068E+02  0.00000000000E+00 0. -1.
         21    1    1    2  504  503 -0.10257712140E+03  0.76343449590E+01 -0.46936115354E+03  0.48049999117E+03  0.00000000000E+00 0. -1.
         21    1    1    2  505  504  0.65804209122E+02  0.52226190027E+02  0.47722166639E+03  0.48455989077E+03  0.00000000000E+00 0. -1.
          1    1    1    2  501    0 -0.24808677947E+02 -0.49223122873E+02 -0.43376915502E+02  0.70142306245E+02  0.00000000000E+00 0. -1.
<scales pt_clust_3="60.69466" pt_clust_4="83.94776" pt_clust_5="14000.00000" pt_clust_6="55.12156"></scales>
<clustering>
<clus scale="   55.122">  2  6  1 -1</clus>
<clus scale="   60.695">  2  3  1 -1</clus>
<clus scale="   83.948">  2  4  1 -1</clus>
<clus scale="   55.122">  2  3  1 -1</clus>
</clustering>
</event>
<event>
 6    0  0.1361744E+002  0.1598114E+03  0.7546771E-02  0.1188910E+00
         21   -1    0    0  501  502  0.00000000000E+00  0.00000000000E+00  0.85635871670E+02  0.85635871670E+02  0.00000000000E+00 0. -1.
          1   -1    0    0  504    0 -0.00000000000E+00 -0.00000000000E+00 -0.25190831009E+04  0.25190831009E+04  0.00000000000E+00 0. -1.
         21    1    1    2  503  502  0.26370151121E+02 -0.57137591431E+02  0.63565174275E+01  0.63249462753E+02  0.00000000000E+00 0. -1.
         21    1    1    2  504  505 -0.11556267497E+03  0.73649055918E+02 -0.13041534909E+04  0.13113333837E+04  0.00000000000E+00 0. -1.
         21    1    1    2  505  503  0.80704225093E+02 -0.55065639192E+02 -0.39842468249E+01  0.97781750804E+02  0.00000000000E+00 0. -1.
          1    1    1    2  501    0  0.84882987513E+01  0.38554174705E+02 -0.11316660090E+04  0.11323543754E+04  0.00000000000E+00 0. -1.
<scales pt_clust_3="34.71421" pt_clust_4="153.84646" pt_clust_5="34.71421" pt_clust_6="39.47753"></scales>
<clustering>
<clus scale="   34.714">  3  5 -1 -1</clus>
<clus scale="   39.478">  2  6  1 -1</clus>
<clus scale="  153.846">  2  4  1 -1</clus>
<clus scale="  159.811">  1  3  2 -1</clus>
</clustering>
</event>
<event>
 6    0  0.1361744E+002  0.1165026E+03  0.7546771E-02  0.1248981E+00
         21   -1    0    0  503  502  0.00000000000E+00  0.00000000000E+00  0.15423698850E+03  0.15423698850E+03  0.00000000000E+00 0. -1.
          2   -1    0    0  504    0 -0.00000000000E+00 -0.00000000000E+00 -0.10178729015E+04  0.10178729015E+04  0.00000000000E+00 0. -1.
         21    1    1    2  503  501 -0.13597287213E+02 -0.70849240780E+02  0.94250546440E+02  0.11869147671E+03  0.00000000000E+00 0.  1.
         21    1    1    2  504  505 -0.23535105344E+02  0.55353776829E+02 -0.10376778503E+03  0.11994038103E+03  0.00000000000E+00 0. -1.
         21    1    1    2  505  502 -0.92538650239E+02 -0.33104505303E+01 -0.27579599736E+02  0.96617778863E+02  0.00000000000E+00 0. -1.
          2    1    1    2  501    0  0.12967104280E+03  0.18805914481E+02 -0.82653907464E+03  0.83686025337E+03  0.00000000000E+00 0. -1.
<scales pt_clust_3="71.47026" pt_clust_4="60.14933" pt_clust_5="14000.00000" pt_clust_6="116.50261"></scales>
<clustering>
<clus scale="   60.149">  2  4  1 -1</clus>
<clus scale="   71.470">  1  3  2 -1</clus>
<clus scale="  116.503">  2  6  1 -1</clus>
<clus scale="   71.470">  1  3  2 -1</clus>
</clustering>
</event>
<event>
 6    0  0.1361744E+002  0.1021324E+03  0.7546771E-02  0.1275875E+00
          2   -1    0    0  504    0 -0.00000000000E+00  0.00000000000E+00  0.47857806054E+03  0.47857806054E+03  0.00000000000E+00 0.  1.
         21   -1    0    0  505  502  0.00000000000E+00 -0.00000000000E+00 -0.42692880427E+03  0.42692880427E+03  0.00000000000E+00 0.  1.
         21    1    1    2  503  502 -0.16317019876E+02 -0.28703987011E+02 -0.32322823015E+02  0.46205290775E+02  0.00000000000E+00 0. -1.
         21    1    1    2  504  503  0.49032059631E+02 -0.25410235209E+02  0.84796066055E+02  0.10119385230E+03  0.00000000000E+00 0. -1.
         21    1    1    2  505  501  0.76742374322E+01 -0.73783830805E+02 -0.36372597985E+03  0.37121359893E+03  0.00000000000E+00 0.  1.
          2    1    1    2  501    0 -0.40389277186E+02  0.12789805302E+03  0.36290199309E+03  0.38689412281E+03  0.00000000000E+00 0.  1.
<scales pt_clust_3="33.01763" pt_clust_4="55.20254" pt_clust_5="102.13244" pt_clust_6="14000.00000"></scales>
<clustering>
<clus scale="   33.018">  2  3  1 -1</clus>
<clus scale="   55.203">  1  4  2 -1</clus>
<clus scale="  102.132">  2  5  1 -1</clus>
<clus scale="   33.018">  2  3  1 -1</clus>
</clustering>
</event>
<event>
 6    0  0.1361744E+002  0.1469841E+03  0.7546771E-02  0.1204229E+00
         21   -1    0    0  503  502  0.00000000000E+00  0.00000000000E+00  0.63293924282E+02  0.63293924282E+02  0.00000000000E+00 0.  1.
          1   -1    0    0  504    0 -0.00000000000E+00 -0.00000000000E+00 -0.13831239617E+04  0.13831239617E+04  0.00000000000E+00 0. -1.
         21    1    1    2  503  501 -0.51827683503E+02 -0.16000417436E+03 -0.12840044945E+03  0.21159896032E+03  0.00000000000E+00 0.  1.
         21    1    1    2  504  505  0.20049522944E+02 -0.27557361220E+02 -0.42537274470E+03  0.42673570680E+03  0.00000000000E+00 0. -1.
         21    1    1    2  505  502  0.64380099777E+02  0.24775181059E+02 -0.98907070342E+02  0.12058696201E+03  0.00000000000E+00 0. -1.
          1    1    1    2  501    0 -0.32601939218E+02  0.16278635452E+03 -0.66714977288E+03  0.68749625680E+03  0.00000000000E+00 0. -1.
<scales pt_clust_3="14000.00000" pt_clust_4="34.07919" pt_clust_5="70.09514" pt_clust_6="146.98413"></scales>
<clustering>
<clus scale="   34.079">  2  4  1 -1</clus>
<clus scale="   70.095">  1  5  2 -1</clus>
<clus scale="  146.984">  2  6  1 -1</clus>
<clus scale="   70.095">  1  3  2 -1</clus>
</clustering>
</event>
<event>
 6    0  0.1361744E+002  0.2217501E+03  0.7546771E-02  0.1132585E+00
          2   -1    0    0  504    0 -0.00000000000E+00  0.00000000000E+00  0.24833526756E+03  0.24833526756E+03  0.00000000000E+00 0.  1.
         21   -1    0    0  505  502  0.00000000000E+00 -0.00000000000E+00 -0.87042149780E+03  0.87042149780E+03  0.00000000000E+00 0. -1.
         21    1    1    2  503  502 -0.42418076650E+02 -0.47689399931E+02 -0.13748878198E+03  0.15158079451E+03  0.00000000000E+00 0.  1.
         21    1    1    2  504  503 -0.16272525047E+02 -0.56075837160E+02 -0.88632626893E+02  0.10613687924E+03  0.00000000000E+00 0. -1.
         21    1    1    2  505  501  0.10252666254E+03 -0.12229359333E+03 -0.55741476061E+03  0.57980915381E+03  0.00000000000E+00 0. -1.
          2    1    1    2  501    0 -0.43836060846E+02  0.22605883042E+03  0.16144993924E+03  0.28122993781E+03  0.00000000000E+00 0.  1.
<scales pt_clust_3="123.64266" pt_clust_4="31.37019" pt_clust_5="221.75011" pt_clust_6="14000.00000"></scales>
<clustering>
<clus scale="   31.370">  3  4 -1 -1</clus>
<clus scale="  123.643">  2  3  1 -1</clus>
<clus scale="  221.750">  2  5  1 -1</clus>
<clus scale="  123.643">  2  3  1 -1</clus>
</clustering>
</event>
<event>
 6    0  0.1361744E+002  0.2207816E+03  0.7546771E-02  0.1133302E+00
          2   -1    0    0  502    0 -0.00000000000E+00  0.00000000000E+00  0.15380144113E+04  0.15380144113E+04  0.00000000000E+00 0.  1.
         21   -1    0    0  505  502  0.00000000000E+00 -0.00000000000E+00 -0.62499459836E+02  0.62499459836E+02  0.00000000000E+00 0.  1.
         21    1    1    2  503  504  0.48775749273E+02  0.89704038639E+02  0.40096478045E+02  0.10969783871E+03  0.00000000000E+00 0.  1.
         21    1    1    2  504  501 -0.18295002851E+02 -0.26720504836E+02  0.83887529820E+02  0.89921133040E+02  0.00000000000E+00 0. -1.
         21    1    1    2  505  503  0.66504721694E+02  0.83149828972E+02  0.13573303364E+03  0.17251153146E+03  0.00000000000E+00 0.  1.
          2    1    1    2  501    0 -0.96985468117E+02 -0.14613336277E+03  0.12157979099E+04  0.12283833679E+04  0.00000000000E+00 0.  1.
<scales pt_clust_3="73.00754" pt_clust_4="32.08788" pt_clust_5="220.73992" pt_clust_6="32.08788"></scales>
<clustering>
<clus scale="   32.088">  4  6 -1 -1</clus>
<clus scale="   73.008">  3  5 -1 -1</clus>
<clus scale="  220.740">  2  3  1 -1</clus>
<clus scale="  220.740">  2  3  1 -1</clus>
</clustering>
</event>
<event>
 6    0  0.1361744E+002  0.9178937E+02  0.7546771E-02  0.1298575E+00
          1   -1    0    0  503    0 -0.00000000000E+00  0.00000000000E+00  0.27164563803E+04  0.27164563803E+04  0.00000000000E+00 0. -1.
         21   -1    0    0  505  502  0.00000000000E+00 -0.00000000000E+00 -0.95540207296E+02  0.95540207296E+02  0.00000000000E+00 0. -1.
         21    1    1    2  503  502  0.42377436589E+02 -0.10863244964E+03  0.38531231005E+01  0.11666920246E+03  0.00000000000E+00 0. -1.
         21    1    1    2  504  501 -0.43608382936E+02  0.43987350471E+02  0.48735934424E+03  0.49127966422E+03  0.00000000000E+00 0. -1.
         21    1    1    2  505  504  0.21467212666E+02  0.38520141053E+02 -0.23921823046E+02  0.50168676525E+02  0.00000000000E+00 0. -1.
          1    1    1    2  501    0 -0.20236266319E+02  0.26124958112E+02  0.21536255287E+04  0.21538790444E+04  0.00000000000E+00 0. -1.
<scales pt_clust_3="14000.00000" pt_clust_4="91.78937" pt_clust_5="44.40623" pt_clust_6="33.04572"></scales>
<clustering>
<clus scale="   33.046">  1  6  2 -1</clus>
<clus scale="   44.406">  2  5  1 -1</clus>
<clus scale="   91.789">  1  4  2 -1</clus>
<clus scale="   44.406">  2  3  1 -1</clus>
</clustering>
</event>
<event>
 6    0  0.1361744E+002  0.7417487E+03  0.7546771E-02  0.9648385E-01
         21   -1    0    0  505  502  0.00000000000E+00  0.00000000000E+00  0.10776571892E+04  0.10776571892E+04  0.00000000000E+00 0.  1.
          4   -1    0    0  502    0 -0.00000000000E+00 -0.00000000000E+00 -0.11700878133E+04  0.11700878133E+04  0.00000000000E+00 0. -1.
         21    1    1    2  503  504 -0.23364890785E+03  0.66676431061E+02  0.19221882421E+03  0.30981548538E+03  0.00000000000E+00 0.  1.
         21    1    1    2  504  501  0.40855641197E+03 -0.29901480585E+03 -0.65459880384E+03  0.82754322538E+03  0.00000000000E+00 0. -1.
         21    1    1    2  505  503 -0.40304066036E+03  0.27855971751E+03  0.60572847962E+03  0.77906628803E+03  0.00000000000E+00 0.  1.
          4    1    1    2  501    0  0.22813315624E+03 -0.46221342728E+02 -0.23577912412E+03  0.33132000372E+03  0.00000000000E+00 0. -1.
<scales pt_clust_3="109.96315" pt_clust_4="108.55085" pt_clust_5="740.90729" pt_clust_6="108.55085"></scales>
<clustering>
<clus scale="  108.551">  4  6 -1 -1</clus>
<clus scale="  109.963">  3  5 -1 -1</clus>
<clus scale="  740.907">  1  3  2 -1</clus>
<clus scale="  740.907">  1  3  2 -1</clus>
</clustering>
</event>
<event>
 6    0  0.1361744E+002  0.1088471E+03  0.7546771E-02  0.1262720E+00
         21   -1    0    0  504  502  0.00000000000E+00  0.00000000000E+00  0.11912244283E+03  0.11912244283E+03  0.00000000000E+00 0.  1.
          2   -1    0    0  503    0 -0.00000000000E+00 -0.00000000000E+00 -0.41122392101E+03  0.41122392101E+03  0.00000000000E+00 0. -1.
         21    1    1    2  503  502  0.21463071241E+02  0.38674659426E+02 -0.54239577414E+02  0.69988030883E+02  0.00000000000E+00 0. -1.
         21    1    1    2  504  505 -0.53140097846E+02 -0.21124070729E+02  0.58192164774E+02  0.81586913193E+02  0.00000000000E+00 0.  1.
         21    1    1    2  505  501 -0.65786443405E+02 -0.50116954491E+02 -0.21257926583E+02  0.85390073814E+02  0.00000000000E+00 0.  1.
          2    1    1    2  501    0  0.97463470010E+02  0.32566365795E+02 -0.27479613896E+03  0.29338134596E+03  0.00000000000E+00 0. -1.
<scales pt_clust_3="44.23113" pt_clust_4="56.04565" pt_clust_5="14000.00000" pt_clust_6="108.84710"></scales>
<clustering>
<clus scale="   44.231">  2  3  1 -1</clus>
<clus scale="   56.046">  1  4  2 -1</clus>
<clus scale="  108.847">  2  6  1 -1</clus>
<clus scale="   56.046">  1  3  2 -1</clus>
</clustering>
</event>
<event>
 6    0  0.1361744E+002  0.1042598E+03  0.7546771E-02  0.1271585E+00
         21   -1    0    0  504  502  0.00000000000E+00  0.00000000000E+00  0.21788994721E+03  0.21788994721E+03  0.00000000000E+00 0. -1.
          2   -1    0    0  505    0 -0.00000000000E+00 -0.00000000000E+00 -0.34278763902E+03  0.34278763902E+03  0.00000000000E+00 0.  1.
         21    1    1    2  503  502 -0.13299145996E+03  0.32546397037E+02  0.11971746912E+03  0.18187432143E+03  0.00000000000E+00 0. -1.
         21    1    1    2  504  501  0.34870573126E+02  0.36942929383E+00  0.48317736826E+02  0.59587725583E+02  0.00000000000E+00 0. -1.
         21    1    1    2  505  503  0.13572904214E+02 -0.27528156345E+02 -0.29794906745E+02  0.42775689223E+02  0.00000000000E+00 0. -1.
          2    1    1    2  501    0  0.84547982616E+02 -0.53876699861E+01 -0.26313799102E+03  0.27643985000E+03  0.00000000000E+00 0.  1.
<scales pt_clust_3="104.25978" pt_clust_4="35.12037" pt_clust_5="30.69240" pt_clust_6="14000.00000"></scales>
<clustering>
<clus scale="   30.692">  2  5  1 -1</clus>
<clus scale="   35.120">  1  4  2 -1</clus>
<clus scale="  104.260">  1  3  2 -1</clus>
<clus scale="   35.120">  1  3  2 -1</clus>
</clustering>
</event>
<event>
 6    0  0.1361744E+002  0.7323648E+02  0.7546771E-02  0.1349421E+00
         21   -1    0    0  504  502  0.00000000000E+00  0.00000000000E+00  0.64513605340E+02  0.64513605340E+02  0.00000000000E+00 0. -1.
          1   -1    0    0  503    0 -0.00000000000E+00 -0.00000000000E+00 -0.17414307407E+04  0.17414307407E+04  0.00000000000E+00 0.  1.
         21    1    1    2  503  505 -0.14224869814E+02  0.57568987780E+02 -0.69766154428E+03  0.70017723874E+03  0.00000000000E+00 0.  1.
         21    1    1    2  504  501  0.34434841246E+02  0.20326496840E+01 -0.18949283867E+02  0.39356896669E+02  0.00000000000E+00 0. -1.
         21    1    1    2  505  502  0.27189138426E+02  0.39406196014E+02  0.38595286978E+02  0.61495477147E+02  0.00000000000E+00 0. -1.
          1    1    1    2  501    0 -0.47399109857E+02 -0.99007833477E+02 -0.99890159416E+03  0.10049147335E+04  0.00000000000E+00 0.  1.
<scales pt_clust_3="59.15999" pt_clust_4="34.49478" pt_clust_5="14000.00000" pt_clust_6="73.23648"></scales>
<clustering>
<clus scale="   34.495">  1  4  2 -1</clus>
<clus scale="   59.160">  2  3  1 -1</clus>
<clus scale="   73.236">  2  6  1 -1</clus>
<clus scale="   34.495">  1  3  2 -1</clus>
</clustering>
</event>
<event>
 6    0  0.1361744E+002  0.7783972E+02  0.7546771E-02  0.1335296E+00
         21   -1    0    0  503  502  0.00000000000E+00  0.00000000000E+00  0.11289001993E+04  0.11289001993E+04  0.00000000000E+00 0. -1.
         -4   -1    0    0    0  501 -0.00000000000E+00 -0.00000000000E+00 -0.58690859327E+02  0.58690859327E+02  0.00000000000E+00 0. -1.
         21    1    1    2  503  504 -0.59858935962E+02 -0.54945204325E+02  0.67352543073E+03  0.67840885426E+03  0.00000000000E+00 0. -1.
         21    1    1    2  504  501  0.19304253497E+01 -0.36041290253E+02  0.16390310689E+01  0.36130147633E+02  0.00000000000E+00 0.  1.
         21    1    1    2  505  502 -0.19956713362E+02  0.66307642973E+02  0.38448502411E+03  0.39067084316E+03  0.00000000000E+00 0. -1.
         -4    1    1    2    0  505  0.77885223974E+02  0.24678851605E+02  0.10559854038E+02  0.82381213558E+02  0.00000000000E+00 0. -1.
<scales pt_clust_3="14000.00000" pt_clust_4="36.09295" pt_clust_5="66.63177" pt_clust_6="77.83972"></scales>
<clustering>
<clus scale="   36.093">  2  4  1 -1</clus>
<clus scale="   66.632">  1  5  2 -1</clus>
<clus scale="   77.840">  2  6  1 -1</clus>
<clus scale="   66.632">  1  3  2 -1</clus>
</clustering>
</event>
<event>
 6    0  0.1361744E+002  0.2508586E+03  0.7546771E-02  0.1112763E+00
         21   -1    0    0  504  502  0.00000000000E+00  0.00000000000E+00  0.40978334523E+03  0.40978334523E+03  0.00000000000E+00 0. -1.
         -2   -1    0    0    0  501 -0.00000000000E+00 -0.00000000000E+00 -0.27048099405E+03  0.27048099405E+03  0.00000000000E+00 0.  1.
         21    1    1    2  503  502  0.40272710360E+02  0.27867230941E+02 -0.20461300992E+02  0.53076723697E+02  0.00000000000E+00 0.  1.
         21    1    1    2  504  505 -0.53127451837E+02 -0.57532770325E+01  0.14640206389E+03  0.15584989781E+03  0.00000000000E+00 0. -1.
         21    1    1    2  505  501 -0.17615389629E+03 -0.27035222412E+02  0.15412701928E+03  0.23561883732E+03  0.00000000000E+00 0. -1.
         -2    1    1    2    0  503  0.18900863777E+03  0.49212685034E+01 -0.14076543101E+03  0.23571888045E+03  0.00000000000E+00 0.  1.
<scales pt_clust_3="31.22365" pt_clust_4="52.76462" pt_clust_5="52.76462" pt_clust_6="239.60142"></scales>
<clustering>
<clus scale="   31.224">  3  6 -1 -1</clus>
<clus scale="   52.765">  4  5 -1 -1</clus>
<clus scale="  239.601">  2  3  1 -1</clus>
<clus scale="  250.859">  1  3  2 -1</clus>
</clustering>
</event>
<event>
 6    0  0.1361744E+002  0.1109718E+03  0.7546771E-02  0.1258781E+00
          2   -1    0    0  504    0 -0.00000000000E+00  0.00000000000E+00  0.52306448004E+03  0.52306448004E+03  0.00000000000E+00 0.  1.
         21   -1    0    0  505  502  0.00000000000E+00 -0.00000000000E+00 -0.19301235760E+03  0.19301235760E+03  0.00000000000E+00 0. -1.
         21    1    1    2  503  501 -0.76963682884E+02 -0.64801154154E+02  0.23027230007E+03  0.25129251927E+03  0.00000000000E+00 0.  1.
         21    1    1    2  504  502  0.10247549231E+03  0.29999554140E+02  0.42529845767E+02  0.11493470996E+03  0.00000000000E+00 0.  1.
         21    1    1    2  505  503 -0.25738481300E+02  0.79229851291E+02 -0.13165101685E+03  0.15579418793E+03  0.00000000000E+00 0. -1.
          2    1    1    2  501    0  0.22667187569E+00 -0.44428251277E+02  0.18890099345E+03  0.19405542048E+03  0.00000000000E+00 0.  1.
<scales pt_clust_3="14000.00000" pt_clust_4="110.97185" pt_clust_5="81.76632" pt_clust_6="44.42883"></scales>
<clustering>
<clus scale="   44.429">  1  6  2 -1</clus>
<clus scale="   81.766">  2  5  1 -1</clus>
<clus scale="  110.972">  2  4  1 -1</clus>
<clus scale="   81.766">  2  3  1 -1</clus>
</clustering>
</event>
<event>
 6    0  0.1361744E+002  0.1208865E+03  0.7546771E-02  0.1241642E+00
          2   -1    0    0  504    0 -0.00000000000E+00  0.00000000000E+00  0.94430046055E+03  0.94430046055E+03  0.00000000000E+00 0.  1.
         21   -1    0    0  503  502  0.00000000000E+00 -0.00000000000E+00 -0.49175899882E+03  0.49175899882E+03  0.00000000000E+00 0.  1.
         21    1    1    2  503  501  0.34488127635E+02 -0.30340960571E+01 -0.79246802877E+02  0.86479433699E+02  0.00000000000E+00 0.  1.
         21    1    1    2  504  505 -0.92036345261E+02 -0.86125035214E+02  0.22165424165E+03  0.25498786909E+03  0.00000000000E+00 0.  1.
         21    1    1    2  505  502  0.30596095144E+02 -0.32656942515E+02 -0.38538366198E+03  0.38797314836E+03  0.00000000000E+00 0.  1.
          2    1    1    2  501    0  0.26952122481E+02  0.12181607379E+03  0.69551768493E+03  0.70661900823E+03  0.00000000000E+00 0.  1.
<scales pt_clust_3="34.62133" pt_clust_4="14000.00000" pt_clust_5="72.50967" pt_clust_6="120.88652"></scales>
<clustering>
<clus scale="   34.621">  2  3  1 -1</clus>
<clus scale="   72.510">  2  5  1 -1</clus>
<clus scale="  120.887">  1  6  2 -1</clus>
<clus scale="   34.621">  2  3  1 -1</clus>
</clustering>
</event>
<event>
 6    0  0.1361744E+002  0.8955229E+02  0.7546771E-02  0.1303940E+00
         21   -1    0    0  504  502  0.00000000000E+00  0.00000000000E+00  0.51732623643E+03  0.51732623643E+03  0.00000000000E+00 0. -1.
          1   -1    0    0  503    0 -0.00000000000E+00 -0.00000000000E+00 -0.10044463584E+04  0.10044463584E+04  0.00000000000E+00 0. -1.
         21    1    1    2  503  502 -0.11537004374E+03  0.40577419640E+01  0.46569434635E+03  0.47978947100E+03  0.00000000000E+00 0. -1.
         21    1    1    2  504  505  0.30177881621E+02  0.24028092247E+02  0.29713860380E+02  0.48692579053E+02  0.00000000000E+00 0. -1.
         21    1    1    2  505  501  0.84709313122E+02  0.41061334186E+01 -0.35704267311E+03  0.36697683644E+03  0.00000000000E+00 0. -1.
          1    1    1    2  501    0  0.48284899299E+00 -0.32191967629E+02 -0.62548565559E+03  0.62631370835E+03  0.00000000000E+00 0. -1.
<scales pt_clust_3="89.55229" pt_clust_4="38.08747" pt_clust_5="14000.00000" pt_clust_6="32.19559"></scales>
<clustering>
<clus scale="   32.196">  2  6  1 -1</clus>
<clus scale="   38.087">  1  4  2 -1</clus>
<clus scale="   89.552">  1  3  2 -1</clus>
<clus scale="   38.087">  1  3  2 -1</clus>
</clustering>
</event>
<event>
 6    0  0.1361744E+002  0.1313837E+03  0.7546771E-02  0.1225417E+00
         21   -1    0    0  501  502  0.00000000000E+00  0.00000000000E+00  0.16830443832E+02  0.16830443832E+02  0.00000000000E+00 0. -1.
          2   -1    0    0  505    0 -0.00000000000E+00 -0.00000000000E+00 -0.29498720136E+04  0.29498720136E+04  0.00000000000E+00 0. -1.
         21    1    1    2  503  504 -0.91867966279E+02  0.48069029520E+02 -0.35977092402E+03  0.37441350482E+03  0.00000000000E+00 0. -1.
         21    1    1    2  504  502 -0.49843582748E+02 -0.19917193255E+02 -0.17606330066E+03  0.18406347592E+03  0.00000000000E+00 0. -1.
         21    1    1    2  505  503  0.50721286313E+02 -0.72197892483E+01 -0.19814966953E+04  0.19821589058E+04  0.00000000000E+00 0. -1.
          2    1    1    2  501    0  0.90990262715E+02 -0.20932047017E+02 -0.41571064974E+03  0.42606657086E+03  0.00000000000E+00 0. -1.
<scales pt_clust_3="44.95334" pt_clust_4="44.95334" pt_clust_5="51.23255" pt_clust_6="115.57739"></scales>
<clustering>
<clus scale="   44.953">  3  4 -1 -1</clus>
<clus scale="   51.233">  2  5  1 -1</clus>
<clus scale="  115.577">  1  6  2 -1</clus>
<clus scale="  115.577">  1  3  2 -1</clus>
</clustering>
</event>
<event>
 6    0  0.1361744E+002  0.1656948E+03  0.7546771E-02  0.1182413E+00
         21   -1    0    0  505  502  0.00000000000E+00  0.00000000000E+00  0.52706779499E+03  0.52706779499E+03  0.00000000000E+00 0.  1.
          2   -1    0    0  502    0 -0.00000000000E+00 -0.00000000000E+00 -0.41830510056E+03  0.41830510056E+03  0.00000000000E+00 0.  1.
         21    1    1    2  503  504 -0.91930645883E+02  0.66321523047E+02  0.44161231772E+03  0.45592897170E+03  0.00000000000E+00 0.  1.
         21    1    1    2  504  501  0.50551676369E+02 -0.31839876761E+01 -0.92800378465E+02  0.10572379110E+03  0.00000000000E+00 0. -1.
         21    1    1    2  505  503 -0.50177396073E+02  0.69271040566E+01  0.50259645849E+02  0.71356764557E+02  0.00000000000E+00 0.  1.
          2    1    1    2  501    0  0.91556365587E+02 -0.70064639428E+02 -0.29030889068E+03  0.31236336818E+03  0.00000000000E+00 0.  1.
<scales pt_clust_3="158.08440" pt_clust_4="32.90278" pt_clust_5="50.65329" pt_clust_6="32.90278"></scales>
<clustering>
<clus scale="   32.903">  4  6 -1 -1</clus>
<clus scale="   50.653">  1  5  2 -1</clus>
<clus scale="  158.084">  1  3  2 -1</clus>
<clus scale="   50.653">  1  3  2 -1</clus>
</clustering>
</event>
<event>
 6    0  0.1361744E+002  0.8405857E+02  0.7546771E-02  0.1317913E+00
         21   -1    0    0  503  502  0.00000000000E+00  0.00000000000E+00  0.15338044686E+04  0.15338044686E+04  0.00000000000E+00 0. -1.
         -1   -1    0    0    0  501 -0.00000000000E+00 -0.00000000000E+00 -0.21171521099E+02  0.21171521099E+02  0.00000000000E+00 0.  1.
         21    1    1    2  503  504 -0.50139028924E+02  0.41510591571E+02  0.32363198461E+03  0.33011318195E+03  0.00000000000E+00 0. -1.
         21    1    1    2  504  505  0.46206859396E+02 -0.63194604507E+02  0.75252736711E+03  0.75658844172E+03  0.00000000000E+00 0. -1.
         21    1    1    2  505  501 -0.24836617450E+02 -0.69154443315E+02  0.21364470123E+03  0.22592753918E+03  0.00000000000E+00 0. -1.
         -1    1    1    2    0  502  0.28768786978E+02  0.90838456251E+02  0.22282889457E+03  0.24234682687E+03  0.00000000000E+00 0.  1.
<scales pt_clust_3="65.09264" pt_clust_4="40.09811" pt_clust_5="84.05857" pt_clust_6="14000.00000"></scales>
<clustering>
<clus scale="   65.093">  1  3  2 -1</clus>
<clus scale="   40.098">  1  4  2 -1</clus>
<clus scale="   84.059">  2  5  1 -1</clus>
<clus scale="   65.093">  1  3  2 -1</clus>
</clustering>
</event>
<event>
 6    0  0.1361744E+002  0.1391047E+03  0.7546771E-02  0.1214539E+00
         21   -1    0    0  503  502  0.00000000000E+00  0.00000000000E+00  0.15636855947E+03  0.15636855947E+03  0.00000000000E+00 0.  1.
         -4   -1    0    0    0  501 -0.00000000000E+00 -0.00000000000E+00 -0.19319825416E+03  0.19319825416E+03  0.00000000000E+00 0.  1.
         21    1    1    2  503  505 -0.10691327456E+03  0.27304256447E+01  0.13114301265E+02  0.10774919211E+03  0.00000000000E+00 0.  1.
         21    1    1    2  504  502  0.43549468091E+02  0.13217707179E+00  0.35442776696E+02  0.56149479621E+02  0.00000000000E+00 0. -1.
         21    1    1    2  505  501 -0.39328728246E+02  0.16650494676E+02 -0.67117852316E+02  0.79553717311E+02  0.00000000000E+00 0. -1.
         -4    1    1    2    0  504  0.10269253472E+03 -0.19513097392E+02 -0.18268920333E+02  0.10611442459E+03  0.00000000000E+00 0.  1.
<scales pt_clust_3="122.79181" pt_clust_4="42.18930" pt_clust_5="42.70817" pt_clust_6="42.18930"></scales>
<clustering>
<clus scale="   42.189">  4  6 -1 -1</clus>
<clus scale="   42.708">  2  5  1 -1</clus>
<clus scale="  122.792">  1  3  2 -1</clus>
<clus scale="  122.792">  1  3  2 -1</clus>
</clustering>
</event>
<event>
 6    0  0.1361744E+002  0.1173148E+03  0.7546771E-02  0.1247594E+00
          2   -1    0    0  503    0 -0.00000000000E+00  0.00000000000E+00  0.21851915128E+04  0.21851915128E+04  0.00000000000E+00 0. -1.
         21   -1    0    0  505  502  0.00000000000E+00 -0.00000000000E+00 -0.18968560002E+03  0.18968560002E+03  0.00000000000E+00 0.  1.
         21    1    1    2  503  502  0.31956530214E+02  0.76924903004E+01  0.39213659324E+03  0.39351175584E+03  0.00000000000E+00 0. -1.
         21    1    1    2  504  501 -0.11208367912E+03  0.11724656465E+03 -0.11926735414E+03  0.20133109499E+03  0.00000000000E+00 0.  1.
         21    1    1    2  505  504  0.90723874480E+01 -0.60366565751E+02  0.66971881568E+01  0.61410771073E+02  0.00000000000E+00 0. -1.
          2    1    1    2  501    0  0.71054761456E+02 -0.64572489202E+02  0.17159394855E+04  0.17186234909E+04  0.00000000000E+00 0. -1.
<scales pt_clust_3="32.86935" pt_clust_4="14000.00000" pt_clust_5="60.99337" pt_clust_6="117.31483"></scales>
<clustering>
<clus scale="   32.869">  1  3  2 -1</clus>
<clus scale="   60.993">  2  5  1 -1</clus>
<clus scale="  117.315">  1  6  2 -1</clus>
<clus scale="   60.993">  2  3  1 -1</clus>
</clustering>
</event>
<event>
 6    0  0.1361744E+002  0.1662452E+03  0.7546771E-02  0.1181821E+00
          2   -1    0    0  505    0 -0.00000000000E+00  0.00000000000E+00  0.25441956928E+04  0.25441956928E+04  0.00000000000E+00 0.  1.
         21   -1    0    0  504  502  0.00000000000E+00 -0.00000000000E+00 -0.21438526523E+03  0.21438526523E+03  0.00000000000E+00 0.  1.
         21    1    1    2  503  502  0.94412705511E+02 -0.42186913793E+02 -0.13352342610E+03  0.16888457590E+03  0.00000000000E+00 0.  1.
         21    1    1    2  504  501  0.98390079711E+02 -0.14671419614E+03  0.97499412848E+02  0.20177164974E+03  0.00000000000E+00 0. -1.
         21    1    1    2  505  503 -0.68086680926E+02  0.79457960316E+02  0.35089278610E+03  0.36616268367E+03  0.00000000000E+00 0. -1.
          2    1    1    2  501    0 -0.12471610430E+03  0.10944314962E+03  0.20149416547E+04  0.20217620487E+04  0.00000000000E+00 0.  1.
<scales pt_clust_3="103.40935" pt_clust_4="14000.00000" pt_clust_5="93.49743" pt_clust_6="166.24521"></scales>
<clustering>
<clus scale="  103.409">  2  3  1 -1</clus>
<clus scale="   93.497">  2  5  1 -1</clus>
<clus scale="  166.245">  1  6  2 -1</clus>
<clus scale="  103.409">  2  3  1 -1</clus>
</clustering>
</event>
<event>
 6    0  0.1361744E+002  0.1019714E+03  0.7546771E-02  0.1276204E+00
         21   -1    0    0  503  502  0.00000000000E+00  0.00000000000E+00  0.70630331609E+02  0.70630331609E+02  0.00000000000E+00 0. -1.
          1   -1    0    0  504    0 -0.00000000000E+00 -0.00000000000E+00 -0.27514053403E+03  0.27514053403E+03  0.00000000000E+00 0.  1.
         21    1    1    2  503  505 -0.34607460590E+02  0.26331544482E+02 -0.17738672198E+02  0.46964742676E+02  0.00000000000E+00 0. -1.
         21    1    1    2  504  502 -0.27865202273E+02  0.24424380431E+02 -0.71428228744E+02  0.80467457513E+02  0.00000000000E+00 0.  1.
         21    1    1    2  505  501 -0.17164655883E+02  0.43351821924E+02  0.39446425426E+01  0.46792799451E+02  0.00000000000E+00 0. -1.
          1    1    1    2  501    0  0.79637318747E+02 -0.94107746837E+02 -0.11928794402E+03  0.17154586600E+03  0.00000000000E+00 0.  1.
<scales pt_clust_3="31.50257" pt_clust_4="37.05428" pt_clust_5="31.50257" pt_clust_6="96.61308"></scales>
<clustering>
<clus scale="   31.503">  3  5 -1 -1</clus>
<clus scale="   37.054">  2  4  1 -1</clus>
<clus scale="   96.613">  2  6  1 -1</clus>
<clus scale="  101.971">  1  3  2 -1</clus>
</clustering>
</event>
<event>
 6    0  0.1361744E+002  0.1320874E+03  0.7546771E-02  0.1224391E+00
         -4   -1    0    0    0  501 -0.00000000000E+00  0.00000000000E+00  0.13800261527E+03  0.13800261527E+03  0.00000000000E+00 0. -1.
         21   -1    0    0  503  502  0.00000000000E+00 -0.00000000000E+00 -0.19826775876E+04  0.19826775876E+04  0.00000000000E+00 0. -1.
         21    1    1    2  503  501 -0.53367166088E+02  0.13071467992E+03 -0.14299339021E+04  0.14368873812E+04  0.00000000000E+00 0. -1.
         21    1    1    2  504  502 -0.19790621541E+02 -0.11840616474E+03 -0.35243134858E+03  0.37231645681E+03  0.00000000000E+00 0. -1.
         21    1    1    2  505  504  0.16848225793E+03 -0.28093240239E+02 -0.11056896671E+03  0.20347235139E+03  0.00000000000E+00 0. -1.
         -4    1    1    2    0  505 -0.95324470296E+02  0.15784725059E+02  0.48259245062E+02  0.10800401343E+03  0.00000000000E+00 0. -1.
<scales pt_clust_3="14000.00000" pt_clust_4="132.08736" pt_clust_5="95.84260" pt_clust_6="96.62252"></scales>
<clustering>
<clus scale="   96.623">  1  6  2 -1</clus>
<clus scale="   95.843">  1  5  2 -1</clus>
<clus scale="  132.087">  1  4  2 -1</clus>
<clus scale="  132.087">  2  3  1 -1</clus>
</clustering>
</event>
<event>
 6    0  0.1361744E+002  0.8215903E+02  0.7546771E-02  0.1323034E+00
         21   -1    0    0  503  502  0.00000000000E+00  0.00000000000E+00  0.82638485565E+02  0.82638485565E+02  0.00000000000E+00 0.  1.
          2   -1    0    0  502    0 -0.00000000000E+00 -0.00000000000E+00 -0.21332486090E+04  0.21332486090E+04  0.00000000000E+00 0.  1.
         21    1    1    2  503  505 -0.38883862324E+02  0.31594235471E+02 -0.10485649897E+02  0.51186905728E+02  0.00000000000E+00 0. -1.
         21    1    1    2  504  501  0.14047657984E+02  0.53214161349E+02 -0.37683606554E+03  0.38083395851E+03  0.00000000000E+00 0. -1.
         21    1    1    2  505  504  0.20085741736E+02 -0.11555791814E+03  0.29594793289E+01  0.11732786534E+03  0.00000000000E+00 0.  1.
          2    1    1    2  501    0  0.47504626033E+01  0.30749521324E+02 -0.16662478874E+04  0.16665383650E+04  0.00000000000E+00 0.  1.
<scales pt_clust_3="51.16943" pt_clust_4="82.15903" pt_clust_5="14000.00000" pt_clust_6="31.11430"></scales>
<clustering>
<clus scale="   31.114">  2  6  1 -1</clus>
<clus scale="   51.169">  1  3  2 -1</clus>
<clus scale="   82.159">  2  4  1 -1</clus>
<clus scale="   51.169">  1  3  2 -1</clus>
</clustering>
</event>
<event>
 6    0  0.1361744E+002  0.1313079E+03  0.7546771E-02  0.1225528E+00
          2   -1    0    0  503    0 -0.00000000000E+00  0.00000000000E+00  0.14035556273E+04  0.14035556273E+04  0.00000000000E+00 0. -1.
         21   -1    0    0  505  502  0.00000000000E+00 -0.00000000000E+00 -0.11627590084E+04  0.11627590084E+04  0.00000000000E+00 0. -1.
         21    1    1    2  503  504  0.37925221277E+01  0.43455552591E+02  0.11175223126E+03  0.11996386734E+03  0.00000000000E+00 0. -1.
         21    1    1    2  504  502  0.20267397552E+02 -0.11644336266E+03 -0.87472048988E+03  0.88266967747E+03  0.00000000000E+00 0. -1.
         21    1    1    2  505  501 -0.54193793761E+02 -0.10860299484E+02 -0.27566560297E+03  0.28115198389E+03  0.00000000000E+00 0.  1.
          2    1    1    2  501    0  0.30133874081E+02  0.83848109558E+02  0.12794304805E+04  0.12825291070E+04  0.00000000000E+00 0. -1.
<scales pt_clust_3="43.62073" pt_clust_4="131.30789" pt_clust_5="55.24523" pt_clust_6="14000.00000"></scales>
<clustering>
<clus scale="   43.621">  1  3  2 -1</clus>
<clus scale="   55.245">  2  5  1 -1</clus>
<clus scale="  131.308">  2  4  1 -1</clus>
<clus scale="   55.245">  2  3  1 -1</clus>
</clustering>
</event>
<event>
 6    0  0.1361744E+002  0.1512517E+03  0.7546771E-02  0.1198943E+00
         21   -1    0    0  504  502  0.00000000000E+00  0.00000000000E+00  0.10218899779E+03  0.10218899779E+03  0.00000000000E+00 0. -1.
          2   -1    0    0  503    0 -0.00000000000E+00 -0.00000000000E+00 -0.70375372442E+03  0.70375372442E+03  0.00000000000E+00 0.  1.
         21    1    1    2  503  505  0.45249428621E+02 -0.60263730739E+02 -0.34699128216E+03  0.35508052316E+03  0.00000000000E+00 0.  1.
         21    1    1    2  504  501 -0.14356025651E+03  0.57068780013E+02 -0.54447383003E+01  0.15458343403E+03  0.00000000000E+00 0. -1.
         21    1    1    2  505  502 -0.10421590425E+02  0.36037628427E+02 -0.25206692038E+02  0.45196211491E+02  0.00000000000E+00 0.  1.
          2    1    1    2  501    0  0.10873241831E+03 -0.32842677700E+02 -0.22392201413E+03  0.25108255352E+03  0.00000000000E+00 0.  1.
<scales pt_clust_3="73.82416" pt_clust_4="151.25168" pt_clust_5="37.51427" pt_clust_6="14000.00000"></scales>
<clustering>
<clus scale="   37.514">  1  5  2 -1</clus>
<clus scale="   73.824">  2  3  1 -1</clus>
<clus scale="  151.252">  1  4  2 -1</clus>
<clus scale="   37.514">  1  3  2 -1</clus>
</clustering>
</event>
<event>
 6    0  0.1361744E+002  0.8071460E+02  0.7546771E-02  0.1327036E+00
          1   -1    0    0  503    0 -0.00000000000E+00  0.00000000000E+00  0.11447384111E+04  0.11447384111E+04  0.00000000000E+00 0.  1.
         21   -1    0    0  505  502  0.00000000000E+00 -0.00000000000E+00 -0.76500576097E+03  0.76500576097E+03  0.00000000000E+00 0. -1.
         21    1    1    2  503  504  0.51558534694E+01 -0.42966071060E+02  0.87879592566E+02  0.97956566278E+02  0.00000000000E+00 0. -1.
         21    1    1    2  504  502  0.40499474678E+02  0.26277611729E+01 -0.24379517189E+02  0.47344201718E+02  0.00000000000E+00 0. -1.
         21    1    1    2  505  501 -0.31886926624E+00 -0.72251274056E+02 -0.71874787636E+03  0.72237030535E+03  0.00000000000E+00 0. -1.
          1    1    1    2  501    0 -0.45336458881E+02  0.11258958394E+03  0.10349804511E+04  0.10420730988E+04  0.00000000000E+00 0.  1.
<scales pt_clust_3="43.29053" pt_clust_4="40.58463" pt_clust_5="14000.00000" pt_clust_6="80.71460"></scales>
<clustering>
<clus scale="   40.585">  2  4  1 -1</clus>
<clus scale="   43.291">  1  3  2 -1</clus>
<clus scale="   80.715">  1  6  2 -1</clus>
<clus scale="   40.585">  2  3  1 -1</clus>
</clustering>
</event>
<event>
 6    0  0.1361744E+002  0.7216447E+02  0.7546771E-02  0.1352884E+00
         21   -1    0    0  503  502  0.00000000000E+00  0.00000000000E+00  0.85428846089E+02  0.85428846089E+02  0.00000000000E+00 0. -1.
          2   -1    0    0  504    0 -0.00000000000E+00 -0.00000000000E+00 -0.49070013906E+03  0.49070013906E+03  0.00000000000E+00 0. -1.
         21    1    1    2  503  501  0.30966016479E+02 -0.67841514413E+01  0.29213454071E+01  0.31834778880E+02  0.00000000000E+00 0.  1.
         21    1    1    2  504  505 -0.22685798419E+02 -0.60154762051E+02 -0.20099601252E+03  0.21102757615E+03  0.00000000000E+00 0.  1.
         21    1    1    2  505  502 -0.83363076643E+02  0.85244012918E+01  0.20696076742E+02  0.86315673879E+02  0.00000000000E+00 0. -1.
          2    1    1    2  501    0  0.75082858583E+02  0.58414512200E+02 -0.22789270260E+03  0.24695095624E+03  0.00000000000E+00 0. -1.
<scales pt_clust_3="31.70046" pt_clust_4="72.16447" pt_clust_5="59.10178" pt_clust_6="14000.00000"></scales>
<clustering>
<clus scale="   31.700">  1  3  2 -1</clus>
<clus scale="   59.102">  1  5  2 -1</clus>
<clus scale="   72.164">  2  4  1 -1</clus>
<clus scale="   31.700">  1  3  2 -1</clus>
</clustering>
</event>
<event>
 6    0  0.1361744E+002  0.1588936E+03  0.7546771E-02  0.1189952E+00
          1   -1    0    0  504    0 -0.00000000000E+00  0.00000000000E+00  0.16209174426E+03  0.16209174426E+03  0.00000000000E+00 0. -1.
         21   -1    0    0  501  502  0.00000000000E+00 -0.00000000000E+00 -0.90951824889E+03  0.90951824889E+03  0.00000000000E+00 0.  1.
         21    1    1    2  503  502 -0.77700885658E+02 -0.19615316679E+02 -0.39570782238E+03  0.40374109151E+03  0.00000000000E+00 0.  1.
         21    1    1    2  504  505 -0.22806094799E+02  0.98368581328E+02  0.38110616828E+02  0.10793013883E+03  0.00000000000E+00 0. -1.
         21    1    1    2  505  503 -0.65007070596E+02 -0.47266405195E+02 -0.38297377107E+03  0.39131693244E+03  0.00000000000E+00 0.  1.
          1    1    1    2  501    0  0.16551405105E+03 -0.31486859454E+02 -0.68555280104E+01  0.16862183037E+03  0.00000000000E+00 0. -1.
<scales pt_clust_3="30.50858" pt_clust_4="100.97770" pt_clust_5="30.50858" pt_clust_6="155.92841"></scales>
<clustering>
<clus scale="   30.509">  3  5 -1 -1</clus>
<clus scale="  100.978">  1  4  2 -1</clus>
<clus scale="  155.928">  1  6  2 -1</clus>
<clus scale="  158.894">  2  3  1 -1</clus>
</clustering>
</event>
<event>
 6    0  0.1361744E+002  0.2316658E+03  0.7546771E-02  0.1125473E+00
         -1   -1    0    0    0  501 -0.00000000000E+00  0.00000000000E+00  0.63152663254E+02  0.63152663254E+02  0.00000000000E+00 0.  1.
         21   -1    0    0  503  502  0.00000000000E+00 -0.00000000000E+00 -0.82200480047E+03  0.82200480047E+03  0.00000000000E+00 0.  1.
         21    1    1    2  503  504 -0.40452125222E+02 -0.54750706271E+02 -0.69378216760E+02  0.97197485734E+02  0.00000000000E+00 0.  1.
         21    1    1    2  504  501 -0.60091160964E+02 -0.13667425369E+03 -0.28981744192E+03  0.32601372500E+03  0.00000000000E+00 0.  1.
         21    1    1    2  505  502  0.27656844159E+02  0.37041268738E+02 -0.16757468607E+03  0.17383392082E+03  0.00000000000E+00 0.  1.
         -1    1    1    2    0  505  0.72886442027E+02  0.15438369123E+03 -0.23208179246E+03  0.28811233216E+03  0.00000000000E+00 0.  1.
<scales pt_clust_3="38.98736" pt_clust_4="223.79948" pt_clust_5="43.27597" pt_clust_6="43.27597"></scales>
<clustering>
<clus scale="   38.987">  3  4 -1 -1</clus>
<clus scale="   43.276">  5  6 -1 -1</clus>
<clus scale="  223.799">  1  3  2 -1</clus>
<clus scale="  231.666">  2  3  1 -1</clus>
</clustering>
</event>
<event>
 6    0  0.1361744E+002  0.1495001E+03  0.7546771E-02  0.1201089E+00
          2   -1    0    0  505    0 -0.00000000000E+00  0.00000000000E+00  0.24598590056E+03  0.24598590056E+03  0.00000000000E+00 0.  1.
         21   -1    0    0  503  502  0.00000000000E+00 -0.00000000000E+00 -0.42987681832E+03  0.42987681832E+03  0.00000000000E+00 0. -1.
         21    1    1    2  503  504  0.16407301175E+02 -0.25637982839E+02 -0.10690674221E+03  0.11115555418E+03  0.00000000000E+00 0. -1.
         21    1    1    2  504  501  0.11433341068E+03 -0.81419561301E+01 -0.26108235361E+03  0.28513578451E+03  0.00000000000E+00 0. -1.
         21    1    1    2  505  502  0.37397537962E+02  0.26138336138E+01  0.48685831570E+02  0.61446872723E+02  0.00000000000E+00 0.  1.
          2    1    1    2  501    0 -0.16813824981E+03  0.31166105355E+02  0.13541234648E+03  0.21812450746E+03  0.00000000000E+00 0.  1.
<scales pt_clust_3="30.03312" pt_clust_4="30.03312" pt_clust_5="37.48877" pt_clust_6="137.67229"></scales>
<clustering>
<clus scale="   30.033">  3  4 -1 -1</clus>
<clus scale="   37.489">  1  5  2 -1</clus>
<clus scale="  137.672">  1  6  2 -1</clus>
<clus scale="  149.500">  2  3  1 -1</clus>
</clustering>
</event>
<event>
 6    0  0.1361744E+002  0.2240227E+03  0.7546771E-02  0.1130919E+00
         21   -1    0    0  503  502  0.00000000000E+00  0.00000000000E+00  0.58987855885E+03  0.58987855885E+03  0.00000000000E+00 0.  1.
          2   -1    0    0  504    0 -0.00000000000E+00 -0.00000000000E+00 -0.10761590263E+04  0.10761590263E+04  0.00000000000E+00 0. -1.
         21    1    1    2  503  505 -0.58301484959E+02 -0.17617028145E+03  0.53159894534E+03  0.56305636476E+03  0.00000000000E+00 0.  1.
         21    1    1    2  504  502 -0.37366776935E+00 -0.32710471158E+02  0.21794256029E+02  0.39307812796E+02  0.00000000000E+00 0. -1.
         21    1    1    2  505  501  0.28961135074E+02  0.17036862756E+03 -0.87780212649E+03  0.89465121130E+03  0.00000000000E+00 0. -1.
          2    1    1    2  501    0  0.29714017654E+02  0.38512125039E+02 -0.16187154232E+03  0.16902219628E+03  0.00000000000E+00 0. -1.
<scales pt_clust_3="216.28759" pt_clust_4="32.71261" pt_clust_5="30.96227" pt_clust_6="30.96227"></scales>
<clustering>
<clus scale="   30.962">  5  6 -1 -1</clus>
<clus scale="   32.713">  1  4  2 -1</clus>
<clus scale="  216.288">  1  3  2 -1</clus>
<clus scale="   32.713">  1  3  2 -1</clus>
</clustering>
</event>
<event>
 6    0  0.1361744E+002  0.1063024E+03  0.7546771E-02  0.1267575E+00
          1   -1    0    0  503    0 -0.00000000000E+00  0.00000000000E+00  0.11852082735E+04  0.11852082735E+04  0.00000000000E+00 0. -1.
         21   -1    0    0  505  502  0.00000000000E+00 -0.00000000000E+00 -0.15840034894E+03  0.15840034894E+03  0.00000000000E+00 0. -1.
         21    1    1    2  503  504  0.30245918570E+02 -0.39728516601E+00  0.63521162260E+03  0.63593142627E+03  0.00000000000E+00 0. -1.
         21    1    1    2  504  502 -0.36578510290E+02  0.85098781786E+02  0.38204755438E+02  0.10019677347E+03  0.00000000000E+00 0. -1.
         21    1    1    2  505  501 -0.45349265762E+02 -0.54405663642E+01 -0.11808088206E+03  0.12660667588E+03  0.00000000000E+00 0. -1.
          1    1    1    2  501    0  0.51681857482E+02 -0.79260930256E+02  0.47147242858E+03  0.48087374681E+03  0.00000000000E+00 0. -1.
<scales pt_clust_3="30.24853" pt_clust_4="106.30236" pt_clust_5="45.44192" pt_clust_6="14000.00000"></scales>
<clustering>
<clus scale="   30.249">  1  3  2 -1</clus>
<clus scale="   45.442">  2  5  1 -1</clus>
<clus scale="  106.302">  2  4  1 -1</clus>
<clus scale="   45.442">  2  3  1 -1</clus>
</clustering>
</event>
<event>
 6    0  0.1361744E+002  0.1065145E+03  0.7546771E-02  0.1267164E+00
          1   -1    0    0  503    0 -0.00000000000E+00  0.00000000000E+00  0.18142429169E+04  0.18142429169E+04  0.00000000000E+00 0. -1.
         21   -1    0    0  505  502  0.00000000000E+00 -0.00000000000E+00 -0.23662532228E+03  0.23662532228E+03  0.00000000000E+00 0.  1.
         21    1    1    2  503  502 -0.33483272839E+02 -0.54721985303E+02 -0.18185088325E+03  0.19283508232E+03  0.00000000000E+00 0.  1.
         21    1    1    2  504  501  0.78565339131E+02  0.24941151653E+02  0.19827302604E+02  0.84780277701E+02  0.00000000000E+00 0.  1.
         21    1    1    2  505  504  0.10692718158E+02 -0.61782719504E+02  0.49953707283E+02  0.80167396878E+02  0.00000000000E+00 0. -1.
          1    1    1    2  501    0 -0.55774784450E+02  0.91563553154E+02  0.16896874680E+04  0.16930854823E+04  0.00000000000E+00 0. -1.
<scales pt_clust_3="106.51452" pt_clust_4="81.69194" pt_clust_5="62.70119" pt_clust_6="14000.00000"></scales>
<clustering>
<clus scale="   62.701">  2  5  1 -1</clus>
<clus scale="   81.692">  2  4  1 -1</clus>
<clus scale="  106.515">  2  3  1 -1</clus>
<clus scale="   62.701">  2  3  1 -1</clus>
</clustering>
</event>
<event>
 6    0  0.1361744E+002  0.1464455E+03  0.7546771E-02  0.1204910E+00
         21   -1    0    0  505  502  0.00000000000E+00  0.00000000000E+00  0.75297469862E+02  0.75297469862E+02  0.00000000000E+00 0. -1.
          2   -1    0    0  504    0 -0.00000000000E+00 -0.00000000000E+00 -0.66194194894E+03  0.66194194894E+03  0.00000000000E+00 0.  1.
         21    1    1    2  503  501  0.55623773908E+02  0.44915806541E+02 -0.10943967115E+03  0.13072289594E+03  0.00000000000E+00 0.  1.
         21    1    1    2  504  502 -0.34674519072E+02 -0.47301384498E+02 -0.12505490589E+03  0.13812484474E+03  0.00000000000E+00 0. -1.
         21    1    1    2  505  503 -0.95551095720E+02 -0.85498696718E+02 -0.37958057106E+02  0.13371930726E+03  0.00000000000E+00 0. -1.
          2    1    1    2  501    0  0.74601840884E+02  0.87884274675E+02 -0.31419184493E+03  0.33467237087E+03  0.00000000000E+00 0.  1.
<scales pt_clust_3="39.64696" pt_clust_4="58.64932" pt_clust_5="137.52007" pt_clust_6="39.64696"></scales>
<clustering>
<clus scale="   39.647">  3  6 -1 -1</clus>
<clus scale="   58.649">  2  4  1 -1</clus>
<clus scale="  137.520">  1  5  2 -1</clus>
<clus scale="  137.520">  1  3  2 -1</clus>
</clustering>
</event>
<event>
 6    0  0.1361744E+002  0.2880796E+03  0.7546771E-02  0.1091356E+00
          2   -1    0    0  505    0 -0.00000000000E+00  0.00000000000E+00  0.72846453806E+03  0.72846453806E+03  0.00000000000E+00 0.  1.
         21   -1    0    0  504  502  0.00000000000E+00 -0.00000000000E+00 -0.66403729200E+03  0.66403729200E+03  0.00000000000E+00 0. -1.
         21    1    1    2  503  501 -0.31943958322E+02  0.51456159437E+02  0.59794604466E+02  0.85109033249E+02  0.00000000000E+00 0.  1.
         21    1    1    2  504  503  0.13687105387E+02 -0.10497504626E+03 -0.11669669776E+03  0.15756019947E+03  0.00000000000E+00 0. -1.
         21    1    1    2  505  502  0.13487658602E+03 -0.12569556357E+03 -0.47862994449E+03  0.51291099805E+03  0.00000000000E+00 0. -1.
          2    1    1    2  501    0 -0.11661973309E+03  0.17921445039E+03  0.59995928384E+03  0.63692159929E+03  0.00000000000E+00 0.  1.
<scales pt_clust_3="55.24045" pt_clust_4="105.86358" pt_clust_5="268.73205" pt_clust_6="55.24045"></scales>
<clustering>
<clus scale="   55.240">  3  6 -1 -1</clus>
<clus scale="  105.864">  2  4  1 -1</clus>
<clus scale="  268.732">  2  5  1 -1</clus>
<clus scale="  105.864">  2  3  1 -1</clus>
</clustering>
</event>
<event>
 6    0  0.1361744E+002  0.8041341E+02  0.7546771E-02  0.1327882E+00
          2   -1    0    0  505    0 -0.00000000000E+00  0.00000000000E+00  0.30865821790E+04  0.30865821790E+04  0.00000000000E+00 0.  1.
         21   -1    0    0  503  502  0.00000000000E+00 -0.00000000000E+00 -0.15979861537E+03  0.15979861537E+03  0.00000000000E+00 0.  1.
         21    1    1    2  503  501 -0.82315523620E+02 -0.61872834886E+01 -0.10751697931E+03  0.13555083455E+03  0.00000000000E+00 0.  1.
         21    1    1    2  504  502  0.70406159506E+02 -0.64537464028E+02  0.25359514548E+02  0.98819110184E+02  0.00000000000E+00 0.  1.
         21    1    1    2  505  504  0.30770486637E+02  0.80162488820E+01  0.21849973887E+03  0.22080131109E+03  0.00000000000E+00 0. -1.
          2    1    1    2  501    0 -0.18861122523E+02  0.62708498635E+02  0.27904412896E+04  0.27912095386E+04  0.00000000000E+00 0.  1.
<scales pt_clust_3="14000.00000" pt_clust_4="80.41341" pt_clust_5="31.79753" pt_clust_6="71.37912"></scales>
<clustering>
<clus scale="   31.798">  1  5  2 -1</clus>
<clus scale="   71.379">  1  6  2 -1</clus>
<clus scale="   80.413">  1  4  2 -1</clus>
<clus scale="   80.413">  2  3  1 -1</clus>
</clustering>
</event>
<event>
 6    0  0.1361744E+002  0.8858508E+02  0.7546771E-02  0.1306315E+00
         21   -1    0    0  503  502  0.00000000000E+00  0.00000000000E+00  0.33400058804E+03  0.33400058804E+03  0.00000000000E+00 0. -1.
          4   -1    0    0  505    0 -0.00000000000E+00 -0.00000000000E+00 -0.66155429530E+03  0.66155429530E+03  0.00000000000E+00 0.  1.
         21    1    1    2  503  504  0.10227606928E+02 -0.38143812837E+02  0.21673678423E+03  0.22030521565E+03  0.00000000000E+00 0. -1.
         21    1    1    2  504  501  0.91649204939E+02  0.78284581736E+01 -0.37313183194E+02  0.99262959675E+02  0.00000000000E+00 0.  1.
         21    1    1    2  505  502 -0.27502692889E+02 -0.20959533402E+02  0.77344933612E+02  0.84722717803E+02  0.00000000000E+00 0.  1.
          4    1    1    2  501    0 -0.74374118978E+02  0.51274888065E+02 -0.58432224192E+03  0.59126399021E+03  0.00000000000E+00 0.  1.
<scales pt_clust_3="57.85372" pt_clust_4="88.58508" pt_clust_5="34.57890" pt_clust_6="14000.00000"></scales>
<clustering>
<clus scale="   34.579">  1  5  2 -1</clus>
<clus scale="   57.854">  1  3  2 -1</clus>
<clus scale="   88.585">  1  4  2 -1</clus>
<clus scale="   34.579">  1  3  2 -1</clus>
</clustering>
</event>
<event>
 6    0  0.1361744E+002  0.9355391E+02  0.7546771E-02  0.1294467E+00
          1   -1    0    0  505    0 -0.00000000000E+00  0.00000000000E+00  0.29097206411E+04  0.29097206411E+04  0.00000000000E+00 0. -1.
         21   -1    0    0  504  502  0.00000000000E+00 -0.00000000000E+00 -0.13274338603E+02  0.13274338603E+02  0.00000000000E+00 0.  1.
         21    1    1    2  503  501 -0.95306782283E+02 -0.53015071714E+02  0.37456464481E+03  0.39011876873E+03  0.00000000000E+00 0.  1.
         21    1    1    2  504  503  0.61298819702E+02  0.50834643925E+02  0.35774379682E+03  0.36650010980E+03  0.00000000000E+00 0. -1.
         21    1    1    2  505  502  0.54868240659E+02 -0.24932683540E+02  0.10630909617E+04  0.10647978942E+04  0.00000000000E+00 0. -1.
          1    1    1    2  501    0 -0.20860278077E+02  0.27113111329E+02  0.11010468991E+04  0.11015782070E+04  0.00000000000E+00 0. -1.
<scales pt_clust_3="14000.00000" pt_clust_4="93.55391" pt_clust_5="43.53201" pt_clust_6="34.20924"></scales>
<clustering>
<clus scale="   34.209">  1  6  2 -1</clus>
<clus scale="   43.532">  1  5  2 -1</clus>
<clus scale="   93.554">  2  4  1 -1</clus>
<clus scale="   93.554">  2  3  1 -1</clus>
</clustering>
</event>
<event>
 6    0  0.1361744E+002  0.1029560E+03  0.7546771E-02  0.1274200E+00
         21   -1    0    0  504  502  0.00000000000E+00  0.00000000000E+00  0.15244770012E+02  0.15244770012E+02  0.00000000000E+00 0.  1.
          1   -1    0    0  505    0 -0.00000000000E+00 -0.00000000000E+00 -0.18585455706E+04  0.18585455706E+04  0.00000000000E+00 0.  1.
         21    1    1    2  503  502  0.49922091294E+02  0.16366581961E+02 -0.16342596301E+03  0.17166282530E+03  0.00000000000E+00 0.  1.
         21    1    1    2  504  501  0.11389927638E+02  0.41641710989E+02 -0.50243458410E+03  0.50428590486E+03  0.00000000000E+00 0.  1.
         21    1    1    2  505  503 -0.29436916455E+02 -0.10638342287E+03 -0.32107321671E+03  0.33951726789E+03  0.00000000000E+00 0.  1.
          1    1    1    2  501    0 -0.31875102476E+02  0.48375129917E+02 -0.85636703676E+03  0.85832434255E+03  0.00000000000E+00 0.  1.
<scales pt_clust_3="52.53647" pt_clust_4="37.05109" pt_clust_5="93.58297" pt_clust_6="37.05109"></scales>
<clustering>
<clus scale="   37.051">  4  6 -1 -1</clus>
<clus scale="   52.536">  1  3  2 -1</clus>
<clus scale="   93.583">  1  5  2 -1</clus>
<clus scale="   52.536">  1  3  2 -1</clus>
</clustering>
</event>
<event>
 6    0  0.1361744E+002  0.1419978E+03  0.7546771E-02  0.1210666E+00
         21   -1    0    0  505  502  0.00000000000E+00  0.00000000000E+00  0.53474897470E+03  0.53474897470E+03  0.00000000000E+00 0. -1.
         -1   -1    0    0    0  501 -0.00000000000E+00 -0.00000000000E+00 -0.47831277125E+03  0.47831277125E+03  0.00000000000E+00 0.  1.
         21    1    1    2  503  501  0.42189747298E+01 -0.68131461729E+02 -0.14641243278E+03  0.16154348113E+03  0.00000000000E+00 0. -1.
         21    1    1    2  504  502 -0.49076407082E+02  0.71257262811E+02  0.42911090795E+03  0.43774680188E+03  0.00000000000E+00 0. -1.
         21    1    1    2  505  503 -0.46064008924E+02  0.42531115376E+02  0.73854832282E+02  0.96877886768E+02  0.00000000000E+00 0. -1.
         -1    1    1    2    0  504  0.90921441276E+02 -0.45656916458E+02 -0.30011710400E+03  0.31689357617E+03  0.00000000000E+00 0.  1.
<scales pt_clust_3="67.50332" pt_clust_4="141.99782" pt_clust_5="62.69600" pt_clust_6="14000.00000"></scales>
<clustering>
<clus scale="   62.696">  1  5  2 -1</clus>
<clus scale="   67.503">  2  3  1 -1</clus>
<clus scale="  141.998">  1  4  2 -1</clus>
<clus scale="   62.696">  1  3  2 -1</clus>
</clustering>
</event>
<event>
 6    0  0.1361744E+002  0.1088782E+03  0.7546771E-02  0.1262662E+00
          2   -1    0    0  505    0 -0.00000000000E+00  0.00000000000E+00  0.71182229758E+03  0.71182229758E+03  0.00000000000E+00 0. -1.
         21   -1    0    0  501  502  0.00000000000E+00 -0.00000000000E+00 -0.37306024585E+02  0.37306024585E+02  0.00000000000E+00 0. -1.
         21    1    1    2  503  504  0.50756953534E+02 -0.40588206911E+02  0.57328449918E+02  0.86661537271E+02  0.00000000000E+00 0. -1.
         21    1    1    2  504  502  0.29214728252E+02 -0.60079546578E+02  0.96228207288E+02  0.11714486818E+03  0.00000000000E+00 0. -1.
         21    1    1    2  505  503 -0.13767133176E+02  0.55164055503E+02  0.36976124612E+03  0.37410691802E+03  0.00000000000E+00 0. -1.
          2    1    1    2  501    0 -0.66204548609E+02  0.45503697985E+02  0.15119836967E+03  0.17121499869E+03  0.00000000000E+00 0. -1.
<scales pt_clust_3="37.27083" pt_clust_4="37.27083" pt_clust_5="56.85602" pt_clust_6="102.11031"></scales>
<clustering>
<clus scale="   37.271">  3  4 -1 -1</clus>
<clus scale="   56.856">  1  5  2 -1</clus>
<clus scale="  102.110">  2  6  1 -1</clus>
<clus scale="  102.110">  2  3  1 -1</clus>
</clustering>
</event>
<event>
 6    0  0.1361744E+002  0.1318887E+03  0.7546771E-02  0.1224680E+00
          2   -1    0    0  504    0 -0.00000000000E+00  0.00000000000E+00  0.99654400762E+03  0.99654400762E+03  0.00000000000E+00 0. -1.
         21   -1    0    0  503  502  0.00000000000E+00 -0.00000000000E+00 -0.78492609455E+03  0.78492609455E+03  0.00000000000E+00 0. -1.
         21    1    1    2  503  505 -0.75939073436E+02 -0.84618372054E+01 -0.67966591108E+03  0.68394743675E+03  0.00000000000E+00 0. -1.
         21    1    1    2  504  502  0.56944222532E+01  0.48127205557E+02  0.35032079009E+03  0.35365705186E+03  0.00000000000E+00 0. -1.
         21    1    1    2  505  501 -0.42396538534E+02  0.77386849964E+02 -0.69395997616E+02  0.11225860997E+03  0.00000000000E+00 0. -1.
          2    1    1    2  501    0  0.11264118972E+03 -0.11705221832E+03  0.61035903168E+03  0.63160700359E+03  0.00000000000E+00 0. -1.
<scales pt_clust_3="76.37273" pt_clust_4="48.46292" pt_clust_5="14000.00000" pt_clust_6="131.88875"></scales>
<clustering>
<clus scale="   48.463">  1  4  2 -1</clus>
<clus scale="   76.373">  2  3  1 -1</clus>
<clus scale="  131.889">  1  6  2 -1</clus>
<clus scale="   76.373">  2  3  1 -1</clus>
</clustering>
</event>
<event>
 6    0  0.1361744E+002  0.1971632E+03  0.7546771E-02  0.1152155E+00
          2   -1    0    0  504    0 -0.00000000000E+00  0.00000000000E+00  0.65854752312E+03  0.65854752312E+03  0.00000000000E+00 0.  1.
         21   -1    0    0  505  502  0.00000000000E+00 -0.00000000000E+00 -0.35686644842E+03  0.35686644842E+03  0.00000000000E+00 0. -1.
         21    1    1    2  503  501  0.55627739596E+02  0.90328446217E+02  0.24564515381E+03  0.26757282224E+03  0.00000000000E+00 0.  1.
         21    1    1    2  504  502  0.31289907120E+02 -0.79379845158E+01  0.33503548013E+02  0.46524806450E+02  0.00000000000E+00 0.  1.
         21    1    1    2  505  503 -0.12232591024E+03 -0.14349032749E+03 -0.30919654538E+03  0.36215411923E+03  0.00000000000E+00 0. -1.
          2    1    1    2  501    0  0.35408263520E+02  0.61099865790E+02  0.33172891826E+03  0.33916222362E+03  0.00000000000E+00 0.  1.
<scales pt_clust_3="49.73700" pt_clust_4="32.28111" pt_clust_5="187.94899" pt_clust_6="49.73700"></scales>
<clustering>
<clus scale="   32.281">  1  4  2 -1</clus>
<clus scale="   49.737">  3  6 -1 -1</clus>
<clus scale="  187.949">  2  5  1 -1</clus>
<clus scale="  187.949">  2  3  1 -1</clus>
</clustering>
</event>
<event>
 6    0  0.1361744E+002  0.1953437E+03  0.7546771E-02  0.1153728E+00
         21   -1    0    0  504  502  0.00000000000E+00  0.00000000000E+00  0.28918793420E+02  0.28918793420E+02  0.00000000000E+00 0.  1.
          2   -1    0    0  502    0 -0.00000000000E+00 -0.00000000000E+00 -0.13215342178E+04  0.13215342178E+04  0.00000000000E+00 0.  1.
         21    1    1    2  503  501  0.35147528201E+02  0.44782358407E+02 -0.36579130032E+03  0.37019465657E+03  0.00000000000E+00 0. -1.
         21    1    1    2  504  505 -0.84595874112E+02 -0.84700559612E+02 -0.28561850879E+03  0.30969110300E+03  0.00000000000E+00 0.  1.
         21    1    1    2  505  503 -0.63454005606E+02 -0.22176760154E+02 -0.23383631604E+03  0.24330565595E+03  0.00000000000E+00 0.  1.
          2    1    1    2  501    0  0.11290235152E+03  0.62094961358E+02 -0.40736929926E+03  0.42726159573E+03  0.00000000000E+00 0.  1.
<scales pt_clust_3="46.13551" pt_clust_4="189.66312" pt_clust_5="38.43266" pt_clust_6="46.13551"></scales>
<clustering>
<clus scale="   38.433">  4  5 -1 -1</clus>
<clus scale="   46.136">  3  6 -1 -1</clus>
<clus scale="  189.663">  1  4  2 -1</clus>
<clus scale="  189.663">  1  3  2 -1</clus>
</clustering>
</event>
<event>
 6    0  0.1361744E+002  0.1531703E+03  0.7546771E-02  0.1196631E+00
         21   -1    0    0  504  502  0.00000000000E+00  0.00000000000E+00  0.92911183189E+03  0.92911183189E+03  0.00000000000E+00 0.  1.
         -2   -1    0    0    0  501 -0.00000000000E+00 -0.00000000000E+00 -0.43362117568E+03  0.43362117568E+03  0.00000000000E+00 0.  1.
         21    1    1    2  503  502 -0.60152405083E+02 -0.12144439251E+03  0.73544907393E+03  0.74783179436E+03  0.00000000000E+00 0.  1.
         21    1    1    2  504  505 -0.70653568745E+02  0.28549827190E+02  0.15320011298E+03  0.17110608998E+03  0.00000000000E+00 0. -1.
         21    1    1    2  505  501  0.97359703565E+02  0.56333432580E+02 -0.11355458914E+03  0.15983432741E+03  0.00000000000E+00 0. -1.
         -2    1    1    2    0  503  0.33446270263E+02  0.36561132738E+02 -0.27960394157E+03  0.28396079582E+03  0.00000000000E+00 0.  1.
<scales pt_clust_3="14000.00000" pt_clust_4="75.23281" pt_clust_5="153.17028" pt_clust_6="49.55168"></scales>
<clustering>
<clus scale="   49.552">  2  6  1 -1</clus>
<clus scale="   75.233">  1  4  2 -1</clus>
<clus scale="  153.170">  2  5  1 -1</clus>
<clus scale="   75.233">  1  3  2 -1</clus>
</clustering>
</event>
<event>
 6    0  0.1361744E+002  0.1062874E+03  0.7546771E-02  0.1267604E+00
         21   -1    0    0  505  502  0.00000000000E+00  0.00000000000E+00  0.25726342300E+03  0.25726342300E+03  0.00000000000E+00 0.  1.
          2   -1    0    0  503    0 -0.00000000000E+00 -0.00000000000E+00 -0.34058998101E+04  0.34058998101E+04  0.00000000000E+00 0.  1.
         21    1    1    2  503  504  0.22105987821E+02 -0.75796072166E+02 -0.16712475495E+04  0.16731114998E+04  0.00000000000E+00 0. -1.
         21    1    1    2  504  502 -0.70772320338E+02  0.91647656945E+02  0.14030060072E+03  0.18191281679E+03  0.00000000000E+00 0.  1.
         21    1    1    2  505  501 -0.36328304330E+02 -0.81341892967E+02  0.72308709856E+02  0.11473795696E+03  0.00000000000E+00 0.  1.
          2    1    1    2  501    0  0.84994636847E+02  0.65490308188E+02 -0.16899981483E+04  0.16934009596E+04  0.00000000000E+00 0.  1.
<scales pt_clust_3="78.95391" pt_clust_4="14000.00000" pt_clust_5="89.82435" pt_clust_6="106.28738"></scales>
<clustering>
<clus scale="   78.954">  2  3  1 -1</clus>
<clus scale="   89.824">  1  5  2 -1</clus>
<clus scale="  106.287">  2  6  1 -1</clus>
<clus scale="   89.824">  1  3  2 -1</clus>
</clustering>
</event>
<event>
 6    0  0.1361744E+002  0.8874254E+02  0.7546771E-02  0.1305926E+00
         21   -1    0    0  503  502  0.00000000000E+00  0.00000000000E+00  0.10794043481E+03  0.10794043481E+03  0.00000000000E+00 0.  1.
          2   -1    0    0  504    0 -0.00000000000E+00 -0.00000000000E+00 -0.97732477524E+03  0.97732477524E+03  0.00000000000E+00 0.  1.
         21    1    1    2  503  501 -0.37016952172E+02  0.10806769011E+03 -0.12903652088E+02  0.11495818644E+03  0.00000000000E+00 0.  1.
         21    1    1    2  504  505  0.36323333094E+02  0.47127746140E+02 -0.18970608657E+03  0.19881853099E+03  0.00000000000E+00 0.  1.
         21    1    1    2  505  502  0.37682669316E+02 -0.67335041653E+02  0.18717281194E+02  0.79399798593E+02  0.00000000000E+00 0.  1.
          2    1    1    2  501    0 -0.36989050238E+02 -0.87860394594E+02 -0.68549188297E+03  0.69208869402E+03  0.00000000000E+00 0.  1.
<scales pt_clust_3="14000.00000" pt_clust_4="59.50134" pt_clust_5="88.74254" pt_clust_6="46.67905"></scales>
<clustering>
<clus scale="   59.501">  2  4  1 -1</clus>
<clus scale="   46.679">  2  6  1 -1</clus>
<clus scale="   88.743">  1  5  2 -1</clus>
<clus scale="   88.743">  1  3  2 -1</clus>
</clustering>
</event>
<event>
 6    0  0.1361744E+002  0.1854000E+03  0.7546771E-02  0.1162677E+00
         21   -1    0    0  503  502  0.00000000000E+00  0.00000000000E+00  0.20481848359E+03  0.20481848359E+03  0.00000000000E+00 0.  1.
          2   -1    0    0  505    0 -0.00000000000E+00 -0.00000000000E+00 -0.91178304111E+03  0.91178304111E+03  0.00000000000E+00 0.  1.
         21    1    1    2  503  504  0.12586399288E+03  0.20697769524E+02  0.14406172483E+03  0.19241601526E+03  0.00000000000E+00 0.  1.
         21    1    1    2  504  501 -0.11979368628E+03 -0.36882474859E+01 -0.63923318735E+03  0.65037158475E+03  0.00000000000E+00 0.  1.
         21    1    1    2  505  502  0.55809246180E+02 -0.11764711059E+01 -0.34818266283E+01  0.55930127482E+02  0.00000000000E+00 0.  1.
          2    1    1    2  501    0 -0.61879552785E+02 -0.15833050932E+02 -0.20831126837E+03  0.21788379721E+03  0.00000000000E+00 0.  1.
<scales pt_clust_3="179.50933" pt_clust_4="33.84647" pt_clust_5="55.82164" pt_clust_6="33.84647"></scales>
<clustering>
<clus scale="   33.846">  4  6 -1 -1</clus>
<clus scale="   55.822">  1  5  2 -1</clus>
<clus scale="  179.509">  1  3  2 -1</clus>
<clus scale="   55.822">  1  3  2 -1</clus>
</clustering>
</event>
<event>
 6    0  0.1361744E+002  0.1190031E+03  0.7546771E-02  0.1244751E+00
         21   -1    0    0  505  502  0.00000000000E+00  0.00000000000E+00  0.17173636874E+04  0.17173636874E+04  0.00000000000E+00 0. -1.
          4   -1    0    0  504    0 -0.00000000000E+00 -0.00000000000E+00 -0.96972934361E+02  0.96972934361E+02  0.00000000000E+00 0.  1.
         21    1    1    2  503  502 -0.84568224598E+01  0.11813723669E+03  0.15061442731E+04  0.15107939952E+04  0.00000000000E+00 0. -1.
         21    1    1    2  504  503 -0.39452225663E+02  0.44235392435E+02  0.10491091586E+03  0.12049708843E+03  0.00000000000E+00 0.  1.
         21    1    1    2  505  501  0.45860434514E+02 -0.12871671565E+03  0.34549365027E+02  0.14094265133E+03  0.00000000000E+00 0.  1.
          4    1    1    2  501    0  0.20486136087E+01 -0.33655913476E+02 -0.25213800865E+02  0.42102886881E+02  0.00000000000E+00 0.  1.
<scales pt_clust_3="119.00308" pt_clust_4="56.07212" pt_clust_5="14000.00000" pt_clust_6="33.71820"></scales>
<clustering>
<clus scale="   33.718">  2  6  1 -1</clus>
<clus scale="   56.072">  2  4  1 -1</clus>
<clus scale="  119.003">  1  3  2 -1</clus>
<clus scale="  119.003">  1  3  2 -1</clus>
</clustering>
</event>
<event>
 6    0  0.1361744E+002  0.1673860E+03  0.7546771E-02  0.1180602E+00
         21   -1    0    0  503  502  0.00000000000E+00  0.00000000000E+00  0.19651133035E+03  0.19651133035E+03  0.00000000000E+00 0.  1.
          2   -1    0    0  504    0 -0.00000000000E+00 -0.00000000000E+00 -0.12664242027E+04  0.12664242027E+04  0.00000000000E+00 0. -1.
         21    1    1    2  503  501 -0.25058418873E+02 -0.20615088863E+03  0.42432288623E+02  0.21195898744E+03  0.00000000000E+00 0.  1.
         21    1    1    2  504  505  0.28615878064E+02 -0.97774297886E+01 -0.11205348497E+03  0.11606226822E+03  0.00000000000E+00 0.  1.
         21    1    1    2  505  502  0.12034314756E+03  0.72073562168E+02 -0.26460780651E+02  0.14274888595E+03  0.00000000000E+00 0.  1.
          2    1    1    2  501    0 -0.12390060675E+03  0.14385475625E+03 -0.97383089532E+03  0.99216539142E+03  0.00000000000E+00 0. -1.
<scales pt_clust_3="14000.00000" pt_clust_4="30.24015" pt_clust_5="141.71870" pt_clust_6="167.38603"></scales>
<clustering>
<clus scale="   30.240">  2  4  1 -1</clus>
<clus scale="  141.719">  1  5  2 -1</clus>
<clus scale="  167.386">  2  6  1 -1</clus>
<clus scale="  141.719">  1  3  2 -1</clus>
</clustering>
</event>
<event>
 6    0  0.1361744E+002  0.9816968E+02  0.7546771E-02  0.1284193E+00
         21   -1    0    0  504  502  0.00000000000E+00  0.00000000000E+00  0.18999719675E+03  0.18999719675E+03  0.00000000000E+00 0.  1.
          2   -1    0    0  503    0 -0.00000000000E+00 -0.00000000000E+00 -0.22884403626E+03  0.22884403626E+03  0.00000000000E+00 0. -1.
         21    1    1    2  503  502 -0.21124239574E+02 -0.23647509438E+02 -0.45340852178E+01  0.32031174330E+02  0.00000000000E+00 0. -1.
         21    1    1    2  504  505  0.40676912312E+02 -0.98333403569E+02  0.12767638818E+03  0.16620869276E+03  0.00000000000E+00 0.  1.
         21    1    1    2  505  501 -0.42413101366E+01  0.76424662108E+02 -0.33751097243E+02  0.83653178392E+02  0.00000000000E+00 0. -1.
          2    1    1    2  501    0 -0.15311362601E+02  0.45556250899E+02 -0.12823804523E+03  0.13694818752E+03  0.00000000000E+00 0. -1.
<scales pt_clust_3="31.70865" pt_clust_4="14000.00000" pt_clust_5="98.16968" pt_clust_6="41.94145"></scales>
<clustering>
<clus scale="   31.709">  2  3  1 -1</clus>
<clus scale="   41.941">  2  6  1 -1</clus>
<clus scale="   98.170">  2  5  1 -1</clus>
<clus scale="   98.170">  1  3  2 -1</clus>
</clustering>
</event>
<event>
 6    0  0.1361744E+002  0.1143863E+03  0.7546771E-02  0.1252656E+00
         21   -1    0    0  503  502  0.00000000000E+00  0.00000000000E+00  0.10938447353E+03  0.10938447353E+03  0.00000000000E+00 0. -1.
          1   -1    0    0  504    0 -0.00000000000E+00 -0.00000000000E+00 -0.47831967360E+03  0.47831967360E+03  0.00000000000E+00 0. -1.
         21    1    1    2  503  505  0.37651383361E+02  0.14539345069E+00  0.29015336346E+02  0.47534593209E+02  0.00000000000E+00 0. -1.
         21    1    1    2  504  502  0.39560333683E+02 -0.29211941430E+02 -0.76533514794E+02  0.90971074578E+02  0.00000000000E+00 0.  1.
         21    1    1    2  505  501 -0.60320468961E+02  0.11798105525E+03 -0.19408949027E+02  0.13392085601E+03  0.00000000000E+00 0. -1.
          1    1    1    2  501    0 -0.16891248084E+02 -0.88914507266E+02 -0.30200807259E+03  0.31527762333E+03  0.00000000000E+00 0. -1.
<scales pt_clust_3="37.65166" pt_clust_4="52.29266" pt_clust_5="14000.00000" pt_clust_6="114.38627"></scales>
<clustering>
<clus scale="   37.652">  1  3  2 -1</clus>
<clus scale="   52.293">  2  4  1 -1</clus>
<clus scale="  114.386">  2  6  1 -1</clus>
<clus scale="   37.652">  1  3  2 -1</clus>
</clustering>
</event>
<event>
 6    0  0.1361744E+002  0.1414191E+03  0.7546771E-02  0.1211432E+00
         21   -1    0    0  504  502  0.00000000000E+00  0.00000000000E+00  0.18896065545E+03  0.18896065545E+03  0.00000000000E+00 0.  1.
          2   -1    0    0  505    0 -0.00000000000E+00 -0.00000000000E+00 -0.12472291589E+04  0.12472291589E+04  0.00000000000E+00 0. -1.
         21    1    1    2  503  501 -0.10189607239E+03  0.67351555014E+02  0.13223454868E+03  0.18001393667E+03  0.00000000000E+00 0.  1.
         21    1    1    2  504  503  0.34794472144E+00  0.36826394212E+02  0.10727348944E+02  0.38358576506E+02  0.00000000000E+00 0.  1.
         21    1    1    2  505  502  0.82482152436E+02 -0.36147776816E+02 -0.10090655564E+04  0.10130761394E+04  0.00000000000E+00 0. -1.
          2    1    1    2  501    0  0.19065975231E+02 -0.68030172410E+02 -0.19216484469E+03  0.20474116173E+03  0.00000000000E+00 0. -1.
<scales pt_clust_3="141.41911" pt_clust_4="36.82804" pt_clust_5="14000.00000" pt_clust_6="69.29990"></scales>
<clustering>
<clus scale="   36.828">  1  4  2 -1</clus>
<clus scale="   69.300">  2  6  1 -1</clus>
<clus scale="  141.419">  1  3  2 -1</clus>
<clus scale="   36.828">  1  3  2 -1</clus>
</clustering>
</event>
<event>
 6    0  0.1361744E+002  0.1253792E+03  0.7546771E-02  0.1234478E+00
          1   -1    0    0  504    0 -0.00000000000E+00  0.00000000000E+00  0.71894774393E+03  0.71894774393E+03  0.00000000000E+00 0. -1.
         21   -1    0    0  503  502  0.00000000000E+00 -0.00000000000E+00 -0.31419701879E+03  0.31419701879E+03  0.00000000000E+00 0. -1.
         21    1    1    2  503  501  0.19351391252E+02 -0.24650593609E+02 -0.76372294509E+01  0.32256090623E+02  0.00000000000E+00 0.  1.
         21    1    1    2  504  505  0.31395618243E+02 -0.60150145373E+02  0.17095301281E+03  0.18392568450E+03  0.00000000000E+00 0.  1.
         21    1    1    2  505  502  0.46027790021E+02  0.13315027137E+03 -0.26445272784E+03  0.29963777713E+03  0.00000000000E+00 0. -1.
          1    1    1    2  501    0 -0.96774799515E+02 -0.48349532392E+02  0.50588766963E+03  0.51732521047E+03  0.00000000000E+00 0. -1.
<scales pt_clust_3="31.33892" pt_clust_4="68.52997" pt_clust_5="14000.00000" pt_clust_6="125.37921"></scales>
<clustering>
<clus scale="   31.339">  2  3  1 -1</clus>
<clus scale="   68.530">  1  4  2 -1</clus>
<clus scale="  125.379">  1  6  2 -1</clus>
<clus scale="   31.339">  2  3  1 -1</clus>
</clustering>
</event>
<event>
 6    0  0.1361744E+002  0.1109004E+03  0.7546771E-02  0.1258912E+00
          2   -1    0    0  505    0 -0.00000000000E+00  0.00000000000E+00  0.20722324955E+04  0.20722324955E+04  0.00000000000E+00 0. -1.
         21   -1    0    0  503  502  0.00000000000E+00 -0.00000000000E+00 -0.53401060018E+02  0.53401060018E+02  0.00000000000E+00 0.  1.
         21    1    1    2  503  501 -0.39348465797E+02 -0.71794549246E+02  0.36998419845E+02  0.89842318164E+02  0.00000000000E+00 0. -1.
         21    1    1    2  504  502  0.10292041515E+02 -0.59601545390E+02  0.13379450476E+03  0.14683065019E+03  0.00000000000E+00 0. -1.
         21    1    1    2  505  504  0.64826883206E+02  0.22507380599E+02  0.44510025841E+02  0.81793944567E+02  0.00000000000E+00 0.  1.
          2    1    1    2  501    0 -0.35770458923E+02  0.10888871404E+03  0.18035284850E+04  0.18071666426E+04  0.00000000000E+00 0. -1.
<scales pt_clust_3="14000.00000" pt_clust_4="60.48364" pt_clust_5="68.92959" pt_clust_6="110.90040"></scales>
<clustering>
<clus scale="   60.484">  2  4  1 -1</clus>
<clus scale="   68.930">  2  5  1 -1</clus>
<clus scale="  110.900">  1  6  2 -1</clus>
<clus scale="   60.484">  2  3  1 -1</clus>
</clustering>
</event>
<event>
 6    0  0.1361744E+002  0.1474493E+03  0.7546771E-02  0.1203643E+00
         21   -1    0    0  501  502  0.00000000000E+00  0.00000000000E+00  0.18953750818E+03  0.18953750818E+03  0.00000000000E+00 0.  1.
         -1   -1    0    0    0  501 -0.00000000000E+00 -0.00000000000E+00 -0.54717721077E+03  0.54717721077E+03  0.00000000000E+00 0. -1.
         21    1    1    2  503  502 -0.69488665944E+01  0.63585222425E+02  0.41171850383E+02  0.76068972135E+02  0.00000000000E+00 0. -1.
         21    1    1    2  504  503  0.35391208825E+02  0.70324500335E+02  0.10829245121E+03  0.13388550332E+03  0.00000000000E+00 0.  1.
         21    1    1    2  505  504  0.76665679065E+01 -0.52546874213E+02 -0.16995091085E+03  0.17805409951E+03  0.00000000000E+00 0. -1.
         -1    1    1    2    0  505 -0.36108910137E+02 -0.81362848547E+02 -0.33715309332E+03  0.34870614398E+03  0.00000000000E+00 0. -1.
<scales pt_clust_3="49.37436" pt_clust_4="49.37436" pt_clust_5="30.71195" pt_clust_6="142.55484"></scales>
<clustering>
<clus scale="   30.712">  5  6 -1 -1</clus>
<clus scale="   49.374">  3  4 -1 -1</clus>
<clus scale="  142.555">  2  5  1 -1</clus>
<clus scale="  147.449">  1  3  2 -1</clus>
</clustering>
</event>
<event>
 6    0  0.1361744E+002  0.8368678E+02  0.7546771E-02  0.1318903E+00
         21   -1    0    0  504  502  0.00000000000E+00  0.00000000000E+00  0.17135197197E+04  0.17135197197E+04  0.00000000000E+00 0.  1.
          2   -1    0    0  505    0 -0.00000000000E+00 -0.00000000000E+00 -0.75338888240E+03  0.75338888240E+03  0.00000000000E+00 0. -1.
         21    1    1    2  503  502 -0.46969963056E+02  0.17803891467E+01  0.75827579355E+02  0.89214174915E+02  0.00000000000E+00 0.  1.
         21    1    1    2  504  501  0.70972786015E+02 -0.81459619179E+02  0.16201371614E+04  0.16237355781E+04  0.00000000000E+00 0.  1.
         21    1    1    2  505  503 -0.70776935794E+02  0.91879807386E+02 -0.51658483905E+03  0.52944420818E+03  0.00000000000E+00 0. -1.
          2    1    1    2  501    0  0.46774112835E+02 -0.12200577353E+02 -0.21924906441E+03  0.22451464087E+03  0.00000000000E+00 0. -1.
<scales pt_clust_3="47.00369" pt_clust_4="14000.00000" pt_clust_5="83.68678" pt_clust_6="48.26504"></scales>
<clustering>
<clus scale="   47.004">  1  3  2 -1</clus>
<clus scale="   48.265">  2  6  1 -1</clus>
<clus scale="   83.687">  2  5  1 -1</clus>
<clus scale="   47.004">  1  3  2 -1</clus>
</clustering>
</event>
<event>
 6    0  0.1361744E+002  0.1329554E+03  0.7546771E-02  0.1223135E+00
         -4   -1    0    0    0  501 -0.00000000000E+00  0.00000000000E+00  0.35647011842E+03  0.35647011842E+03  0.00000000000E+00 0. -1.
         21   -1    0    0  503  502  0.00000000000E+00 -0.00000000000E+00 -0.89443578356E+02  0.89443578356E+02  0.00000000000E+00 0.  1.
         21    1    1    2  503  504 -0.24959824134E+02 -0.10181018112E+03  0.15194369820E+02  0.10592060553E+03  0.00000000000E+00 0.  1.
         21    1    1    2  504  501  0.23138630800E+02 -0.43214851803E+02  0.10069449089E+02  0.50043115976E+02  0.00000000000E+00 0.  1.
         21    1    1    2  505  502  0.15232382596E+02  0.27985807089E+02  0.16828414174E+02  0.36033684263E+02  0.00000000000E+00 0.  1.
         -4    1    1    2    0  505 -0.13411189261E+02  0.11703922584E+03  0.22493430698E+03  0.25391629101E+03  0.00000000000E+00 0. -1.
<scales pt_clust_3="36.99163" pt_clust_4="36.99163" pt_clust_5="31.86269" pt_clust_6="122.58182"></scales>
<clustering>
<clus scale="   31.863">  2  5  1 -1</clus>
<clus scale="   36.992">  3  4 -1 -1</clus>
<clus scale="  122.582">  1  6  2 -1</clus>
<clus scale="   31.863">  2  3  1 -1</clus>
</clustering>
</event>
<event>
 6    0  0.1361744E+002  0.2127768E+03  0.7546771E-02  0.1139386E+00
         21   -1    0    0  504  502  0.00000000000E+00  0.00000000000E+00  0.86970009575E+02  0.86970009575E+02  0.00000000000E+00 0.  1.
          2   -1    0    0  505    0 -0.00000000000E+00 -0.00000000000E+00 -0.10001258900E+04  0.10001258900E+04  0.00000000000E+00 0. -1.
         21    1    1    2  503  501  0.14817902082E+03  0.85486421173E+01 -0.46278452214E+03  0.48600371956E+03  0.00000000000E+00 0. -1.
         21    1    1    2  504  503 -0.32444570458E+02  0.10752884469E+03 -0.61460127516E+02  0.12803300304E+03  0.00000000000E+00 0.  1.
         21    1    1    2  505  502 -0.17199587923E+03 -0.63070833480E+02 -0.21319147426E+03  0.28108916238E+03  0.00000000000E+00 0.  1.
          2    1    1    2  501    0  0.56261428866E+02 -0.53006653330E+02 -0.17571975646E+03  0.19197001455E+03  0.00000000000E+00 0. -1.
<scales pt_clust_3="65.30209" pt_clust_4="112.31697" pt_clust_5="192.57653" pt_clust_6="65.30209"></scales>
<clustering>
<clus scale="   65.302">  3  6 -1 -1</clus>
<clus scale="  112.317">  1  4  2 -1</clus>
<clus scale="  192.577">  1  5  2 -1</clus>
<clus scale="  112.317">  1  3  2 -1</clus>
</clustering>
</event>
<event>
 6    0  0.1361744E+002  0.9988927E+02  0.7546771E-02  0.1280529E+00
          2   -1    0    0  504    0 -0.00000000000E+00  0.00000000000E+00  0.67737714902E+03  0.67737714902E+03  0.00000000000E+00 0.  1.
         21   -1    0    0  505  502  0.00000000000E+00 -0.00000000000E+00 -0.11843118767E+03  0.11843118767E+03  0.00000000000E+00 0.  1.
         21    1    1    2  503  501  0.32999707525E+02  0.49016778825E+02  0.83849651351E+02  0.10257869825E+03  0.00000000000E+00 0.  1.
         21    1    1    2  504  502 -0.11310504064E+02 -0.61110278569E+02 -0.67941601087E+02  0.92078525223E+02  0.00000000000E+00 0.  1.
         21    1    1    2  505  503  0.43985531619E+02  0.56882857243E+02  0.23620119293E+02  0.75685510340E+02  0.00000000000E+00 0.  1.
          2    1    1    2  501    0 -0.65674735081E+02 -0.44789357499E+02  0.51941779180E+03  0.52546560288E+03  0.00000000000E+00 0.  1.
<scales pt_clust_3="50.36613" pt_clust_4="62.14816" pt_clust_5="50.36613" pt_clust_6="83.01174"></scales>
<clustering>
<clus scale="   50.366">  3  5 -1 -1</clus>
<clus scale="   62.148">  2  4  1 -1</clus>
<clus scale="   83.012">  1  6  2 -1</clus>
<clus scale="   62.148">  2  3  1 -1</clus>
</clustering>
</event>
<event>
 6    0  0.1361744E+002  0.9852368E+02  0.7546771E-02  0.1283431E+00
         21   -1    0    0  504  502  0.00000000000E+00  0.00000000000E+00  0.25550276880E+03  0.25550276880E+03  0.00000000000E+00 0. -1.
          2   -1    0    0  505    0 -0.00000000000E+00 -0.00000000000E+00 -0.97731340400E+03  0.97731340400E+03  0.00000000000E+00 0. -1.
         21    1    1    2  503  501  0.25402522736E+01  0.39106996449E+02 -0.48357828800E+03  0.48516365350E+03  0.00000000000E+00 0. -1.
         21    1    1    2  504  503 -0.10481776047E+03 -0.12203665141E+03  0.18747183810E+03  0.24703319064E+03  0.00000000000E+00 0. -1.
         21    1    1    2  505  502  0.62067764311E+02  0.44237006204E+02 -0.51647019754E+01  0.76393679260E+02  0.00000000000E+00 0. -1.
          2    1    1    2  501    0  0.40209743887E+02  0.38692648760E+02 -0.42053948332E+03  0.42422564939E+03  0.00000000000E+00 0. -1.
<scales pt_clust_3="34.34482" pt_clust_4="89.59521" pt_clust_5="76.21890" pt_clust_6="34.34482"></scales>
<clustering>
<clus scale="   34.345">  3  6 -1 -1</clus>
<clus scale="   76.219">  1  5  2 -1</clus>
<clus scale="   89.595">  1  4  2 -1</clus>
<clus scale="   76.219">  1  3  2 -1</clus>
</clustering>
</event>
<event>
 6    0  0.1361744E+002  0.1654365E+03  0.7546771E-02  0.1182692E+00
         21   -1    0    0  503  502  0.00000000000E+00  0.00000000000E+00  0.93157161116E+02  0.93157161116E+02  0.00000000000E+00 0.  1.
         -4   -1    0    0    0  501 -0.00000000000E+00 -0.00000000000E+00 -0.28510329985E+04  0.28510329985E+04  0.00000000000E+00 0. -1.
         21    1    1    2  503  505 -0.12013299305E+03  0.77307780109E+02 -0.71696941757E+02  0.15984017124E+03  0.00000000000E+00 0.  1.
         21    1    1    2  504  501 -0.16354146676E+02  0.32368434474E+02 -0.14287734146E+03  0.14740796575E+03  0.00000000000E+00 0.  1.
         21    1    1    2  505  504  0.16183708341E+02 -0.20992260759E+03 -0.20653431531E+03  0.29493361456E+03  0.00000000000E+00 0.  1.
         -4    1    1    2    0  502  0.12030343138E+03  0.10024639300E+03 -0.23367672389E+04  0.23420084081E+04  0.00000000000E+00 0. -1.
<scales pt_clust_3="144.19802" pt_clust_4="36.26532" pt_clust_5="165.43647" pt_clust_6="14000.00000"></scales>
<clustering>
<clus scale="   36.265">  2  4  1 -1</clus>
<clus scale="  144.198">  1  3  2 -1</clus>
<clus scale="  165.436">  1  5  2 -1</clus>
<clus scale="  144.198">  1  3  2 -1</clus>
</clustering>
</event>
<event>
 6    0  0.1361744E+002  0.1151058E+03  0.7546771E-02  0.1251397E+00
         21   -1    0    0  504  502  0.00000000000E+00  0.00000000000E+00  0.25551980577E+03  0.25551980577E+03  0.00000000000E+00 0.  1.
          2   -1    0    0  503    0 -0.00000000000E+00 -0.00000000000E+00 -0.20482315634E+04  0.20482315634E+04  0.00000000000E+00 0.  1.
         21    1    1    2  503  505  0.33740418384E+02 -0.26451521102E+02 -0.16825112794E+03  0.17362759243E+03  0.00000000000E+00 0. -1.
         21    1    1    2  504  501 -0.60489481631E+02 -0.33813424140E+02  0.20132253107E+03  0.21291567946E+03  0.00000000000E+00 0.  1.
         21    1    1    2  505  502 -0.56385566351E+02  0.38202614378E+02  0.18772389268E+02  0.70648244401E+02  0.00000000000E+00 0. -1.
          2    1    1    2  501    0  0.83134629598E+02  0.22062330864E+02 -0.18445555500E+04  0.18465598528E+04  0.00000000000E+00 0.  1.
<scales pt_clust_3="42.87305" pt_clust_4="115.10577" pt_clust_5="67.51761" pt_clust_6="14000.00000"></scales>
<clustering>
<clus scale="   42.873">  2  3  1 -1</clus>
<clus scale="   67.518">  1  5  2 -1</clus>
<clus scale="  115.106">  1  4  2 -1</clus>
<clus scale="   67.518">  1  3  2 -1</clus>
</clustering>
</event>
<event>
 6    0  0.1361744E+002  0.3428655E+03  0.7546771E-02  0.1065582E+00
          1   -1    0    0  504    0 -0.00000000000E+00  0.00000000000E+00  0.17813087385E+04  0.17813087385E+04  0.00000000000E+00 0. -1.
         21   -1    0    0  501  502  0.00000000000E+00 -0.00000000000E+00 -0.11464272458E+03  0.11464272458E+03  0.00000000000E+00 0. -1.
         21    1    1    2  503  502 -0.59685347803E+02  0.90246882069E+02  0.71440359231E+02  0.12965556445E+03  0.00000000000E+00 0. -1.
         21    1    1    2  504  505  0.24958978519E+02  0.29764552740E+02  0.31450554698E+03  0.31689527969E+03  0.00000000000E+00 0. -1.
         21    1    1    2  505  503 -0.23179792284E+03  0.47395891052E+02  0.16072718302E+03  0.28602425576E+03  0.00000000000E+00 0. -1.
          1    1    1    2  501    0  0.26652429212E+03 -0.16740732586E+03  0.11199929247E+04  0.11633763631E+04  0.00000000000E+00 0. -1.
<scales pt_clust_3="83.55799" pt_clust_4="38.84429" pt_clust_5="83.55799" pt_clust_6="320.27620"></scales>
<clustering>
<clus scale="   38.844">  1  4  2 -1</clus>
<clus scale="   83.558">  3  5 -1 -1</clus>
<clus scale="  320.276">  1  6  2 -1</clus>
<clus scale="  342.866">  2  3  1 -1</clus>
</clustering>
</event>
<event>
 6    0  0.1361744E+002  0.1056667E+03  0.7546771E-02  0.1268812E+00
          1   -1    0    0  503    0 -0.00000000000E+00  0.00000000000E+00  0.13007413246E+04  0.13007413246E+04  0.00000000000E+00 0. -1.
         21   -1    0    0  501  502  0.00000000000E+00 -0.00000000000E+00 -0.20970929653E+02  0.20970929653E+02  0.00000000000E+00 0.  1.
         21    1    1    2  503  504  0.45743425467E+02 -0.11487294313E+03  0.10047695063E+04  0.10123487614E+04  0.00000000000E+00 0. -1.
         21    1    1    2  504  505  0.11993163457E+01  0.56421492693E+02  0.99635842806E+02  0.11450818472E+03  0.00000000000E+00 0.  1.
         21    1    1    2  505  502 -0.27922560321E+02  0.34439731933E+02  0.54956912203E+02  0.70611802905E+02  0.00000000000E+00 0. -1.
          1    1    1    2  501    0 -0.19020181492E+02  0.24011718507E+02  0.12040813367E+03  0.12424350520E+03  0.00000000000E+00 0. -1.
<scales pt_clust_3="98.81733" pt_clust_4="33.14506" pt_clust_5="33.14506" pt_clust_6="30.63217"></scales>
<clustering>
<clus scale="   30.632">  1  6  2 -1</clus>
<clus scale="   33.145">  4  5 -1 -1</clus>
<clus scale="   98.817">  1  3  2 -1</clus>
<clus scale="  105.667">  2  3  1 -1</clus>
</clustering>
</event>
<event>
 6    0  0.1361744E+002  0.1046100E+03  0.7546771E-02  0.1270890E+00
         21   -1    0    0  505  502  0.00000000000E+00  0.00000000000E+00  0.25391219904E+03  0.25391219904E+03  0.00000000000E+00 0.  1.
          1   -1    0    0  504    0 -0.00000000000E+00 -0.00000000000E+00 -0.43810346961E+03  0.43810346961E+03  0.00000000000E+00 0.  1.
         21    1    1    2  503  501  0.43921216538E+02  0.79198092501E+02 -0.19740130502E+03  0.21718353147E+03  0.00000000000E+00 0.  1.
         21    1    1    2  504  502 -0.91483749123E+02  0.18571228227E+01  0.18743844875E+03  0.20858067343E+03  0.00000000000E+00 0.  1.
         21    1    1    2  505  503 -0.15155011936E+02 -0.34051577639E+02  0.29778640193E+02  0.47706935955E+02  0.00000000000E+00 0. -1.
          1    1    1    2  501    0  0.62717544520E+02 -0.47003637685E+02 -0.20400705450E+03  0.21854452780E+03  0.00000000000E+00 0.  1.
<scales pt_clust_3="104.61001" pt_clust_4="14000.00000" pt_clust_5="37.27176" pt_clust_6="78.66599"></scales>
<clustering>
<clus scale="   37.272">  1  5  2 -1</clus>
<clus scale="   78.666">  2  6  1 -1</clus>
<clus scale="  104.610">  2  3  1 -1</clus>
<clus scale="   37.272">  1  3  2 -1</clus>
</clustering>
</event>
<event>
 6    0  0.1361744E+002  0.7199084E+02  0.7546771E-02  0.1353451E+00
         21   -1    0    0  503  502  0.00000000000E+00  0.00000000000E+00  0.40317925433E+03  0.40317925433E+03  0.00000000000E+00 0. -1.
          2   -1    0    0  504    0 -0.00000000000E+00 -0.00000000000E+00 -0.12155728529E+04  0.12155728529E+04  0.00000000000E+00 0. -1.
         21    1    1    2  503  501  0.61656213694E+02 -0.49130687826E+02  0.36512793299E+03  0.37354212697E+03  0.00000000000E+00 0. -1.
         21    1    1    2  504  505  0.63086702304E+01 -0.35587474093E+02 -0.51264823132E+03  0.51392069106E+03  0.00000000000E+00 0.  1.
         21    1    1    2  505  502 -0.57235894691E+02 -0.21014346391E+02 -0.31145831090E+01  0.61051216394E+02  0.00000000000E+00 0.  1.
          2    1    1    2  501    0 -0.10728989233E+02  0.10573250831E+03 -0.66175871715E+03  0.67023807281E+03  0.00000000000E+00 0. -1.
<scales pt_clust_3="71.99084" pt_clust_4="36.14232" pt_clust_5="61.28306" pt_clust_6="14000.00000"></scales>
<clustering>
<clus scale="   36.142">  2  4  1 -1</clus>
<clus scale="   61.283">  1  5  2 -1</clus>
<clus scale="   71.991">  1  3  2 -1</clus>
<clus scale="   61.283">  1  3  2 -1</clus>
</clustering>
</event>
<event>
 6    0  0.1361744E+002  0.1285855E+03  0.7546771E-02  0.1229570E+00
          2   -1    0    0  505    0 -0.00000000000E+00  0.00000000000E+00  0.39971926236E+03  0.39971926236E+03  0.00000000000E+00 0.  1.
         21   -1    0    0  503  502  0.00000000000E+00 -0.00000000000E+00 -0.57799691720E+03  0.57799691720E+03  0.00000000000E+00 0. -1.
         21    1    1    2  503  501 -0.75350311086E+01  0.45341709515E+02 -0.33742172180E+03  0.34053790635E+03  0.00000000000E+00 0. -1.
         21    1    1    2  504  502  0.77537685018E+02 -0.64507019931E+01 -0.18452377523E+02  0.79963706708E+02  0.00000000000E+00 0. -1.
         21    1    1    2  505  504 -0.24340990527E+02  0.85465534447E+02 -0.16637209049E+03  0.18861737431E+03  0.00000000000E+00 0. -1.
          2    1    1    2  501    0 -0.45661663383E+02 -0.12435654197E+03  0.34396853498E+03  0.36859719219E+03  0.00000000000E+00 0.  1.
<scales pt_clust_3="45.96354" pt_clust_4="76.04111" pt_clust_5="14000.00000" pt_clust_6="128.58552"></scales>
<clustering>
<clus scale="   45.964">  2  3  1 -1</clus>
<clus scale="   76.041">  2  4  1 -1</clus>
<clus scale="  128.586">  1  6  2 -1</clus>
<clus scale="   45.964">  2  3  1 -1</clus>
</clustering>
</event>
<event>
 6    0  0.1361744E+002  0.1431746E+03  0.7546771E-02  0.1209120E+00
         21   -1    0    0  505  502  0.00000000000E+00  0.00000000000E+00  0.62670758708E+03  0.62670758708E+03  0.00000000000E+00 0. -1.
          2   -1    0    0  504    0 -0.00000000000E+00 -0.00000000000E+00 -0.26644282038E+04  0.26644282038E+04  0.00000000000E+00 0. -1.
         21    1    1    2  503  501 -0.91164647138E+02 -0.11356312990E+03 -0.70400509895E+03  0.71890942177E+03  0.00000000000E+00 0. -1.
         21    1    1    2  504  502  0.13202313308E+02  0.35742928169E+02  0.48489724416E+02  0.61669371366E+02  0.00000000000E+00 0.  1.
         21    1    1    2  505  503  0.50402998911E+01  0.10724696847E+03  0.55826429365E+03  0.56849480071E+03  0.00000000000E+00 0. -1.
          2    1    1    2  501    0  0.72922033940E+02 -0.29426766731E+02 -0.19404695358E+04  0.19420621970E+04  0.00000000000E+00 0. -1.
<scales pt_clust_3="143.17463" pt_clust_4="38.10325" pt_clust_5="14000.00000" pt_clust_6="78.63404"></scales>
<clustering>
<clus scale="   38.103">  1  4  2 -1</clus>
<clus scale="   78.634">  2  6  1 -1</clus>
<clus scale="  143.175">  2  3  1 -1</clus>
<clus scale="   38.103">  1  3  2 -1</clus>
</clustering>
</event>
<event>
 6    0  0.1361744E+002  0.1309690E+03  0.7546771E-02  0.1226025E+00
          2   -1    0    0  505    0 -0.00000000000E+00  0.00000000000E+00  0.39401163423E+04  0.39401163423E+04  0.00000000000E+00 0. -1.
         21   -1    0    0  503  502  0.00000000000E+00 -0.00000000000E+00 -0.43467112649E+02  0.43467112649E+02  0.00000000000E+00 0. -1.
         21    1    1    2  503  501 -0.38530636614E+02 -0.91110405405E+02  0.10504212327E+03  0.14428985963E+03  0.00000000000E+00 0. -1.
         21    1    1    2  504  502  0.42157514201E+02  0.40868430607E+02  0.27206194651E+02  0.64712144543E+02  0.00000000000E+00 0. -1.
         21    1    1    2  505  504  0.11582954166E+03 -0.24506083493E+02  0.10768500221E+04  0.10833388209E+04  0.00000000000E+00 0. -1.
          2    1    1    2  501    0 -0.11945641925E+03  0.74748058291E+02  0.26875508897E+04  0.26912426299E+04  0.00000000000E+00 0. -1.
<scales pt_clust_3="58.87698" pt_clust_4="58.71528" pt_clust_5="130.96896" pt_clust_6="14000.00000"></scales>
<clustering>
<clus scale="   58.715">  2  4  1 -1</clus>
<clus scale="   58.877">  2  3  1 -1</clus>
<clus scale="  130.969">  2  5  1 -1</clus>
<clus scale="   58.715">  2  3  1 -1</clus>
</clustering>
</event>
<event>
 6    0  0.1361744E+002  0.1115668E+03  0.7546771E-02  0.1257696E+00
         21   -1    0    0  501  502  0.00000000000E+00  0.00000000000E+00  0.40735123619E+02  0.40735123619E+02  0.00000000000E+00 0.  1.
          1   -1    0    0  503    0 -0.00000000000E+00 -0.00000000000E+00 -0.20743568126E+04  0.20743568126E+04  0.00000000000E+00 0.  1.
         21    1    1    2  503  505 -0.73023688118E+02  0.13537130414E+02 -0.12698653351E+04  0.12720352520E+04  0.00000000000E+00 0. -1.
         21    1    1    2  504  502  0.64812769491E+02 -0.32389956816E+02 -0.35261498028E+02  0.80580255862E+02  0.00000000000E+00 0.  1.
         21    1    1    2  505  504  0.89652725114E+02 -0.48131209713E+02 -0.20983843826E+03  0.23320890772E+03  0.00000000000E+00 0.  1.
          1    1    1    2  501    0 -0.81441806487E+02  0.66984036114E+02 -0.51865641754E+03  0.52926752063E+03  0.00000000000E+00 0.  1.
<scales pt_clust_3="70.09871" pt_clust_4="72.45553" pt_clust_5="111.56678" pt_clust_6="14000.00000"></scales>
<clustering>
<clus scale="   72.456">  1  4  2 -1</clus>
<clus scale="   70.099">  2  3  1 -1</clus>
<clus scale="  111.567">  2  5  1 -1</clus>
<clus scale="   72.456">  1  3  2 -1</clus>
</clustering>
</event>
<event>
 6    0  0.1361744E+002  0.1982025E+03  0.7546771E-02  0.1151265E+00
         21   -1    0    0  504  502  0.00000000000E+00  0.00000000000E+00  0.92462676166E+02  0.92462676166E+02  0.00000000000E+00 0.  1.
          2   -1    0    0  502    0 -0.00000000000E+00 -0.00000000000E+00 -0.19892976531E+04  0.19892976531E+04  0.00000000000E+00 0.  1.
         21    1    1    2  503  505 -0.15372514124E+03  0.12340092916E+02  0.58999244853E+01  0.15433245301E+03  0.00000000000E+00 0.  1.
         21    1    1    2  504  503 -0.22387732574E+02  0.21586593187E+02 -0.27258889131E+02  0.41355031277E+02  0.00000000000E+00 0. -1.
         21    1    1    2  505  501  0.67986280572E+02  0.27711512955E+02 -0.57890035248E+03  0.58353721424E+03  0.00000000000E+00 0.  1.
          2    1    1    2  501    0  0.10812659324E+03 -0.61638199058E+02 -0.12965756598E+04  0.13025356307E+04  0.00000000000E+00 0.  1.
<scales pt_clust_3="177.73709" pt_clust_4="31.09970" pt_clust_5="67.49807" pt_clust_6="67.49807"></scales>
<clustering>
<clus scale="   31.100">  1  4  2 -1</clus>
<clus scale="   67.498">  5  6 -1 -1</clus>
<clus scale="  177.737">  1  3  2 -1</clus>
<clus scale="   31.100">  1  3  2 -1</clus>
</clustering>
</event>
<event>
 6    0  0.1361744E+002  0.1981642E+03  0.7546771E-02  0.1151297E+00
          1   -1    0    0  504    0 -0.00000000000E+00  0.00000000000E+00  0.21725180557E+04  0.21725180557E+04  0.00000000000E+00 0.  1.
         21   -1    0    0  505  502  0.00000000000E+00 -0.00000000000E+00 -0.95133114635E+03  0.95133114635E+03  0.00000000000E+00 0. -1.
         21    1    1    2  503  502  0.57804860333E+02  0.46284723383E+02 -0.85765740224E+03  0.86084835896E+03  0.00000000000E+00 0. -1.
         21    1    1    2  504  503 -0.20917302322E+02 -0.51861681936E+02  0.21790818273E+03  0.22496920610E+03  0.00000000000E+00 0.  1.
         21    1    1    2  505  501  0.14003292874E+03  0.10971233313E+02 -0.25969216460E+02  0.14284253322E+03  0.00000000000E+00 0. -1.
          1    1    1    2  501    0 -0.17692048675E+03 -0.53942747608E+01  0.18869053453E+04  0.18951891038E+04  0.00000000000E+00 0.  1.
<scales pt_clust_3="74.01200" pt_clust_4="55.92108" pt_clust_5="198.16419" pt_clust_6="14000.00000"></scales>
<clustering>
<clus scale="   55.921">  1  4  2 -1</clus>
<clus scale="   74.012">  2  3  1 -1</clus>
<clus scale="  198.164">  2  5  1 -1</clus>
<clus scale="   74.012">  2  3  1 -1</clus>
</clustering>
</event>
<event>
 6    0  0.1361744E+002  0.1070938E+03  0.7546771E-02  0.1266048E+00
         21   -1    0    0  504  502  0.00000000000E+00  0.00000000000E+00  0.18159981124E+03  0.18159981124E+03  0.00000000000E+00 0. -1.
          1   -1    0    0  503    0 -0.00000000000E+00 -0.00000000000E+00 -0.11914072214E+04  0.11914072214E+04  0.00000000000E+00 0. -1.
         21    1    1    2  503  502  0.56458434679E+01  0.32217414588E+02 -0.10600316544E+03  0.11093470348E+03  0.00000000000E+00 0. -1.
         21    1    1    2  504  505 -0.13286718272E+02  0.27245109781E+02  0.66842412445E+01  0.31040489211E+02  0.00000000000E+00 0.  1.
         21    1    1    2  505  501  0.35392085028E+01  0.79702878509E+02  0.14548240658E+03  0.16592228742E+03  0.00000000000E+00 0. -1.
          1    1    1    2  501    0  0.41016663016E+01 -0.13916540288E+03 -0.10559708925E+04  0.10651095525E+04  0.00000000000E+00 0. -1.
<scales pt_clust_3="33.08133" pt_clust_4="30.31226" pt_clust_5="14000.00000" pt_clust_6="107.09378"></scales>
<clustering>
<clus scale="   30.312">  1  4  2 -1</clus>
<clus scale="   33.081">  2  3  1 -1</clus>
<clus scale="  107.094">  2  6  1 -1</clus>
<clus scale="   30.312">  1  3  2 -1</clus>
</clustering>
</event>
<event>
 6    0  0.1361744E+002  0.1080101E+03  0.7546771E-02  0.1264300E+00
         21   -1    0    0  501  502  0.00000000000E+00  0.00000000000E+00  0.19472856756E+03  0.19472856756E+03  0.00000000000E+00 0.  1.
          1   -1    0    0  505    0 -0.00000000000E+00 -0.00000000000E+00 -0.12001716120E+04  0.12001716120E+04  0.00000000000E+00 0. -1.
         21    1    1    2  503  502  0.48452509496E+02  0.13895796037E+02  0.12517197456E+03  0.13493984600E+03  0.00000000000E+00 0.  1.
         21    1    1    2  504  503  0.35449206779E+02  0.58373037888E+02  0.38373712979E+02  0.78336451677E+02  0.00000000000E+00 0.  1.
         21    1    1    2  505  504  0.28527384061E+02  0.10083667136E+02 -0.13939794338E+03  0.14264388736E+03  0.00000000000E+00 0. -1.
          1    1    1    2  501    0 -0.11242910034E+03 -0.82352501061E+02 -0.10295907886E+04  0.10389799945E+04  0.00000000000E+00 0. -1.
<scales pt_clust_3="50.54501" pt_clust_4="108.01015" pt_clust_5="30.25710" pt_clust_6="14000.00000"></scales>
<clustering>
<clus scale="   30.257">  2  5  1 -1</clus>
<clus scale="   50.545">  1  3  2 -1</clus>
<clus scale="  108.010">  1  4  2 -1</clus>
<clus scale="   50.545">  1  3  2 -1</clus>
</clustering>
</event>
<event>
 6    0  0.1361744E+002  0.1214920E+03  0.7546771E-02  0.1240656E+00
         21   -1    0    0  505  502  0.00000000000E+00  0.00000000000E+00  0.51290504588E+03  0.51290504588E+03  0.00000000000E+00 0. -1.
          3   -1    0    0  503    0 -0.00000000000E+00 -0.00000000000E+00 -0.77220147314E+03  0.77220147314E+03  0.00000000000E+00 0. -1.
         21    1    1    2  503  504 -0.63304301542E+02  0.28682338814E+02  0.20730234633E+03  0.21864211385E+03  0.00000000000E+00 0. -1.
         21    1    1    2  504  502 -0.40290243594E+02  0.20571759328E+02  0.28855240549E+03  0.29207703047E+03  0.00000000000E+00 0. -1.
         21    1    1    2  505  501  0.93117408278E+02  0.81449612213E+01 -0.26962578237E+03  0.28536862939E+03  0.00000000000E+00 0. -1.
          3    1    1    2  501    0  0.10477136858E+02 -0.57399059363E+02 -0.48552539672E+03  0.48901874532E+03  0.00000000000E+00 0. -1.
<scales pt_clust_3="34.27044" pt_clust_4="34.27044" pt_clust_5="113.82443" pt_clust_6="58.34743"></scales>
<clustering>
<clus scale="   34.270">  3  4 -1 -1</clus>
<clus scale="   58.347">  2  6  1 -1</clus>
<clus scale="  113.824">  2  5  1 -1</clus>
<clus scale="  121.492">  1  3  2 -1</clus>
</clustering>
</event>
<event>
 6    0  0.1361744E+002  0.8675358E+02  0.7546771E-02  0.1310909E+00
         21   -1    0    0  503  502  0.00000000000E+00  0.00000000000E+00  0.20542075983E+02  0.20542075983E+02  0.00000000000E+00 0.  1.
          2   -1    0    0  505    0 -0.00000000000E+00 -0.00000000000E+00 -0.15945056443E+04  0.15945056443E+04  0.00000000000E+00 0.  1.
         21    1    1    2  503  501 -0.57168330655E+01  0.49590258053E+02 -0.15987631456E+03  0.16748824386E+03  0.00000000000E+00 0.  1.
         21    1    1    2  504  502  0.59637714936E+02 -0.49973218248E+02 -0.13663034186E+03  0.15723177129E+03  0.00000000000E+00 0.  1.
         21    1    1    2  505  504  0.24752017616E+02 -0.68746061911E+02 -0.39740446712E+03  0.40406558118E+03  0.00000000000E+00 0.  1.
          2    1    1    2  501    0 -0.78672899486E+02  0.69129022106E+02 -0.88005244483E+03  0.88626212401E+03  0.00000000000E+00 0.  1.
<scales pt_clust_3="49.91869" pt_clust_4="59.39459" pt_clust_5="86.75358" pt_clust_6="14000.00000"></scales>
<clustering>
<clus scale="   49.919">  1  3  2 -1</clus>
<clus scale="   59.395">  1  4  2 -1</clus>
<clus scale="   86.754">  1  5  2 -1</clus>
<clus scale="   49.919">  1  3  2 -1</clus>
</clustering>
</event>
<event>
 6    0  0.1361744E+002  0.1025902E+03  0.7546771E-02  0.1274942E+00
         21   -1    0    0  503  502  0.00000000000E+00  0.00000000000E+00  0.59654867693E+02  0.59654867693E+02  0.00000000000E+00 0. -1.
          1   -1    0    0  505    0 -0.00000000000E+00 -0.00000000000E+00 -0.88967854480E+03  0.88967854480E+03  0.00000000000E+00 0.  1.
         21    1    1    2  503  501  0.39291423200E+02 -0.10497794194E+02 -0.73662659351E+01  0.41331362110E+02  0.00000000000E+00 0. -1.
         21    1    1    2  504  502  0.35270278519E+02  0.88957697537E+02 -0.25703732627E+02  0.99086559981E+02  0.00000000000E+00 0. -1.
         21    1    1    2  505  504 -0.36205923916E+02 -0.87631167948E+02 -0.46060871664E+03  0.47026639298E+03  0.00000000000E+00 0.  1.
          1    1    1    2  501    0 -0.38355777802E+02  0.91712646048E+01 -0.33634496190E+03  0.33864909742E+03  0.00000000000E+00 0.  1.
<scales pt_clust_3="38.93127" pt_clust_4="102.59020" pt_clust_5="14000.00000" pt_clust_6="39.43701"></scales>
<clustering>
<clus scale="   39.437">  2  6  1 -1</clus>
<clus scale="   38.931">  1  3  2 -1</clus>
<clus scale="  102.590">  1  4  2 -1</clus>
<clus scale="   38.931">  1  3  2 -1</clus>
</clustering>
</event>
<event>
 6    0  0.1361744E+002  0.1434100E+03  0.7546771E-02  0.1208813E+00
          2   -1    0    0  505    0 -0.00000000000E+00  0.00000000000E+00  0.12203762878E+04  0.12203762878E+04  0.00000000000E+00 0.  1.
         21   -1    0    0  503  502  0.00000000000E+00 -0.00000000000E+00 -0.17994668177E+03  0.17994668177E+03  0.00000000000E+00 0. -1.
         21    1    1    2  503  504  0.24526099114E+02  0.31908601832E+02  0.35583143323E+02  0.53720093982E+02  0.00000000000E+00 0. -1.
         21    1    1    2  504  501 -0.28569118966E+02 -0.29855403715E+02  0.22558319448E+03  0.22933668987E+03  0.00000000000E+00 0.  1.
         21    1    1    2  505  502  0.10042141374E+03  0.18947936558E+02 -0.15070214869E+03  0.18208410765E+03  0.00000000000E+00 0. -1.
          2    1    1    2  501    0 -0.96378393892E+02 -0.21001134676E+02  0.92996541691E+03  0.93518207806E+03  0.00000000000E+00 0.  1.
<scales pt_clust_3="40.24535" pt_clust_4="33.08599" pt_clust_5="133.99004" pt_clust_6="33.08599"></scales>
<clustering>
<clus scale="   33.086">  4  6 -1 -1</clus>
<clus scale="   40.245">  2  3  1 -1</clus>
<clus scale="  133.990">  2  5  1 -1</clus>
<clus scale="   40.245">  2  3  1 -1</clus>
</clustering>
</event>
<event>
 6    0  0.1361744E+002  0.9971585E+02  0.7546771E-02  0.1280895E+00
         21   -1    0    0  505  502  0.00000000000E+00  0.00000000000E+00  0.43209193983E+03  0.43209193983E+03  0.00000000000E+00 0.  1.
          2   -1    0    0  504    0 -0.00000000000E+00 -0.00000000000E+00 -0.14881228701E+04  0.14881228701E+04  0.00000000000E+00 0.  1.
         21    1    1    2  503  502  0.12733584085E+02 -0.41869990227E+02  0.82684841165E+02  0.93552248523E+02  0.00000000000E+00 0.  1.
         21    1    1    2  504  503  0.60737248223E+02  0.24854593189E+02 -0.41069880791E+02  0.77417693278E+02  0.00000000000E+00 0. -1.
         21    1    1    2  505  501 -0.10737727370E+03 -0.76706240566E+02  0.31060333146E+03  0.33747319266E+03  0.00000000000E+00 0.  1.
          2    1    1    2  501    0  0.33906441395E+02  0.93721637604E+02 -0.14082492221E+04  0.14117716755E+04  0.00000000000E+00 0.  1.
<scales pt_clust_3="43.76346" pt_clust_4="65.45127" pt_clust_5="14000.00000" pt_clust_6="99.71585"></scales>
<clustering>
<clus scale="   43.763">  1  3  2 -1</clus>
<clus scale="   65.451">  1  4  2 -1</clus>
<clus scale="   99.716">  2  6  1 -1</clus>
<clus scale="   43.763">  1  3  2 -1</clus>
</clustering>
</event>
<event>
 6    0  0.1361744E+002  0.1457763E+03  0.7546771E-02  0.1205761E+00
          1   -1    0    0  503    0 -0.00000000000E+00  0.00000000000E+00  0.21208360629E+04  0.21208360629E+04  0.00000000000E+00 0.  1.
         21   -1    0    0  505  502  0.00000000000E+00 -0.00000000000E+00 -0.28922739963E+03  0.28922739963E+03  0.00000000000E+00 0. -1.
         21    1    1    2  503  504 -0.35862909488E+02 -0.70109284612E+02  0.82241330663E+03  0.82617498569E+03  0.00000000000E+00 0.  1.
         21    1    1    2  504  502 -0.19933538598E+02  0.75432471467E+02 -0.23527904868E+03  0.24787826541E+03  0.00000000000E+00 0. -1.
         21    1    1    2  505  501 -0.58330893745E+02  0.62993762306E+02  0.14250619784E+01  0.85864649631E+02  0.00000000000E+00 0.  1.
          1    1    1    2  501    0  0.11412734183E+03 -0.68316949161E+02  0.12430493434E+04  0.12501455618E+04  0.00000000000E+00 0.  1.
<scales pt_clust_3="76.48447" pt_clust_4="78.02182" pt_clust_5="145.77634" pt_clust_6="14000.00000"></scales>
<clustering>
<clus scale="   78.022">  2  4  1 -1</clus>
<clus scale="   76.484">  1  3  2 -1</clus>
<clus scale="  145.776">  2  5  1 -1</clus>
<clus scale="   78.022">  2  3  1 -1</clus>
</clustering>
</event>
<event>
 6    0  0.1361744E+002  0.1984184E+03  0.7546771E-02  0.1151080E+00
          2   -1    0    0  504    0 -0.00000000000E+00  0.00000000000E+00  0.88006407430E+03  0.88006407430E+03  0.00000000000E+00 0. -1.
         21   -1    0    0  505  502  0.00000000000E+00 -0.00000000000E+00 -0.67387727876E+02  0.67387727876E+02  0.00000000000E+00 0.  1.
         21    1    1    2  503  502  0.67160141267E+02 -0.91253522997E+02  0.89924523916E+02  0.14465168522E+03  0.00000000000E+00 0.  1.
         21    1    1    2  504  503  0.76900317577E+02 -0.29351194475E+02  0.39457727301E+02  0.91280138608E+02  0.00000000000E+00 0.  1.
         21    1    1    2  505  501 -0.44121485818E+02  0.15493499295E+02  0.25722339405E+03  0.26143953121E+03  0.00000000000E+00 0.  1.
          2    1    1    2  501    0 -0.99938973026E+02  0.10511121818E+03  0.42607070115E+03  0.45008044714E+03  0.00000000000E+00 0. -1.
<scales pt_clust_3="197.29181" pt_clust_4="51.31812" pt_clust_5="36.22897" pt_clust_6="36.22897"></scales>
<clustering>
<clus scale="   36.229">  5  6 -1 -1</clus>
<clus scale="   51.318">  3  4 -1 -1</clus>
<clus scale="  197.292">  2  3  1 -1</clus>
<clus scale="  197.292">  2  3  1 -1</clus>
</clustering>
</event>
<event>
 6    0  0.1361744E+002  0.9423448E+02  0.7546771E-02  0.1292910E+00
          2   -1    0    0  504    0 -0.00000000000E+00  0.00000000000E+00  0.10350685579E+04  0.10350685579E+04  0.00000000000E+00 0. -1.
         21   -1    0    0  505  502  0.00000000000E+00 -0.00000000000E+00 -0.27120470989E+03  0.27120470989E+03  0.00000000000E+00 0.  1.
         21    1    1    2  503  502 -0.60829614498E+02  0.93381591915E+02 -0.20684791202E+03  0.23496046990E+03  0.00000000000E+00 0.  1.
         21    1    1    2  504  503  0.28435021060E+02  0.25518583669E+02  0.59074114150E+02  0.70352679393E+02  0.00000000000E+00 0. -1.
         21    1    1    2  505  501  0.45340291247E+02 -0.46730795532E+02 -0.18695315521E+02  0.67742335979E+02  0.00000000000E+00 0. -1.
          2    1    1    2  501    0 -0.12945697809E+02 -0.72169380052E+02  0.93033296144E+03  0.93321778254E+03  0.00000000000E+00 0. -1.
<scales pt_clust_3="14000.00000" pt_clust_4="38.20666" pt_clust_5="94.23448" pt_clust_6="49.78115"></scales>
<clustering>
<clus scale="   38.207">  1  4  2 -1</clus>
<clus scale="   49.781">  1  6  2 -1</clus>
<clus scale="   94.234">  1  5  2 -1</clus>
<clus scale="   94.234">  2  3  1 -1</clus>
</clustering>
</event>
<event>
 6    0  0.1361744E+002  0.2715403E+03  0.7546771E-02  0.1100401E+00
          2   -1    0    0  503    0 -0.00000000000E+00  0.00000000000E+00  0.68095821932E+03  0.68095821932E+03  0.00000000000E+00 0.  1.
         21   -1    0    0  504  502  0.00000000000E+00 -0.00000000000E+00 -0.50750456400E+03  0.50750456400E+03  0.00000000000E+00 0. -1.
         21    1    1    2  503  502  0.24242290106E+03 -0.72505091776E+02 -0.37203924714E+03  0.44993227569E+03  0.00000000000E+00 0. -1.
         21    1    1    2  504  505 -0.13140667845E+02 -0.72070330875E+02 -0.46296818812E+02  0.86661439961E+02  0.00000000000E+00 0.  1.
         21    1    1    2  505  501 -0.12702808725E+03  0.78816127331E+02  0.28407846197E+03  0.32101197709E+03  0.00000000000E+00 0.  1.
          2    1    1    2  501    0 -0.10225414596E+03  0.65759295320E+02  0.30771125930E+03  0.33085709058E+03  0.00000000000E+00 0.  1.
<scales pt_clust_3="269.23653" pt_clust_4="73.25851" pt_clust_5="31.82996" pt_clust_6="31.82996"></scales>
<clustering>
<clus scale="   31.830">  5  6 -1 -1</clus>
<clus scale="   73.259">  2  4  1 -1</clus>
<clus scale="  269.237">  2  3  1 -1</clus>
<clus scale="   73.259">  2  3  1 -1</clus>
</clustering>
</event>
<event>
 6    0  0.1361744E+002  0.1037336E+03  0.7546771E-02  0.1272635E+00
         21   -1    0    0  505  502  0.00000000000E+00  0.00000000000E+00  0.38654652212E+03  0.38654652212E+03  0.00000000000E+00 0. -1.
          2   -1    0    0  504    0 -0.00000000000E+00 -0.00000000000E+00 -0.55885836942E+03  0.55885836942E+03  0.00000000000E+00 0. -1.
         21    1    1    2  503  501 -0.26599760515E+02  0.58285825727E+02 -0.13192131698E+03  0.14665612368E+03  0.00000000000E+00 0. -1.
         21    1    1    2  504  502 -0.30004136932E+02  0.94238530371E+02  0.27665256067E+03  0.29379889068E+03  0.00000000000E+00 0. -1.
         21    1    1    2  505  503  0.48601077701E+01 -0.13624167507E+03  0.41360543931E+02  0.14246441404E+03  0.00000000000E+00 0. -1.
          2    1    1    2  501    0  0.51743789678E+02 -0.16282681031E+02 -0.35840363491E+03  0.36248546314E+03  0.00000000000E+00 0. -1.
<scales pt_clust_3="47.85378" pt_clust_4="14000.00000" pt_clust_5="103.73363" pt_clust_6="54.24523"></scales>
<clustering>
<clus scale="   54.245">  2  6  1 -1</clus>
<clus scale="   47.854">  2  3  1 -1</clus>
<clus scale="  103.734">  2  5  1 -1</clus>
<clus scale="  103.734">  1  3  2 -1</clus>
</clustering>
</event>
<event>
 6    0  0.1361744E+002  0.1468922E+03  0.7546771E-02  0.1204345E+00
          1   -1    0    0  504    0 -0.00000000000E+00  0.00000000000E+00  0.37403829732E+03  0.37403829732E+03  0.00000000000E+00 0.  1.
         21   -1    0    0  505  502  0.00000000000E+00 -0.00000000000E+00 -0.18278123902E+03  0.18278123902E+03  0.00000000000E+00 0.  1.
         21    1    1    2  503  501 -0.31422720992E+02 -0.49429574375E+02  0.16936319916E+02  0.60971379759E+02  0.00000000000E+00 0.  1.
         21    1    1    2  504  502 -0.14069591096E+02 -0.10179258945E+03 -0.97375237516E+02  0.14156843413E+03  0.00000000000E+00 0.  1.
         21    1    1    2  505  503  0.37475778909E+02 -0.29459006277E+01 -0.45084612591E+01  0.37860778628E+02  0.00000000000E+00 0. -1.
          1    1    1    2  501    0  0.80165331785E+01  0.15416806445E+03  0.27620443716E+03  0.31641894382E+03  0.00000000000E+00 0.  1.
<scales pt_clust_3="56.35326" pt_clust_4="14000.00000" pt_clust_5="37.59139" pt_clust_6="146.89222"></scales>
<clustering>
<clus scale="   37.591">  2  5  1 -1</clus>
<clus scale="   56.353">  2  3  1 -1</clus>
<clus scale="  146.892">  1  6  2 -1</clus>
<clus scale="   37.591">  2  3  1 -1</clus>
</clustering>
</event>
<event>
 6    0  0.1361744E+002  0.1552542E+03  0.7546771E-02  0.1194161E+00
          1   -1    0    0  503    0 -0.00000000000E+00  0.00000000000E+00  0.24273249446E+04  0.24273249446E+04  0.00000000000E+00 0. -1.
         21   -1    0    0  504  502  0.00000000000E+00 -0.00000000000E+00 -0.14528541950E+03  0.14528541950E+03  0.00000000000E+00 0.  1.
         21    1    1    2  503  502  0.65314846335E+02 -0.92691884354E+01  0.40846099489E+03  0.41375395025E+03  0.00000000000E+00 0. -1.
         21    1    1    2  504  505 -0.86476874670E+02 -0.83820603318E+02 -0.87347191663E+02  0.14877390660E+03  0.00000000000E+00 0.  1.
         21    1    1    2  505  501  0.12528646165E+01 -0.33510643747E+02 -0.10000990960E+02  0.34993609906E+02  0.00000000000E+00 0. -1.
          1    1    1    2  501    0  0.19909163718E+02  0.12660043550E+03  0.19709267128E+04  0.19750888973E+04  0.00000000000E+00 0. -1.
<scales pt_clust_3="65.96929" pt_clust_4="30.14743" pt_clust_5="30.14743" pt_clust_6="144.35990"></scales>
<clustering>
<clus scale="   30.147">  4  5 -1 -1</clus>
<clus scale="   65.969">  1  3  2 -1</clus>
<clus scale="  144.360">  1  6  2 -1</clus>
<clus scale="  155.254">  2  3  1 -1</clus>
</clustering>
</event>
<event>
 6    0  0.1361744E+002  0.1504906E+03  0.7546771E-02  0.1199871E+00
          2   -1    0    0  505    0 -0.00000000000E+00  0.00000000000E+00  0.73596550587E+03  0.73596550587E+03  0.00000000000E+00 0.  1.
         21   -1    0    0  504  502  0.00000000000E+00 -0.00000000000E+00 -0.26328024825E+03  0.26328024825E+03  0.00000000000E+00 0.  1.
         21    1    1    2  503  502  0.55768599573E+01 -0.88409879986E+02 -0.19262215475E+03  0.21201580777E+03  0.00000000000E+00 0.  1.
         21    1    1    2  504  501 -0.56349954806E+01 -0.68934786063E+02 -0.19808929760E+02  0.71945476591E+02  0.00000000000E+00 0.  1.
         21    1    1    2  505  503  0.14872848542E+02  0.28352430753E+02  0.20304602421E+02  0.37912251751E+02  0.00000000000E+00 0. -1.
          2    1    1    2  501    0 -0.14814713019E+02  0.12899223530E+03  0.66481173970E+03  0.67737221801E+03  0.00000000000E+00 0.  1.
<scales pt_clust_3="14000.00000" pt_clust_4="68.07946" pt_clust_5="32.01659" pt_clust_6="150.49060"></scales>
<clustering>
<clus scale="   32.017">  1  5  2 -1</clus>
<clus scale="   68.079">  2  4  1 -1</clus>
<clus scale="  150.491">  1  6  2 -1</clus>
<clus scale="   68.079">  2  3  1 -1</clus>
</clustering>
</event>
<event>
 6    0  0.1361744E+002  0.1264003E+03  0.7546771E-02  0.1232897E+00
         21   -1    0    0  504  502  0.00000000000E+00  0.00000000000E+00  0.95339084874E+02  0.95339084874E+02  0.00000000000E+00 0.  1.
          1   -1    0    0  505    0 -0.00000000000E+00 -0.00000000000E+00 -0.38089550063E+04  0.38089550063E+04  0.00000000000E+00 0. -1.
         21    1    1    2  503  501 -0.24349091219E+02  0.55887506089E+02  0.41522585146E+02  0.73759180156E+02  0.00000000000E+00 0.  1.
         21    1    1    2  504  503 -0.36181553037E+02  0.50500506465E+02  0.83594311587E+01  0.62684017283E+02  0.00000000000E+00 0.  1.
         21    1    1    2  505  502 -0.87461633637E+00 -0.55800363416E+02 -0.45685165125E+03  0.46024762548E+03  0.00000000000E+00 0.  1.
          1    1    1    2  501    0  0.61405260593E+02 -0.50587649137E+02 -0.33066462865E+04  0.33076032682E+04  0.00000000000E+00 0. -1.
<scales pt_clust_3="33.53671" pt_clust_4="33.53671" pt_clust_5="55.80722" pt_clust_6="121.78210"></scales>
<clustering>
<clus scale="   33.537">  3  4 -1 -1</clus>
<clus scale="   55.807">  2  5  1 -1</clus>
<clus scale="  121.782">  2  6  1 -1</clus>
<clus scale="  126.400">  1  3  2 -1</clus>
</clustering>
</event>
<event>
 6    0  0.1361744E+002  0.1018997E+03  0.7546771E-02  0.1276351E+00
          2   -1    0    0  505    0 -0.00000000000E+00  0.00000000000E+00  0.13538958009E+04  0.13538958009E+04  0.00000000000E+00 0.  1.
         21   -1    0    0  504  502  0.00000000000E+00 -0.00000000000E+00 -0.17344453523E+03  0.17344453523E+03  0.00000000000E+00 0.  1.
         21    1    1    2  503  502 -0.12855131380E+02  0.57386683009E+02 -0.12243277969E+03  0.13582441361E+03  0.00000000000E+00 0.  1.
         21    1    1    2  504  501 -0.31066269102E+02  0.36019026183E+02 -0.22296886555E+02  0.52532223189E+02  0.00000000000E+00 0. -1.
         21    1    1    2  505  503 -0.52419897551E+02  0.48730216652E+01  0.29651809009E+03  0.30115539137E+03  0.00000000000E+00 0. -1.
          2    1    1    2  501    0  0.96341298033E+02 -0.98278730857E+02  0.10286628418E+04  0.10378283080E+04  0.00000000000E+00 0.  1.
<scales pt_clust_3="101.89970" pt_clust_4="47.56557" pt_clust_5="53.23297" pt_clust_6="14000.00000"></scales>
<clustering>
<clus scale="   47.566">  2  4  1 -1</clus>
<clus scale="   53.233">  1  5  2 -1</clus>
<clus scale="  101.900">  2  3  1 -1</clus>
<clus scale="   47.566">  2  3  1 -1</clus>
</clustering>
</event>
<event>
 6    0  0.1361744E+002  0.1447589E+03  0.7546771E-02  0.1207065E+00
         21   -1    0    0  503  502  0.00000000000E+00  0.00000000000E+00  0.38625749550E+03  0.38625749550E+03  0.00000000000E+00 0.  1.
          3   -1    0    0  504    0 -0.00000000000E+00 -0.00000000000E+00 -0.10025930812E+04  0.10025930812E+04  0.00000000000E+00 0.  1.
         21    1    1    2  503  501 -0.29122583450E+02 -0.20941458324E+02  0.24639098800E+02  0.43517292347E+02  0.00000000000E+00 0.  1.
         21    1    1    2  504  505  0.28324897056E+02  0.29206425256E+02 -0.15371503029E+03  0.15900825641E+03  0.00000000000E+00 0.  1.
         21    1    1    2  505  502  0.85840989553E+02 -0.11294274384E+03  0.32937616440E+03  0.35862709958E+03  0.00000000000E+00 0.  1.
          3    1    1    2  501    0 -0.85043303159E+02  0.10467777691E+03 -0.81663581860E+03  0.82769792836E+03  0.00000000000E+00 0.  1.
<scales pt_clust_3="35.87018" pt_clust_4="40.42025" pt_clust_5="144.75892" pt_clust_6="14000.00000"></scales>
<clustering>
<clus scale="   35.870">  1  3  2 -1</clus>
<clus scale="   40.420">  2  4  1 -1</clus>
<clus scale="  144.759">  1  5  2 -1</clus>
<clus scale="   35.870">  1  3  2 -1</clus>
</clustering>
</event>
<event>
 6    0  0.1361744E+002  0.1551437E+03  0.7546771E-02  0.1194291E+00
         21   -1    0    0  504  502  0.00000000000E+00  0.00000000000E+00  0.19974283536E+04  0.19974283536E+04  0.00000000000E+00 0.  1.
          1   -1    0    0  505    0 -0.00000000000E+00 -0.00000000000E+00 -0.31810964904E+03  0.31810964904E+03  0.00000000000E+00 0. -1.
         21    1    1    2  503  502 -0.47722256035E+02  0.24645479254E+02  0.66343371042E+03  0.66560431301E+03  0.00000000000E+00 0. -1.
         21    1    1    2  504  501 -0.50422118579E+01  0.12354703354E+03  0.13013467798E+04  0.13072079922E+04  0.00000000000E+00 0.  1.
         21    1    1    2  505  503  0.55733055866E+02 -0.36839035159E+02 -0.54178775258E+02  0.86015276062E+02  0.00000000000E+00 0. -1.
          1    1    1    2  501    0 -0.29685879729E+01 -0.11135347764E+03 -0.23128301049E+03  0.25671042136E+03  0.00000000000E+00 0. -1.
<scales pt_clust_3="53.71046" pt_clust_4="14000.00000" pt_clust_5="66.17014" pt_clust_6="155.14365"></scales>
<clustering>
<clus scale="   53.710">  1  3  2 -1</clus>
<clus scale="   66.170">  2  5  1 -1</clus>
<clus scale="  155.144">  2  6  1 -1</clus>
<clus scale="   53.710">  1  3  2 -1</clus>
</clustering>
</event>
<event>
 6    0  0.1361744E+002  0.1323933E+03  0.7546771E-02  0.1223947E+00
         21   -1    0    0  504  502  0.00000000000E+00  0.00000000000E+00  0.26675970184E+03  0.26675970184E+03  0.00000000000E+00 0. -1.
          1   -1    0    0  503    0 -0.00000000000E+00 -0.00000000000E+00 -0.28690115335E+03  0.28690115335E+03  0.00000000000E+00 0. -1.
         21    1    1    2  503  505 -0.67185346291E+02  0.11316058717E+02 -0.83368326706E+01  0.68639833334E+02  0.00000000000E+00 0. -1.
         21    1    1    2  504  501 -0.50269426469E+02  0.31877621789E+02  0.61635158029E+02  0.85686000686E+02  0.00000000000E+00 0.  1.
         21    1    1    2  505  502  0.19021781728E+02  0.10570966730E+03  0.10266953934E+03  0.14858464338E+03  0.00000000000E+00 0. -1.
          1    1    1    2  501    0  0.98432991032E+02 -0.14890334780E+03 -0.17610931621E+03  0.25075037780E+03  0.00000000000E+00 0. -1.
<scales pt_clust_3="76.78336" pt_clust_4="59.52477" pt_clust_5="132.39332" pt_clust_6="14000.00000"></scales>
<clustering>
<clus scale="   59.525">  1  4  2 -1</clus>
<clus scale="   76.783">  2  3  1 -1</clus>
<clus scale="  132.393">  1  5  2 -1</clus>
<clus scale="   59.525">  1  3  2 -1</clus>
</clustering>
</event>
<event>
 6    0  0.1361744E+002  0.7875178E+02  0.7546771E-02  0.1332631E+00
          2   -1    0    0  505    0 -0.00000000000E+00  0.00000000000E+00  0.29858693388E+04  0.29858693388E+04  0.00000000000E+00 0. -1.
         21   -1    0    0  504  502  0.00000000000E+00 -0.00000000000E+00 -0.87590677117E+02  0.87590677117E+02  0.00000000000E+00 0.  1.
         21    1    1    2  503  502 -0.31267591712E+02 -0.32733753168E+02  0.79683377618E+02  0.91643884447E+02  0.00000000000E+00 0. -1.
         21    1    1    2  504  501 -0.31034665888E+02  0.78368200236E+02 -0.53422960145E+02  0.99793476568E+02  0.00000000000E+00 0.  1.
         21    1    1    2  505  503 -0.71999411931E+00  0.70466544663E+02  0.37829020816E+03  0.38479804300E+03  0.00000000000E+00 0. -1.
          2    1    1    2  501    0  0.63022251719E+02 -0.11610099173E+03  0.24937280360E+04  0.24972246119E+04  0.00000000000E+00 0. -1.
<scales pt_clust_3="45.26766" pt_clust_4="14000.00000" pt_clust_5="69.18936" pt_clust_6="78.75178"></scales>
<clustering>
<clus scale="   45.268">  2  3  1 -1</clus>
<clus scale="   69.189">  1  5  2 -1</clus>
<clus scale="   78.752">  1  6  2 -1</clus>
<clus scale="   45.268">  2  3  1 -1</clus>
</clustering>
</event>
<event>
 6    0  0.1361744E+002  0.1232522E+03  0.7546771E-02  0.1237826E+00
         21   -1    0    0  504  502  0.00000000000E+00  0.00000000000E+00  0.10483858672E+04  0.10483858672E+04  0.00000000000E+00 0.  1.
          1   -1    0    0  505    0 -0.00000000000E+00 -0.00000000000E+00 -0.51837711090E+03  0.51837711090E+03  0.00000000000E+00 0. -1.
         21    1    1    2  503  502 -0.97764682012E+01  0.34284521283E+02  0.32135420100E+03  0.32332573394E+03  0.00000000000E+00 0. -1.
         21    1    1    2  504  501  0.30136786295E+02  0.24376996076E+01  0.69526552870E+03  0.69592264202E+03  0.00000000000E+00 0.  1.
         21    1    1    2  505  503  0.10849701522E+03 -0.49907778325E+02 -0.19906509441E+03  0.23214069109E+03  0.00000000000E+00 0. -1.
          1    1    1    2  501    0 -0.12885733331E+03  0.13185557435E+02 -0.28754587897E+03  0.31537391107E+03  0.00000000000E+00 0. -1.
<scales pt_clust_3="40.60166" pt_clust_4="30.23522" pt_clust_5="14000.00000" pt_clust_6="123.25224"></scales>
<clustering>
<clus scale="   30.235">  1  4  2 -1</clus>
<clus scale="   40.602">  1  3  2 -1</clus>
<clus scale="  123.252">  2  6  1 -1</clus>
<clus scale="   30.235">  1  3  2 -1</clus>
</clustering>
</event>
<event>
 6    0  0.1361744E+002  0.1884366E+03  0.7546771E-02  0.1159879E+00
         21   -1    0    0  505  502  0.00000000000E+00  0.00000000000E+00  0.31545000723E+03  0.31545000723E+03  0.00000000000E+00 0.  1.
          1   -1    0    0  504    0 -0.00000000000E+00 -0.00000000000E+00 -0.16820618348E+04  0.16820618348E+04  0.00000000000E+00 0. -1.
         21    1    1    2  503  502  0.25258227608E+02  0.21512356298E+02  0.37274570369E+02  0.49901434164E+02  0.00000000000E+00 0. -1.
         21    1    1    2  504  503 -0.19939417256E+03  0.91095336281E+02 -0.62893188462E+03  0.66604182439E+03  0.00000000000E+00 0. -1.
         21    1    1    2  505  501  0.45413577563E+02  0.11757805238E+02  0.24326012738E+03  0.24774206058E+03  0.00000000000E+00 0.  1.
          1    1    1    2  501    0  0.12872236739E+03 -0.12436549782E+03 -0.10182146407E+04  0.10338265229E+04  0.00000000000E+00 0. -1.
<scales pt_clust_3="33.17770" pt_clust_4="188.43661" pt_clust_5="75.01192" pt_clust_6="14000.00000"></scales>
<clustering>
<clus scale="   33.178">  1  3  2 -1</clus>
<clus scale="   75.012">  1  5  2 -1</clus>
<clus scale="  188.437">  1  4  2 -1</clus>
<clus scale="   33.178">  1  3  2 -1</clus>
</clustering>
</event>
<event>
 6    0  0.1361744E+002  0.1194212E+03  0.7546771E-02  0.1244055E+00
          1   -1    0    0  504    0 -0.00000000000E+00  0.00000000000E+00  0.15277524322E+04  0.15277524322E+04  0.00000000000E+00 0. -1.
         21   -1    0    0  503  502  0.00000000000E+00 -0.00000000000E+00 -0.39589349600E+02  0.39589349600E+02  0.00000000000E+00 0.  1.
         21    1    1    2  503  501  0.63895625279E+02 -0.36374486722E+02  0.17730841476E+03  0.19194798295E+03  0.00000000000E+00 0. -1.
         21    1    1    2  504  505 -0.11171065174E+03  0.98751728867E+02  0.29184353276E+03  0.32772522223E+03  0.00000000000E+00 0.  1.
         21    1    1    2  505  502 -0.61106956594E+02 -0.24552074253E+02  0.89952667768E+02  0.11148249608E+03  0.00000000000E+00 0. -1.
          1    1    1    2  501    0  0.10892198306E+03 -0.37825167892E+02  0.92905846732E+03  0.93618608055E+03  0.00000000000E+00 0. -1.
<scales pt_clust_3="64.46686" pt_clust_4="119.42116" pt_clust_5="65.85487" pt_clust_6="14000.00000"></scales>
<clustering>
<clus scale="   65.855">  2  5  1 -1</clus>
<clus scale="   64.467">  2  3  1 -1</clus>
<clus scale="  119.421">  2  4  1 -1</clus>
<clus scale="   65.855">  2  3  1 -1</clus>
</clustering>
</event>
<event>
 6    0  0.1361744E+002  0.1718171E+03  0.7546771E-02  0.1175966E+00
         21   -1    0    0  501  502  0.00000000000E+00  0.00000000000E+00  0.10363606346E+04  0.10363606346E+04  0.00000000000E+00 0.  1.
          1   -1    0    0  504    0 -0.00000000000E+00 -0.00000000000E+00 -0.15150986701E+04  0.15150986701E+04  0.00000000000E+00 0. -1.
         21    1    1    2  503  505  0.68387951721E+02 -0.45280108297E+02  0.52183108935E+03  0.52823752798E+03  0.00000000000E+00 0.  1.
         21    1    1    2  504  503 -0.19504359702E+02  0.40392439171E+02 -0.10917919681E+03  0.11803417389E+03  0.00000000000E+00 0.  1.
         21    1    1    2  505  502  0.43688841950E+02 -0.78286010596E+02  0.50013606061E+03  0.50810775775E+03  0.00000000000E+00 0. -1.
          1    1    1    2  501    0 -0.92572433968E+02  0.83173679722E+02 -0.13915259887E+04  0.13970798451E+04  0.00000000000E+00 0. -1.
<scales pt_clust_3="40.18277" pt_clust_4="44.85498" pt_clust_5="40.18277" pt_clust_6="166.60197"></scales>
<clustering>
<clus scale="   40.183">  3  5 -1 -1</clus>
<clus scale="   44.855">  2  4  1 -1</clus>
<clus scale="  166.602">  2  6  1 -1</clus>
<clus scale="  171.817">  1  3  2 -1</clus>
</clustering>
</event>
<event>
 6    0  0.1361744E+002  0.2536505E+03  0.7546771E-02  0.1111019E+00
         21   -1    0    0  504  502  0.00000000000E+00  0.00000000000E+00  0.14138430216E+04  0.14138430216E+04  0.00000000000E+00 0. -1.
          2   -1    0    0  505    0 -0.00000000000E+00 -0.00000000000E+00 -0.22892494266E+03  0.22892494266E+03  0.00000000000E+00 0. -1.
         21    1    1    2  503  501  0.37409404460E+02 -0.11749325352E+03 -0.35376237129E+02  0.12827940722E+03  0.00000000000E+00 0. -1.
         21    1    1    2  504  503  0.18909717375E+03 -0.58686397395E+02  0.58416016409E+03  0.61680218196E+03  0.00000000000E+00 0. -1.
         21    1    1    2  505  502 -0.23113753870E+03  0.29569142408E+03  0.67466602386E+03  0.77203123242E+03  0.00000000000E+00 0. -1.
          2    1    1    2  501    0  0.46309604867E+01 -0.11951177317E+03 -0.38531871901E+02  0.12565514265E+03  0.00000000000E+00 0. -1.
<scales pt_clust_3="32.38960" pt_clust_4="197.99453" pt_clust_5="251.50947" pt_clust_6="32.38960"></scales>
<clustering>
<clus scale="   32.390">  3  6 -1 -1</clus>
<clus scale="  197.995">  1  4  2 -1</clus>
<clus scale="  251.509">  1  5  2 -1</clus>
<clus scale="  197.995">  1  3  2 -1</clus>
</clustering>
</event>
<event>
 6    0  0.1361744E+002  0.2599237E+03  0.7546771E-02  0.1107189E+00
         21   -1    0    0  505  502  0.00000000000E+00  0.00000000000E+00  0.18339929042E+03  0.18339929042E+03  0.00000000000E+00 0. -1.
          2   -1    0    0  503    0 -0.00000000000E+00 -0.00000000000E+00 -0.10281528141E+04  0.10281528141E+04  0.00000000000E+00 0. -1.
         21    1    1    2  503  504 -0.20887086871E+03 -0.71434783069E+02 -0.14680386033E+03  0.26510628329E+03  0.00000000000E+00 0.  1.
         21    1    1    2  504  502 -0.28037895040E+02 -0.40817882413E+02 -0.34686163603E+02  0.60459515616E+02  0.00000000000E+00 0. -1.
         21    1    1    2  505  501  0.24453871267E+03  0.44918481406E+02 -0.31521413248E+02  0.25062013379E+03  0.00000000000E+00 0. -1.
          2    1    1    2  501    0 -0.76299489210E+01  0.67334184076E+02 -0.63174208645E+03  0.63536617179E+03  0.00000000000E+00 0. -1.
<scales pt_clust_3="31.15921" pt_clust_4="31.15921" pt_clust_5="251.46027" pt_clust_6="67.76510"></scales>
<clustering>
<clus scale="   31.159">  3  4 -1 -1</clus>
<clus scale="   67.765">  2  6  1 -1</clus>
<clus scale="  251.460">  1  5  2 -1</clus>
<clus scale="  251.460">  1  3  2 -1</clus>
</clustering>
</event>
<event>
 6    0  0.1361744E+002  0.2386577E+03  0.7546771E-02  0.1120690E+00
         21   -1    0    0  503  502  0.00000000000E+00  0.00000000000E+00  0.84102965978E+03  0.84102965978E+03  0.00000000000E+00 0. -1.
          2   -1    0    0  505    0 -0.00000000000E+00 -0.00000000000E+00 -0.58018135573E+03  0.58018135573E+03  0.00000000000E+00 0. -1.
         21    1    1    2  503  504  0.12962650501E+03  0.18459837434E+02  0.19758703528E+03  0.23703255664E+03  0.00000000000E+00 0. -1.
         21    1    1    2  504  501  0.10138529850E+03  0.95441804118E+02  0.57255113147E+03  0.58923926794E+03  0.00000000000E+00 0. -1.
         21    1    1    2  505  502 -0.11196621601E+03  0.34573338840E+02 -0.18924198795E+03  0.22258544267E+03  0.00000000000E+00 0.  1.
          2    1    1    2  501    0 -0.11904558751E+03 -0.14847498039E+03 -0.32004787475E+03  0.37235374826E+03  0.00000000000E+00 0. -1.
<scales pt_clust_3="125.37754" pt_clust_4="238.65769" pt_clust_5="117.18255" pt_clust_6="14000.00000"></scales>
<clustering>
<clus scale="  117.183">  2  5  1 -1</clus>
<clus scale="  125.378">  1  3  2 -1</clus>
<clus scale="  238.658">  1  4  2 -1</clus>
<clus scale="  125.378">  1  3  2 -1</clus>
</clustering>
</event>
<event>
 6    0  0.1361744E+002  0.1886623E+03  0.7546771E-02  0.1159673E+00
          2   -1    0    0  505    0 -0.00000000000E+00  0.00000000000E+00  0.12569437200E+04  0.12569437200E+04  0.00000000000E+00 0. -1.
         21   -1    0    0  504  502  0.00000000000E+00 -0.00000000000E+00 -0.35037015294E+03  0.35037015294E+03  0.00000000000E+00 0.  1.
         21    1    1    2  503  501  0.96127462945E+02 -0.22856584624E+02 -0.12627673275E+03  0.16033940821E+03  0.00000000000E+00 0.  1.
         21    1    1    2  504  503  0.83577651689E+02 -0.20617316537E+02 -0.17782304211E+03  0.19756348829E+03  0.00000000000E+00 0.  1.
         21    1    1    2  505  502 -0.15012744472E+02 -0.48880542612E+02  0.43708863415E+02  0.67269269980E+02  0.00000000000E+00 0.  1.
          2    1    1    2  501    0 -0.16469237016E+03  0.92354443774E+02  0.11669644785E+04  0.11821417064E+04  0.00000000000E+00 0. -1.
<scales pt_clust_3="35.34466" pt_clust_4="35.34466" pt_clust_5="51.13404" pt_clust_6="184.82307"></scales>
<clustering>
<clus scale="   35.345">  3  4 -1 -1</clus>
<clus scale="   51.134">  1  5  2 -1</clus>
<clus scale="  184.823">  1  6  2 -1</clus>
<clus scale="  188.662">  2  3  1 -1</clus>
</clustering>
</event>
<event>
 6    0  0.1361744E+002  0.9773647E+02  0.7546771E-02  0.1285129E+00
         21   -1    0    0  501  502  0.00000000000E+00  0.00000000000E+00  0.18889436344E+03  0.18889436344E+03  0.00000000000E+00 0. -1.
          2   -1    0    0  503    0 -0.00000000000E+00 -0.00000000000E+00 -0.23930847323E+03  0.23930847323E+03  0.00000000000E+00 0. -1.
         21    1    1    2  503  504 -0.19463512764E+02  0.48219107971E+02 -0.52083979921E+02  0.73597905317E+02  0.00000000000E+00 0. -1.
         21    1    1    2  504  505  0.72692203236E+02 -0.20135141625E+02  0.38504414028E+02  0.84688666534E+02  0.00000000000E+00 0. -1.
         21    1    1    2  505  502  0.31597884683E+02 -0.38068148287E+02  0.98302474612E+02  0.11004992842E+03  0.00000000000E+00 0. -1.
          2    1    1    2  501    0 -0.84826575156E+02  0.99841819414E+01 -0.13513701851E+03  0.15986633640E+03  0.00000000000E+00 0. -1.
<scales pt_clust_3="46.05480" pt_clust_4="14000.00000" pt_clust_5="49.47333" pt_clust_6="97.73647"></scales>
<clustering>
<clus scale="   49.473">  1  5  2 -1</clus>
<clus scale="   46.055">  2  3  1 -1</clus>
<clus scale="   97.736">  2  6  1 -1</clus>
<clus scale="   49.473">  1  3  2 -1</clus>
</clustering>
</event>
<event>
 6    0  0.1361744E+002  0.1239953E+03  0.7546771E-02  0.1236648E+00
         21   -1    0    0  504  502  0.00000000000E+00  0.00000000000E+00  0.22225826258E+03  0.22225826258E+03  0.00000000000E+00 0. -1.
          2   -1    0    0  503    0 -0.00000000000E+00 -0.00000000000E+00 -0.29467439614E+04  0.29467439614E+04  0.00000000000E+00 0. -1.
         21    1    1    2  503  502  0.37729046932E+02 -0.34346027353E+02 -0.33679463927E+02  0.61134579967E+02  0.00000000000E+00 0. -1.
         21    1    1    2  504  505 -0.93249991816E+02  0.13669411366E+03  0.17415860654E+03  0.24023334889E+03  0.00000000000E+00 0. -1.
         21    1    1    2  505  501  0.22323213941E+02 -0.51262774414E+02 -0.18483821870E+04  0.18492276515E+04  0.00000000000E+00 0. -1.
          2    1    1    2  501    0  0.33197730943E+02 -0.51085311897E+02 -0.10165826544E+04  0.10184066436E+04  0.00000000000E+00 0. -1.
<scales pt_clust_3="51.02088" pt_clust_4="116.74600" pt_clust_5="40.02035" pt_clust_6="40.02035"></scales>
<clustering>
<clus scale="   40.020">  5  6 -1 -1</clus>
<clus scale="   51.021">  1  3  2 -1</clus>
<clus scale="  116.746">  1  4  2 -1</clus>
<clus scale="   51.021">  1  3  2 -1</clus>
</clustering>
</event>
<event>
 6    0  0.1361744E+002  0.1600932E+03  0.7546771E-02  0.1188592E+00
          2   -1    0    0  503    0 -0.00000000000E+00  0.00000000000E+00  0.11423132537E+04  0.11423132537E+04  0.00000000000E+00 0.  1.
         21   -1    0    0  504  502  0.00000000000E+00 -0.00000000000E+00 -0.23951586226E+02  0.23951586226E+02  0.00000000000E+00 0.  1.
         21    1    1    2  503  505  0.49149797020E+02 -0.18393346150E+02  0.20582112533E+03  0.21240610481E+03  0.00000000000E+00 0.  1.
         21    1    1    2  504  501 -0.36078367805E+02  0.40148594941E+02  0.21362378638E+03  0.22033765090E+03  0.00000000000E+00 0.  1.
         21    1    1    2  505  502  0.92061748962E+02 -0.19812952823E+02  0.17081829284E+03  0.19505590965E+03  0.00000000000E+00 0.  1.
          2    1    1    2  501    0 -0.10513317818E+03 -0.19422959681E+01  0.52809846296E+03  0.53846517459E+03  0.00000000000E+00 0.  1.
<scales pt_clust_3="39.27258" pt_clust_4="46.59496" pt_clust_5="155.46074" pt_clust_6="46.59496"></scales>
<clustering>
<clus scale="   39.273">  3  5 -1 -1</clus>
<clus scale="   46.595">  4  6 -1 -1</clus>
<clus scale="  155.461">  2  3  1 -1</clus>
<clus scale="  155.461">  2  3  1 -1</clus>
</clustering>
</event>
<event>
 6    0  0.1361744E+002  0.2099397E+03  0.7546771E-02  0.1141614E+00
         21   -1    0    0  504  502  0.00000000000E+00  0.00000000000E+00  0.11477811190E+04  0.11477811190E+04  0.00000000000E+00 0.  1.
         -1   -1    0    0    0  501 -0.00000000000E+00 -0.00000000000E+00 -0.34930612159E+03  0.34930612159E+03  0.00000000000E+00 0. -1.
         21    1    1    2  503  505  0.28628549162E+02 -0.11394166781E+03  0.41259238959E+03  0.42899274754E+03  0.00000000000E+00 0.  1.
         21    1    1    2  504  501  0.73507276453E+02  0.17039637117E+02 -0.28404311378E+02  0.80625515995E+02  0.00000000000E+00 0.  1.
         21    1    1    2  505  502  0.28870630436E+02 -0.65853051560E+02  0.66058750894E+03  0.66448927356E+03  0.00000000000E+00 0.  1.
         -1    1    1    2    0  503 -0.13100645605E+03  0.16275508225E+03 -0.24630058978E+03  0.32297970347E+03  0.00000000000E+00 0. -1.
<scales pt_clust_3="71.51134" pt_clust_4="75.45640" pt_clust_5="71.51134" pt_clust_6="188.99508"></scales>
<clustering>
<clus scale="   71.511">  3  5 -1 -1</clus>
<clus scale="   75.456">  2  4  1 -1</clus>
<clus scale="  188.995">  2  6  1 -1</clus>
<clus scale="  209.940">  1  3  2 -1</clus>
</clustering>
</event>
<event>
 6    0  0.1361744E+002  0.1866075E+03  0.7546771E-02  0.1161557E+00
         21   -1    0    0  505  502  0.00000000000E+00  0.00000000000E+00  0.15721054015E+03  0.15721054015E+03  0.00000000000E+00 0.  1.
          2   -1    0    0  503    0 -0.00000000000E+00 -0.00000000000E+00 -0.31234571271E+03  0.31234571271E+03  0.00000000000E+00 0.  1.
         21    1    1    2  503  504  0.66505456093E+02  0.45721819584E+02  0.43429126262E+02  0.91649056100E+02  0.00000000000E+00 0.  1.
         21    1    1    2  504  502  0.52170162574E+02  0.87073013189E+02  0.74951446554E+01  0.10178218254E+03  0.00000000000E+00 0.  1.
         21    1    1    2  505  501 -0.87935037364E+02 -0.65285144964E+02 -0.11822434504E+03  0.16115742834E+03  0.00000000000E+00 0.  1.
          2    1    1    2  501    0 -0.30740581303E+02 -0.67509687808E+02 -0.87835098437E+02  0.11496758589E+03  0.00000000000E+00 0.  1.
<scales pt_clust_3="49.67842" pt_clust_4="49.67842" pt_clust_5="37.40892" pt_clust_6="183.80568"></scales>
<clustering>
<clus scale="   37.409">  5  6 -1 -1</clus>
<clus scale="   49.678">  3  4 -1 -1</clus>
<clus scale="  183.806">  2  5  1 -1</clus>
<clus scale="  186.608">  1  3  2 -1</clus>
</clustering>
</event>
<event>
 6    0  0.1361744E+002  0.1107413E+03  0.7546771E-02  0.1259203E+00
          2   -1    0    0  503    0 -0.00000000000E+00  0.00000000000E+00  0.14235014272E+04  0.14235014272E+04  0.00000000000E+00 0.  1.
         21   -1    0    0  504  502  0.00000000000E+00 -0.00000000000E+00 -0.70885979164E+02  0.70885979164E+02  0.00000000000E+00 0.  1.
         21    1    1    2  503  502  0.31710331650E+02  0.15763551129E+03  0.31368100592E+03  0.35249152192E+03  0.00000000000E+00 0.  1.
         21    1    1    2  504  505  0.15664316308E+02 -0.75138880456E+02 -0.18796261499E+02  0.79022285514E+02  0.00000000000E+00 0.  1.
         21    1    1    2  505  501 -0.87722624915E+01 -0.44415143345E+02  0.32484830551E+03  0.32798792530E+03  0.00000000000E+00 0.  1.
          2    1    1    2  501    0 -0.38602385466E+02 -0.38081487487E+02  0.73288239811E+03  0.73488567363E+03  0.00000000000E+00 0.  1.
<scales pt_clust_3="102.01784" pt_clust_4="76.75430" pt_clust_5="39.36490" pt_clust_6="39.36490"></scales>
<clustering>
<clus scale="   39.365">  5  6 -1 -1</clus>
<clus scale="   76.754">  2  4  1 -1</clus>
<clus scale="  102.018">  2  3  1 -1</clus>
<clus scale="   76.754">  2  3  1 -1</clus>
</clustering>
</event>
<event>
 6    0  0.1361744E+002  0.1894826E+03  0.7546771E-02  0.1158929E+00
          2   -1    0    0  504    0 -0.00000000000E+00  0.00000000000E+00  0.39650861462E+03  0.39650861462E+03  0.00000000000E+00 0.  1.
         21   -1    0    0  503  502  0.00000000000E+00 -0.00000000000E+00 -0.42486603127E+03  0.42486603127E+03  0.00000000000E+00 0. -1.
         21    1    1    2  503  505  0.92083616515E+02 -0.10662692705E+03 -0.33218133804E+03  0.36082285868E+03  0.00000000000E+00 0. -1.
         21    1    1    2  504  502  0.19934684597E+02 -0.33270077204E+02  0.29694825589E+02  0.48847439584E+02  0.00000000000E+00 0. -1.
         21    1    1    2  505  501  0.16034671514E+02 -0.30745540264E+02 -0.26093986410E+02  0.43396947628E+02  0.00000000000E+00 0. -1.
          2    1    1    2  501    0 -0.12805297263E+03  0.17064254451E+03  0.30022308222E+03  0.36830740000E+03  0.00000000000E+00 0.  1.
<scales pt_clust_3="33.17529" pt_clust_4="38.78517" pt_clust_5="33.17529" pt_clust_6="177.29065"></scales>
<clustering>
<clus scale="   33.175">  3  5 -1 -1</clus>
<clus scale="   38.785">  1  4  2 -1</clus>
<clus scale="  177.291">  1  6  2 -1</clus>
<clus scale="  189.483">  2  3  1 -1</clus>
</clustering>
</event>
<event>
 6    0  0.1361744E+002  0.8597854E+02  0.7546771E-02  0.1312893E+00
          2   -1    0    0  505    0 -0.00000000000E+00  0.00000000000E+00  0.20413945913E+04  0.20413945913E+04  0.00000000000E+00 0.  1.
         21   -1    0    0  503  502  0.00000000000E+00 -0.00000000000E+00 -0.86945084960E+02  0.86945084960E+02  0.00000000000E+00 0.  1.
         21    1    1    2  503  504 -0.27306890477E+02 -0.19956787449E+02 -0.36964792997E+02  0.50103248938E+02  0.00000000000E+00 0.  1.
         21    1    1    2  504  501  0.24111089384E+01 -0.66100509619E+02 -0.10595391424E+02  0.66987708854E+02  0.00000000000E+00 0.  1.
         21    1    1    2  505  502  0.85041891714E+02 -0.29970318910E+01  0.88739971805E+03  0.89147033890E+03  0.00000000000E+00 0. -1.
          2    1    1    2  501    0 -0.60146110176E+02  0.89054328958E+02  0.11146099728E+04  0.11197783796E+04  0.00000000000E+00 0.  1.
<scales pt_clust_3="33.82218" pt_clust_4="85.97854" pt_clust_5="83.85389" pt_clust_6="14000.00000"></scales>
<clustering>
<clus scale="   33.822">  2  3  1 -1</clus>
<clus scale="   83.854">  1  5  2 -1</clus>
<clus scale="   85.979">  2  4  1 -1</clus>
<clus scale="   33.822">  2  3  1 -1</clus>
</clustering>
</event>
<event>
 6    0  0.1361744E+002  0.8722699E+02  0.7546771E-02  0.1309709E+00
         21   -1    0    0  504  502  0.00000000000E+00  0.00000000000E+00  0.42117587801E+02  0.42117587801E+02  0.00000000000E+00 0.  1.
          1   -1    0    0  503    0 -0.00000000000E+00 -0.00000000000E+00 -0.98336422690E+03  0.98336422690E+03  0.00000000000E+00 0. -1.
         21    1    1    2  503  505 -0.10235308505E+02  0.32433877575E+02 -0.14235242074E+03  0.14635890695E+03  0.00000000000E+00 0. -1.
         21    1    1    2  504  501  0.20239138866E+02  0.52929828931E+02 -0.35597926327E+02  0.66920862902E+02  0.00000000000E+00 0.  1.
         21    1    1    2  505  502  0.70962731793E+02 -0.65589281350E+02 -0.84674580242E+02  0.12848131253E+03  0.00000000000E+00 0.  1.
          1    1    1    2  501    0 -0.80966562154E+02 -0.19774425157E+02 -0.67862171179E+03  0.68372073231E+03  0.00000000000E+00 0. -1.
<scales pt_clust_3="34.01056" pt_clust_4="58.30919" pt_clust_5="87.22699" pt_clust_6="14000.00000"></scales>
<clustering>
<clus scale="   34.011">  2  3  1 -1</clus>
<clus scale="   58.309">  1  4  2 -1</clus>
<clus scale="   87.227">  1  5  2 -1</clus>
<clus scale="   58.309">  1  3  2 -1</clus>
</clustering>
</event>
<event>
 6    0  0.1361744E+002  0.1421004E+03  0.7546771E-02  0.1210530E+00
         -4   -1    0    0    0  501 -0.00000000000E+00  0.00000000000E+00  0.10838892109E+04  0.10838892109E+04  0.00000000000E+00 0. -1.
         21   -1    0    0  505  502  0.00000000000E+00 -0.00000000000E+00 -0.20645661639E+03  0.20645661639E+03  0.00000000000E+00 0. -1.
         21    1    1    2  503  501  0.41278929001E+02 -0.28103297756E+02  0.11362641181E+03  0.12411569918E+03  0.00000000000E+00 0.  1.
         21    1    1    2  504  502 -0.51749860014E+02  0.58905931719E+02 -0.15618053442E+03  0.17475787861E+03  0.00000000000E+00 0. -1.
         21    1    1    2  505  503 -0.69538820880E+02  0.28228125170E+02  0.95877237593E+01  0.75659758835E+02  0.00000000000E+00 0. -1.
         -4    1    1    2    0  504  0.80009751894E+02 -0.59030759132E+02  0.91039899335E+03  0.91581249064E+03  0.00000000000E+00 0. -1.
<scales pt_clust_3="49.93741" pt_clust_4="142.10041" pt_clust_5="72.89505" pt_clust_6="14000.00000"></scales>
<clustering>
<clus scale="   49.937">  1  3  2 -1</clus>
<clus scale="   72.895">  2  5  1 -1</clus>
<clus scale="  142.100">  2  4  1 -1</clus>
<clus scale="   72.895">  2  3  1 -1</clus>
</clustering>
</event>
<event>
 6    0  0.1361744E+002  0.8964333E+02  0.7546771E-02  0.1303718E+00
         21   -1    0    0  503  502  0.00000000000E+00  0.00000000000E+00  0.52079869210E+02  0.52079869210E+02  0.00000000000E+00 0.  1.
          2   -1    0    0  504    0 -0.00000000000E+00 -0.00000000000E+00 -0.34815551887E+04  0.34815551887E+04  0.00000000000E+00 0.  1.
         21    1    1    2  503  505  0.30898384978E+02  0.23841956043E+01  0.31286862045E+02  0.44037056209E+02  0.00000000000E+00 0.  1.
         21    1    1    2  504  502 -0.89851038213E+02  0.89649627878E+02 -0.12479711593E+04  0.12544091356E+04  0.00000000000E+00 0.  1.
         21    1    1    2  505  501  0.52767702567E+02 -0.64383568476E+01 -0.57947483332E+02  0.78637101279E+02  0.00000000000E+00 0.  1.
          2    1    1    2  501    0  0.61849506683E+01 -0.85595466634E+02 -0.21548435389E+04  0.21565517649E+04  0.00000000000E+00 0.  1.
<scales pt_clust_3="30.99023" pt_clust_4="14000.00000" pt_clust_5="75.08619" pt_clust_6="89.64333"></scales>
<clustering>
<clus scale="   30.990">  1  3  2 -1</clus>
<clus scale="   75.086">  1  5  2 -1</clus>
<clus scale="   89.643">  2  6  1 -1</clus>
<clus scale="   30.990">  1  3  2 -1</clus>
</clustering>
</event>
<event>
 6    0  0.1361744E+002  0.8138394E+02  0.7546771E-02  0.1325169E+00
          1   -1    0    0  503    0 -0.00000000000E+00  0.00000000000E+00  0.11965981958E+04  0.11965981958E+04  0.00000000000E+00 0. -1.
         21   -1    0    0  504  502  0.00000000000E+00 -0.00000000000E+00 -0.10292685850E+03  0.10292685850E+03  0.00000000000E+00 0.  1.
         21    1    1    2  503  505 -0.30674870477E+02  0.12170745107E+03  0.20828687621E+03  0.24318115496E+03  0.00000000000E+00 0.  1.
         21    1    1    2  504  501  0.24078052890E+02 -0.18348029095E+02  0.54374457741E+01  0.30756602855E+02  0.00000000000E+00 0.  1.
         21    1    1    2  505  502 -0.13758792935E+02 -0.28688814738E+02 -0.67690019818E+02  0.74794994867E+02  0.00000000000E+00 0.  1.
          1    1    1    2  501    0  0.20355610521E+02 -0.74670607236E+02  0.94763703518E+03  0.95079230167E+03  0.00000000000E+00 0. -1.
<scales pt_clust_3="81.38394" pt_clust_4="30.27215" pt_clust_5="43.48721" pt_clust_6="14000.00000"></scales>
<clustering>
<clus scale="   30.272">  2  4  1 -1</clus>
<clus scale="   43.487">  2  5  1 -1</clus>
<clus scale="   81.384">  2  3  1 -1</clus>
<clus scale="   30.272">  2  3  1 -1</clus>
</clustering>
</event>
<event>
 6    0  0.1361744E+002  0.1574022E+03  0.7546771E-02  0.1191661E+00
         21   -1    0    0  504  502  0.00000000000E+00  0.00000000000E+00  0.13837789893E+04  0.13837789893E+04  0.00000000000E+00 0.  1.
          2   -1    0    0  503    0 -0.00000000000E+00 -0.00000000000E+00 -0.11475740050E+04  0.11475740050E+04  0.00000000000E+00 0.  1.
         21    1    1    2  503  502  0.13719796430E+03  0.10879092319E+01  0.13179359410E+04  0.13250583420E+04  0.00000000000E+00 0.  1.
         21    1    1    2  504  505  0.66179136810E+01 -0.33566065226E+02  0.51691377511E+02  0.61987708662E+02  0.00000000000E+00 0.  1.
         21    1    1    2  505  501 -0.94669107620E+02  0.13155536126E+02 -0.52761673283E+03  0.53620399554E+03  0.00000000000E+00 0.  1.
          2    1    1    2  501    0 -0.49146770362E+02  0.19322619869E+02 -0.60580560143E+03  0.60810294803E+03  0.00000000000E+00 0.  1.
<scales pt_clust_3="147.38083" pt_clust_4="34.21224" pt_clust_5="41.08171" pt_clust_6="41.08171"></scales>
<clustering>
<clus scale="   34.212">  1  4  2 -1</clus>
<clus scale="   41.082">  5  6 -1 -1</clus>
<clus scale="  147.381">  1  3  2 -1</clus>
<clus scale="   34.212">  1  3  2 -1</clus>
</clustering>
</event>
<event>
 6    0  0.1361744E+002  0.1344933E+03  0.7546771E-02  0.1220937E+00
         21   -1    0    0  503  502  0.00000000000E+00  0.00000000000E+00  0.92369525188E+02  0.92369525188E+02  0.00000000000E+00 0. -1.
          2   -1    0    0  505    0 -0.00000000000E+00 -0.00000000000E+00 -0.36892611410E+04  0.36892611410E+04  0.00000000000E+00 0.  1.
         21    1    1    2  503  501 -0.10819683168E+03 -0.77549814830E+02  0.32841150673E+02  0.13710969821E+03  0.00000000000E+00 0. -1.
         21    1    1    2  504  502  0.19670795833E+02 -0.24626313135E+02 -0.45017648742E+02  0.54954382952E+02  0.00000000000E+00 0. -1.
         21    1    1    2  505  504 -0.10452551835E+02  0.33285562159E+02 -0.22508029265E+03  0.22776813348E+03  0.00000000000E+00 0. -1.
          2    1    1    2  501    0  0.98978587678E+02  0.68890565806E+02 -0.33596348251E+04  0.33617984516E+04  0.00000000000E+00 0.  1.
<scales pt_clust_3="14000.00000" pt_clust_4="31.51818" pt_clust_5="34.43673" pt_clust_6="134.49328"></scales>
<clustering>
<clus scale="   31.518">  1  4  2 -1</clus>
<clus scale="   34.437">  2  5  1 -1</clus>
<clus scale="  134.493">  2  6  1 -1</clus>
<clus scale="   31.518">  1  3  2 -1</clus>
</clustering>
</event>
<event>
 6    0  0.1361744E+002  0.8543130E+02  0.7546771E-02  0.1314308E+00
         21   -1    0    0  503  502  0.00000000000E+00  0.00000000000E+00  0.11792494624E+04  0.11792494624E+04  0.00000000000E+00 0. -1.
          1   -1    0    0  505    0 -0.00000000000E+00 -0.00000000000E+00 -0.12112704276E+03  0.12112704276E+03  0.00000000000E+00 0. -1.
         21    1    1    2  503  501  0.67521622468E+02 -0.41010779800E+02  0.89992022408E+03  0.90338112847E+03  0.00000000000E+00 0. -1.
         21    1    1    2  504  502  0.16258202006E+02  0.11042826149E+03  0.18854564955E+03  0.21910771787E+03  0.00000000000E+00 0. -1.
         21    1    1    2  505  504 -0.38050359651E+02 -0.53785351069E+02  0.50968885568E+02  0.83297786017E+02  0.00000000000E+00 0.  1.
          1    1    1    2  501    0 -0.45729464823E+02 -0.15632130619E+02 -0.81312339588E+02  0.94589872766E+02  0.00000000000E+00 0. -1.
<scales pt_clust_3="77.40914" pt_clust_4="85.43130" pt_clust_5="14000.00000" pt_clust_6="48.32750"></scales>
<clustering>
<clus scale="   48.328">  2  6  1 -1</clus>
<clus scale="   77.409">  1  3  2 -1</clus>
<clus scale="   85.431">  1  4  2 -1</clus>
<clus scale="   77.409">  1  3  2 -1</clus>
</clustering>
</event>
<event>
 6    0  0.1361744E+002  0.1803914E+03  0.7546771E-02  0.1167425E+00
         -2   -1    0    0    0  501 -0.00000000000E+00  0.00000000000E+00  0.58887111157E+03  0.58887111157E+03  0.00000000000E+00 0.  1.
         21   -1    0    0  501  502  0.00000000000E+00 -0.00000000000E+00 -0.55878443351E+02  0.55878443351E+02  0.00000000000E+00 0.  1.
         21    1    1    2  503  504  0.87871455284E+02 -0.40388615856E+02  0.10413414398E+03  0.14211457662E+03  0.00000000000E+00 0.  1.
         21    1    1    2  504  502  0.46836553688E+02 -0.63549440485E+02  0.98478205623E+02  0.12621470251E+03  0.00000000000E+00 0.  1.
         21    1    1    2  505  503 -0.25054835848E+02  0.45247268226E+02  0.62864070482E+02  0.81406089691E+02  0.00000000000E+00 0.  1.
         -2    1    1    2    0  505 -0.10965317312E+03  0.58690788115E+02  0.26751624813E+03  0.29501418610E+03  0.00000000000E+00 0.  1.
<scales pt_clust_3="175.92282" pt_clust_4="40.40027" pt_clust_5="38.64755" pt_clust_6="38.64755"></scales>
<clustering>
<clus scale="   38.648">  5  6 -1 -1</clus>
<clus scale="   40.400">  3  4 -1 -1</clus>
<clus scale="  175.923">  2  3  1 -1</clus>
<clus scale="  175.923">  2  3  1 -1</clus>
</clustering>
</event>
<event>
 6    0  0.1361744E+002  0.1789342E+03  0.7546771E-02  0.1168839E+00
          2   -1    0    0  502    0 -0.00000000000E+00  0.00000000000E+00  0.66569308313E+03  0.66569308313E+03  0.00000000000E+00 0. -1.
         21   -1    0    0  503  502  0.00000000000E+00 -0.00000000000E+00 -0.15439771403E+03  0.15439771403E+03  0.00000000000E+00 0. -1.
         21    1    1    2  503  505  0.33176880704E+02 -0.89620668236E+01 -0.16708138599E+02  0.38212379545E+02  0.00000000000E+00 0. -1.
         21    1    1    2  504  501 -0.32331670857E+02 -0.12830102638E+03  0.62593425835E+02  0.14637085526E+03  0.00000000000E+00 0. -1.
         21    1    1    2  505  504 -0.87822474986E+02 -0.45056472524E+02 -0.27789190042E+02  0.10254321973E+03  0.00000000000E+00 0. -1.
          2    1    1    2  501    0  0.86977265139E+02  0.18231956573E+03  0.49319927191E+03  0.53296434263E+03  0.00000000000E+00 0. -1.
<scales pt_clust_3="34.36603" pt_clust_4="178.93418" pt_clust_5="86.47040" pt_clust_6="14000.00000"></scales>
<clustering>
<clus scale="   34.366">  2  3  1 -1</clus>
<clus scale="   86.470">  2  5  1 -1</clus>
<clus scale="  178.934">  2  4  1 -1</clus>
<clus scale="   34.366">  2  3  1 -1</clus>
</clustering>
</event>
<event>
 6    0  0.1361744E+002  0.7301873E+02  0.7546771E-02  0.1350118E+00
          1   -1    0    0  504    0 -0.00000000000E+00  0.00000000000E+00  0.86316433290E+02  0.86316433290E+02  0.00000000000E+00 0. -1.
         21   -1    0    0  503  502  0.00000000000E+00 -0.00000000000E+00 -0.47338636551E+03  0.47338636551E+03  0.00000000000E+00 0.  1.
         21    1    1    2  503  501  0.33578259546E+01 -0.35227623146E+02 -0.49247960860E+02  0.60643400931E+02  0.00000000000E+00 0. -1.
         21    1    1    2  504  505  0.65246494979E+02  0.69057875281E+02 -0.12029937330E+03  0.15329068616E+03  0.00000000000E+00 0.  1.
         21    1    1    2  505  502 -0.75386766403E+02  0.39756226178E+02 -0.25068041453E+03  0.26477234050E+03  0.00000000000E+00 0.  1.
          1    1    1    2  501    0  0.67824454700E+01 -0.73586478313E+02  0.33157816464E+02  0.80996371214E+02  0.00000000000E+00 0. -1.
<scales pt_clust_3="35.38729" pt_clust_4="14000.00000" pt_clust_5="75.50986" pt_clust_6="73.01873"></scales>
<clustering>
<clus scale="   35.387">  2  3  1 -1</clus>
<clus scale="   75.510">  2  5  1 -1</clus>
<clus scale="   73.019">  1  6  2 -1</clus>
<clus scale="   35.387">  2  3  1 -1</clus>
</clustering>
</event>
<event>
 6    0  0.1361744E+002  0.9355757E+02  0.7546771E-02  0.1294458E+00
         21   -1    0    0  505  502  0.00000000000E+00  0.00000000000E+00  0.32055802812E+03  0.32055802812E+03  0.00000000000E+00 0. -1.
          1   -1    0    0  504    0 -0.00000000000E+00 -0.00000000000E+00 -0.97461312897E+03  0.97461312897E+03  0.00000000000E+00 0. -1.
         21    1    1    2  503  502 -0.50927177348E+01 -0.64553947998E+02  0.14983175956E+03  0.16322592977E+03  0.00000000000E+00 0. -1.
         21    1    1    2  504  503  0.74760841465E+01  0.91418171286E+02 -0.59744877829E+03  0.60444868811E+03  0.00000000000E+00 0. -1.
         21    1    1    2  505  501  0.42606217599E+02 -0.22886737560E+02  0.15545056286E+03  0.16280039935E+03  0.00000000000E+00 0. -1.
          1    1    1    2  501    0 -0.44989584011E+02 -0.39774857275E+01 -0.36188864498E+03  0.36469613986E+03  0.00000000000E+00 0. -1.
<scales pt_clust_3="93.55757" pt_clust_4="14000.00000" pt_clust_5="48.13746" pt_clust_6="45.16506"></scales>
<clustering>
<clus scale="   45.165">  2  6  1 -1</clus>
<clus scale="   48.137">  1  5  2 -1</clus>
<clus scale="   93.558">  1  3  2 -1</clus>
<clus scale="   48.137">  1  3  2 -1</clus>
</clustering>
</event>
<event>
 6    0  0.1361744E+002  0.1019187E+03  0.7546771E-02  0.1276312E+00
         21   -1    0    0  504  502  0.00000000000E+00  0.00000000000E+00  0.19169302663E+03  0.19169302663E+03  0.00000000000E+00 0.  1.
          2   -1    0    0  503    0 -0.00000000000E+00 -0.00000000000E+00 -0.15861800826E+04  0.15861800826E+04  0.00000000000E+00 0.  1.
         21    1    1    2  503  505 -0.50386511106E+02  0.11973632659E+03 -0.31243810038E+03  0.33836837171E+03  0.00000000000E+00 0. -1.
         21    1    1    2  504  501 -0.29989735940E+02 -0.16602368359E+02  0.36092504592E+02  0.49776417957E+02  0.00000000000E+00 0.  1.
         21    1    1    2  505  502 -0.92882200433E+01 -0.55743412636E+02  0.12776285406E+03  0.13970306354E+03  0.00000000000E+00 0.  1.
          2    1    1    2  501    0  0.89664467090E+02 -0.47390545599E+02 -0.12459043143E+04  0.12500252561E+04  0.00000000000E+00 0.  1.
<scales pt_clust_3="14000.00000" pt_clust_4="34.27861" pt_clust_5="79.42329" pt_clust_6="101.91868"></scales>
<clustering>
<clus scale="   34.279">  1  4  2 -1</clus>
<clus scale="   79.423">  1  5  2 -1</clus>
<clus scale="  101.919">  2  6  1 -1</clus>
<clus scale="   34.279">  1  3  2 -1</clus>
</clustering>
</event>
<event>
 6    0  0.1361744E+002  0.1049936E+03  0.7546771E-02  0.1270132E+00
         -2   -1    0    0    0  501 -0.00000000000E+00  0.00000000000E+00  0.10080956138E+04  0.10080956138E+04  0.00000000000E+00 0. -1.
         21   -1    0    0  504  502  0.00000000000E+00 -0.00000000000E+00 -0.11730552827E+03  0.11730552827E+03  0.00000000000E+00 0. -1.
         21    1    1    2  503  505  0.53003860476E+02 -0.44842871620E+02 -0.42750150911E+02  0.81534457522E+02  0.00000000000E+00 0. -1.
         21    1    1    2  504  501 -0.77490675073E+02 -0.87183901154E+02  0.35597500453E+03  0.37459850667E+03  0.00000000000E+00 0. -1.
         21    1    1    2  505  502  0.38140578326E+02  0.19777993549E+02 -0.29270704701E+02  0.51986987772E+02  0.00000000000E+00 0. -1.
         -2    1    1    2    0  503 -0.13653763728E+02  0.11224877923E+03  0.60683593665E+03  0.61728119015E+03  0.00000000000E+00 0. -1.
<scales pt_clust_3="88.72386" pt_clust_4="104.99361" pt_clust_5="42.96362" pt_clust_6="14000.00000"></scales>
<clustering>
<clus scale="   42.964">  2  5  1 -1</clus>
<clus scale="   88.724">  2  3  1 -1</clus>
<clus scale="  104.994">  2  4  1 -1</clus>
<clus scale="   42.964">  2  3  1 -1</clus>
</clustering>
</event>
<event>
 6    0  0.1361744E+002  0.8691754E+02  0.7546771E-02  0.1310493E+00
          3   -1    0    0  503    0 -0.00000000000E+00  0.00000000000E+00  0.52060646005E+03  0.52060646005E+03  0.00000000000E+00 0. -1.
         21   -1    0    0  504  502  0.00000000000E+00 -0.00000000000E+00 -0.33148085273E+03  0.33148085273E+03  0.00000000000E+00 0.  1.
         21    1    1    2  503  505 -0.49715232260E+02 -0.63349560870E+02 -0.51212567025E+02  0.95433213309E+02  0.00000000000E+00 0.  1.
         21    1    1    2  504  501  0.56209264350E+02 -0.45157127315E+02 -0.19025849112E+03  0.20346238224E+03  0.00000000000E+00 0.  1.
         21    1    1    2  505  502 -0.21694209542E+02  0.22081804295E+02 -0.53173259338E+02  0.61527557380E+02  0.00000000000E+00 0.  1.
          3    1    1    2  501    0  0.15200177452E+02  0.86424883889E+02  0.48376992479E+03  0.49166415985E+03  0.00000000000E+00 0. -1.
<scales pt_clust_3="86.91754" pt_clust_4="50.09260" pt_clust_5="30.95553" pt_clust_6="14000.00000"></scales>
<clustering>
<clus scale="   30.956">  2  5  1 -1</clus>
<clus scale="   50.093">  2  4  1 -1</clus>
<clus scale="   86.918">  2  3  1 -1</clus>
<clus scale="   30.956">  2  3  1 -1</clus>
</clustering>
</event>
<event>
 6    0  0.1361744E+002  0.1348066E+03  0.7546771E-02  0.1220493E+00
          2   -1    0    0  505    0 -0.00000000000E+00  0.00000000000E+00  0.30312530417E+04  0.30312530417E+04  0.00000000000E+00 0.  1.
         21   -1    0    0  503  502  0.00000000000E+00 -0.00000000000E+00 -0.28407002049E+03  0.28407002049E+03  0.00000000000E+00 0. -1.
         21    1    1    2  503  504  0.67316375144E+02 -0.32238029543E+02 -0.56704170651E+02  0.93734454074E+02  0.00000000000E+00 0. -1.
         21    1    1    2  504  501  0.30136585836E+02  0.23756547770E+02  0.87390554379E+03  0.87474767038E+03  0.00000000000E+00 0.  1.
         21    1    1    2  505  502 -0.98149336349E+02 -0.88024953234E+02 -0.18637101478E+03  0.22828893921E+03  0.00000000000E+00 0. -1.
          2    1    1    2  501    0  0.69637536856E+00  0.96506435007E+02  0.21163526629E+04  0.21185519986E+04  0.00000000000E+00 0.  1.
<scales pt_clust_3="74.63769" pt_clust_4="33.27683" pt_clust_5="124.04804" pt_clust_6="33.27683"></scales>
<clustering>
<clus scale="   33.277">  4  6 -1 -1</clus>
<clus scale="   74.638">  2  3  1 -1</clus>
<clus scale="  124.048">  2  5  1 -1</clus>
<clus scale="   74.638">  2  3  1 -1</clus>
</clustering>
</event>
<event>
 6    0  0.1361744E+002  0.1529497E+03  0.7546771E-02  0.1196895E+00
         21   -1    0    0  503  502  0.00000000000E+00  0.00000000000E+00  0.19978227900E+04  0.19978227900E+04  0.00000000000E+00 0. -1.
          2   -1    0    0  504    0 -0.00000000000E+00 -0.00000000000E+00 -0.38266705127E+03  0.38266705127E+03  0.00000000000E+00 0. -1.
         21    1    1    2  503  501 -0.62679660279E+01  0.84533617928E+02  0.35988016410E+02  0.92088855370E+02  0.00000000000E+00 0. -1.
         21    1    1    2  504  505  0.53560240221E+02  0.10140564014E+03  0.59527034572E+03  0.60621661779E+03  0.00000000000E+00 0. -1.
         21    1    1    2  505  502  0.41667202255E+02 -0.60156195734E+02  0.13149786528E+04  0.13170132045E+04  0.00000000000E+00 0. -1.
          2    1    1    2  501    0 -0.88959476448E+02 -0.12578306234E+03 -0.33108127623E+03  0.36517116355E+03  0.00000000000E+00 0. -1.
<scales pt_clust_3="78.91877" pt_clust_4="152.94969" pt_clust_5="73.17734" pt_clust_6="14000.00000"></scales>
<clustering>
<clus scale="   73.177">  1  5  2 -1</clus>
<clus scale="   78.919">  1  3  2 -1</clus>
<clus scale="  152.950">  1  4  2 -1</clus>
<clus scale="   73.177">  1  3  2 -1</clus>
</clustering>
</event>
<event>
 6    0  0.1361744E+002  0.1278695E+03  0.7546771E-02  0.1230652E+00
         21   -1    0    0  505  502  0.00000000000E+00  0.00000000000E+00  0.76584427370E+02  0.76584427370E+02  0.00000000000E+00 0.  1.
          1   -1    0    0  503    0 -0.00000000000E+00 -0.00000000000E+00 -0.16158800239E+04  0.16158800239E+04  0.00000000000E+00 0.  1.
         21    1    1    2  503  504  0.69791238871E+02  0.11925347303E+02  0.14703995978E+01  0.70818027411E+02  0.00000000000E+00 0.  1.
         21    1    1    2  504  502  0.71722430111E+02  0.53539648592E+02 -0.29401217284E+02  0.94207391059E+02  0.00000000000E+00 0.  1.
         21    1    1    2  505  501 -0.29516413081E+02 -0.28478112691E+02 -0.69071733589E+02  0.80331350820E+02  0.00000000000E+00 0. -1.
          1    1    1    2  501    0 -0.11199725590E+03 -0.36986883204E+02 -0.14422930453E+04  0.14471076820E+04  0.00000000000E+00 0.  1.
<scales pt_clust_3="40.67293" pt_clust_4="40.67293" pt_clust_5="41.01489" pt_clust_6="119.20208"></scales>
<clustering>
<clus scale="   41.015">  1  5  2 -1</clus>
<clus scale="   40.673">  3  4 -1 -1</clus>
<clus scale="  119.202">  2  6  1 -1</clus>
<clus scale="   41.015">  1  3  2 -1</clus>
</clustering>
</event>
<event>
 6    0  0.1361744E+002  0.8439021E+02  0.7546771E-02  0.1317035E+00
          2   -1    0    0  503    0 -0.00000000000E+00  0.00000000000E+00  0.15525906938E+04  0.15525906938E+04  0.00000000000E+00 0.  1.
         21   -1    0    0  505  502  0.00000000000E+00 -0.00000000000E+00 -0.75870164179E+03  0.75870164179E+03  0.00000000000E+00 0. -1.
         21    1    1    2  503  504  0.12091590215E+03  0.23834712752E+02  0.37366106911E+03  0.39346072675E+03  0.00000000000E+00 0. -1.
         21    1    1    2  504  502 -0.28596615327E+02 -0.20783982607E+02 -0.60464502042E+03  0.60567758838E+03  0.00000000000E+00 0. -1.
         21    1    1    2  505  501 -0.15439072037E+02 -0.27601965279E+02 -0.14048695872E+03  0.14400284373E+03  0.00000000000E+00 0. -1.
          2    1    1    2  501    0 -0.76880214787E+02  0.24551235133E+02  0.11653599620E+04  0.11681511767E+04  0.00000000000E+00 0.  1.
<scales pt_clust_3="84.39021" pt_clust_4="64.86000" pt_clust_5="31.62647" pt_clust_6="14000.00000"></scales>
<clustering>
<clus scale="   31.626">  2  5  1 -1</clus>
<clus scale="   64.860">  2  4  1 -1</clus>
<clus scale="   84.390">  2  3  1 -1</clus>
<clus scale="   31.626">  2  3  1 -1</clus>
</clustering>
</event>
<event>
 6    0  0.1361744E+002  0.1144880E+03  0.7546771E-02  0.1252477E+00
          1   -1    0    0  504    0 -0.00000000000E+00  0.00000000000E+00  0.13569143372E+04  0.13569143372E+04  0.00000000000E+00 0.  1.
         21   -1    0    0  503  502  0.00000000000E+00 -0.00000000000E+00 -0.99474704929E+02  0.99474704929E+02  0.00000000000E+00 0.  1.
         21    1    1    2  503  501  0.47747368172E+02  0.15477690414E+02  0.13745537974E+02  0.52041424674E+02  0.00000000000E+00 0.  1.
         21    1    1    2  504  505 -0.54226658329E+02  0.44745772968E+02  0.39979597534E+03  0.40593045780E+03  0.00000000000E+00 0. -1.
         21    1    1    2  505  502  0.50563032947E+02  0.53345690549E+02 -0.54685665848E+02  0.91612799598E+02  0.00000000000E+00 0.  1.
          1    1    1    2  501    0 -0.44083742790E+02 -0.11356915393E+03  0.89858378480E+03  0.90680436005E+03  0.00000000000E+00 0.  1.
<scales pt_clust_3="50.19333" pt_clust_4="69.29318" pt_clust_5="14000.00000" pt_clust_6="114.48802"></scales>
<clustering>
<clus scale="   50.193">  2  3  1 -1</clus>
<clus scale="   69.293">  1  4  2 -1</clus>
<clus scale="  114.488">  1  6  2 -1</clus>
<clus scale="   50.193">  2  3  1 -1</clus>
</clustering>
</event>
<event>
 6    0  0.1361744E+002  0.9773466E+02  0.7546771E-02  0.1285133E+00
          2   -1    0    0  502    0 -0.00000000000E+00  0.00000000000E+00  0.25724547441E+04  0.25724547441E+04  0.00000000000E+00 0. -1.
         21   -1    0    0  503  502  0.00000000000E+00 -0.00000000000E+00 -0.11229874031E+02  0.11229874031E+02  0.00000000000E+00 0.  1.
         21    1    1    2  503  504  0.87796296897E+02  0.42764552979E+02  0.31928571043E+03  0.33388674970E+03  0.00000000000E+00 0.  1.
         21    1    1    2  504  505 -0.12803193720E+01 -0.59821939192E+02  0.41339569171E+03  0.41770360490E+03  0.00000000000E+00 0.  1.
         21    1    1    2  505  501 -0.25570703538E+02 -0.24727361295E+02  0.37804228079E+03  0.37971208743E+03  0.00000000000E+00 0.  1.
          2    1    1    2  501    0 -0.60945273987E+02  0.41784747508E+02  0.14505011872E+04  0.14523821761E+04  0.00000000000E+00 0. -1.
<scales pt_clust_3="89.01631" pt_clust_4="31.11124" pt_clust_5="31.11124" pt_clust_6="73.89379"></scales>
<clustering>
<clus scale="   31.111">  4  5 -1 -1</clus>
<clus scale="   73.894">  1  6  2 -1</clus>
<clus scale="   89.016">  2  3  1 -1</clus>
<clus scale="   89.016">  2  3  1 -1</clus>
</clustering>
</event>
<event>
 6    0  0.1361744E+002  0.1608834E+03  0.7546771E-02  0.1187703E+00
         -1   -1    0    0    0  501 -0.00000000000E+00  0.00000000000E+00  0.72249730756E+03  0.72249730756E+03  0.00000000000E+00 0.  1.
         21   -1    0    0  504  502  0.00000000000E+00 -0.00000000000E+00 -0.14153950617E+03  0.14153950617E+03  0.00000000000E+00 0.  1.
         21    1    1    2  503  502 -0.47507985331E+02  0.29183314478E+02  0.14954048251E+03  0.15959646118E+03  0.00000000000E+00 0.  1.
         21    1    1    2  504  505  0.60392757709E+02 -0.79415122906E+02 -0.73581710020E+02  0.12396900814E+03  0.00000000000E+00 0.  1.
         21    1    1    2  505  501  0.50017713049E+02 -0.24225410510E+02 -0.98804669910E+01  0.56447017290E+02  0.00000000000E+00 0.  1.
         -1    1    1    2    0  503 -0.62902485426E+02  0.74457218938E+02  0.51487949589E+03  0.52402432712E+03  0.00000000000E+00 0.  1.
<scales pt_clust_3="41.09017" pt_clust_4="159.95001" pt_clust_5="38.43643" pt_clust_6="41.09017"></scales>
<clustering>
<clus scale="   38.436">  4  5 -1 -1</clus>
<clus scale="   41.090">  3  6 -1 -1</clus>
<clus scale="  159.950">  2  4  1 -1</clus>
<clus scale="  159.950">  2  3  1 -1</clus>
</clustering>
</event>
<event>
 6    0  0.1361744E+002  0.7955474E+02  0.7546771E-02  0.1330320E+00
          1   -1    0    0  505    0 -0.00000000000E+00  0.00000000000E+00  0.49778827081E+03  0.49778827081E+03  0.00000000000E+00 0. -1.
         21   -1    0    0  503  502  0.00000000000E+00 -0.00000000000E+00 -0.14046151085E+03  0.14046151085E+03  0.00000000000E+00 0. -1.
         21    1    1    2  503  504  0.46965251873E+02  0.16129805087E+02 -0.73403702903E+02  0.88622847480E+02  0.00000000000E+00 0. -1.
         21    1    1    2  504  501  0.66076634370E+02  0.17474255769E+02  0.13466307289E+03  0.15101527877E+03  0.00000000000E+00 0. -1.
         21    1    1    2  505  502 -0.42859863059E+02  0.24643404973E+02 -0.31474935322E+02  0.58608334080E+02  0.00000000000E+00 0. -1.
          1    1    1    2  501    0 -0.70182023184E+02 -0.58247465830E+02  0.32754232530E+03  0.34000332133E+03  0.00000000000E+00 0. -1.
<scales pt_clust_3="38.53245" pt_clust_4="79.55474" pt_clust_5="49.43951" pt_clust_6="14000.00000"></scales>
<clustering>
<clus scale="   49.440">  2  5  1 -1</clus>
<clus scale="   38.532">  2  3  1 -1</clus>
<clus scale="   79.555">  2  4  1 -1</clus>
<clus scale="   49.440">  2  3  1 -1</clus>
</clustering>
</event>
<event>
 6    0  0.1361744E+002  0.1235342E+03  0.7546771E-02  0.1237378E+00
          2   -1    0    0  504    0 -0.00000000000E+00  0.00000000000E+00  0.12004652582E+04  0.12004652582E+04  0.00000000000E+00 0. -1.
         21   -1    0    0  503  502  0.00000000000E+00 -0.00000000000E+00 -0.13601389531E+03  0.13601389531E+03  0.00000000000E+00 0. -1.
         21    1    1    2  503  505 -0.74806129942E+02 -0.52376853840E+01 -0.99770572459E+02  0.12481008595E+03  0.00000000000E+00 0. -1.
         21    1    1    2  504  502 -0.58337182488E+02  0.68928656901E+01  0.29419580450E+02  0.65698174799E+02  0.00000000000E+00 0. -1.
         21    1    1    2  505  501  0.89074172870E+02 -0.28810554768E+02  0.47478028608E+03  0.48392207677E+03  0.00000000000E+00 0. -1.
          2    1    1    2  501    0  0.44069139560E+02  0.27155374462E+02  0.66002206886E+03  0.66204881603E+03  0.00000000000E+00 0. -1.
<scales pt_clust_3="123.53417" pt_clust_4="55.23812" pt_clust_5="14000.00000" pt_clust_6="51.76392"></scales>
<clustering>
<clus scale="   51.764">  1  6  2 -1</clus>
<clus scale="   55.238">  2  4  1 -1</clus>
<clus scale="  123.534">  2  3  1 -1</clus>
<clus scale="   55.238">  2  3  1 -1</clus>
</clustering>
</event>
<event>
 6    0  0.1361744E+002  0.1302017E+03  0.7546771E-02  0.1227157E+00
         21   -1    0    0  504  502  0.00000000000E+00  0.00000000000E+00  0.14199202760E+03  0.14199202760E+03  0.00000000000E+00 0.  1.
         -3   -1    0    0    0  501 -0.00000000000E+00 -0.00000000000E+00 -0.50015211274E+03  0.50015211274E+03  0.00000000000E+00 0.  1.
         21    1    1    2  503  505  0.67468701871E+02 -0.21068642582E+02  0.14471948579E+02  0.72148116594E+02  0.00000000000E+00 0.  1.
         21    1    1    2  504  503  0.43307225035E+02 -0.11745835481E+02  0.46774191245E+02  0.64817477257E+02  0.00000000000E+00 0.  1.
         21    1    1    2  505  501  0.77113348679E+02  0.38734007275E+02 -0.18935097462E+03  0.20808792241E+03  0.00000000000E+00 0.  1.
         -3    1    1    2    0  502 -0.18788927559E+03 -0.59195292127E+01 -0.23005525034E+03  0.29709062408E+03  0.00000000000E+00 0.  1.
<scales pt_clust_3="32.46669" pt_clust_4="32.46669" pt_clust_5="86.29480" pt_clust_6="123.66124"></scales>
<clustering>
<clus scale="   32.467">  3  4 -1 -1</clus>
<clus scale="   86.295">  2  5  1 -1</clus>
<clus scale="  123.661">  2  6  1 -1</clus>
<clus scale="  130.202">  1  3  2 -1</clus>
</clustering>
</event>
<event>
 6    0  0.1361744E+002  0.1744241E+03  0.7546771E-02  0.1173311E+00
          2   -1    0    0  505    0 -0.00000000000E+00  0.00000000000E+00  0.70957510598E+03  0.70957510598E+03  0.00000000000E+00 0. -1.
         21   -1    0    0  503  502  0.00000000000E+00 -0.00000000000E+00 -0.24572008257E+03  0.24572008257E+03  0.00000000000E+00 0.  1.
         21    1    1    2  503  504 -0.34637647306E+02  0.63303856063E+02 -0.11391001155E+03  0.13484300328E+03  0.00000000000E+00 0.  1.
         21    1    1    2  504  501 -0.75954007441E+02  0.74782634757E+02 -0.75142404400E+02  0.13041408914E+03  0.00000000000E+00 0.  1.
         21    1    1    2  505  502  0.90381160604E+02 -0.58288939869E+02  0.17736752550E+03  0.20742611650E+03  0.00000000000E+00 0.  1.
          2    1    1    2  501    0  0.20210494143E+02 -0.79797550952E+02  0.47553991386E+03  0.48261197963E+03  0.00000000000E+00 0. -1.
<scales pt_clust_3="47.42407" pt_clust_4="47.42407" pt_clust_5="164.62582" pt_clust_6="82.31715"></scales>
<clustering>
<clus scale="   47.424">  3  4 -1 -1</clus>
<clus scale="   82.317">  1  6  2 -1</clus>
<clus scale="  164.626">  1  5  2 -1</clus>
<clus scale="  174.424">  2  3  1 -1</clus>
</clustering>
</event>
<event>
 6    0  0.1361744E+002  0.2456205E+03  0.7546771E-02  0.1116104E+00
          2   -1    0    0  504    0 -0.00000000000E+00  0.00000000000E+00  0.14095547425E+04  0.14095547425E+04  0.00000000000E+00 0. -1.
         21   -1    0    0  505  502  0.00000000000E+00 -0.00000000000E+00 -0.32721097893E+03  0.32721097893E+03  0.00000000000E+00 0.  1.
         21    1    1    2  503  501  0.48928637724E+02 -0.95797739476E+02 -0.66129246689E+02  0.12627072403E+03  0.00000000000E+00 0.  1.
         21    1    1    2  504  502  0.50840047730E+01 -0.38739366175E+02  0.94735066876E+02  0.10247594104E+03  0.00000000000E+00 0. -1.
         21    1    1    2  505  503  0.25613765388E+02 -0.12182933786E+03 -0.19467086063E+03  0.23107400659E+03  0.00000000000E+00 0.  1.
          2    1    1    2  501    0 -0.79626407885E+02  0.25636644351E+03  0.12484088040E+04  0.12769450498E+04  0.00000000000E+00 0. -1.
<scales pt_clust_3="76.56278" pt_clust_4="39.07154" pt_clust_5="76.56278" pt_clust_6="231.44972"></scales>
<clustering>
<clus scale="   39.072">  1  4  2 -1</clus>
<clus scale="   76.563">  3  5 -1 -1</clus>
<clus scale="  231.450">  1  6  2 -1</clus>
<clus scale="  245.620">  2  3  1 -1</clus>
</clustering>
</event>
<event>
 6    0  0.1361744E+002  0.1177973E+03  0.7546771E-02  0.1246776E+00
          1   -1    0    0  505    0 -0.00000000000E+00  0.00000000000E+00  0.14365769128E+03  0.14365769128E+03  0.00000000000E+00 0.  1.
         21   -1    0    0  501  502  0.00000000000E+00 -0.00000000000E+00 -0.30607908971E+03  0.30607908971E+03  0.00000000000E+00 0.  1.
         21    1    1    2  503  502  0.33923731131E+02 -0.76772296747E+02 -0.54922637728E+02  0.10030603779E+03  0.00000000000E+00 0.  1.
         21    1    1    2  504  503 -0.62300299566E+02 -0.13776859651E+01 -0.14127046730E+03  0.15440391924E+03  0.00000000000E+00 0.  1.
         21    1    1    2  505  504 -0.39533496687E+02 -0.15301106150E+02 -0.39735517518E+02  0.58102775856E+02  0.00000000000E+00 0.  1.
          1    1    1    2  501    0  0.67910065122E+02  0.93451088862E+02  0.73507224115E+02  0.13692404811E+03  0.00000000000E+00 0.  1.
<scales pt_clust_3="83.93334" pt_clust_4="34.47976" pt_clust_5="34.47976" pt_clust_6="110.12986"></scales>
<clustering>
<clus scale="   34.480">  4  5 -1 -1</clus>
<clus scale="   83.933">  2  3  1 -1</clus>
<clus scale="  110.130">  1  6  2 -1</clus>
<clus scale="   83.933">  2  3  1 -1</clus>
</clustering>
</event>
<event>
 6    0  0.1361744E+002  0.9648120E+02  0.7546771E-02  0.1287874E+00
         21   -1    0    0  501  502  0.00000000000E+00  0.00000000000E+00  0.37665302148E+03  0.37665302148E+03  0.00000000000E+00 0.  1.
          2   -1    0    0  505    0 -0.00000000000E+00 -0.00000000000E+00 -0.39009153018E+04  0.39009153018E+04  0.00000000000E+00 0. -1.
         21    1    1    2  503  504  0.91450038590E+02 -0.54925440874E+02 -0.36632895361E+02  0.11279132341E+03  0.00000000000E+00 0.  1.
         21    1    1    2  504  502  0.18079596340E+01  0.30442288166E+02  0.33592936847E+03  0.33731075024E+03  0.00000000000E+00 0.  1.
         21    1    1    2  505  503 -0.36368027224E+01  0.34997064932E+02 -0.22148358792E+03  0.22426101000E+03  0.00000000000E+00 0. -1.
          2    1    1    2  501    0 -0.89621195501E+02 -0.10513912224E+02 -0.36020751655E+04  0.36032052397E+04  0.00000000000E+00 0. -1.
<scales pt_clust_3="14000.00000" pt_clust_4="30.49593" pt_clust_5="36.22981" pt_clust_6="96.48120"></scales>
<clustering>
<clus scale="   30.496">  1  4  2 -1</clus>
<clus scale="   36.230">  2  5  1 -1</clus>
<clus scale="   96.481">  2  6  1 -1</clus>
<clus scale="   30.496">  1  3  2 -1</clus>
</clustering>
</event>
<event>
 6    0  0.1361744E+002  0.1247572E+03  0.7546771E-02  0.1235449E+00
         21   -1    0    0  505  502  0.00000000000E+00  0.00000000000E+00  0.33613460915E+03  0.33613460915E+03  0.00000000000E+00 0.  1.
          1   -1    0    0  504    0 -0.00000000000E+00 -0.00000000000E+00 -0.11220081043E+04  0.11220081043E+04  0.00000000000E+00 0. -1.
         21    1    1    2  503  502 -0.72635254234E+02 -0.24089207528E+02  0.23829719472E+03  0.25028328567E+03  0.00000000000E+00 0.  1.
         21    1    1    2  504  503  0.16011694420E+02 -0.57627279791E+02 -0.52515475306E+02  0.79593673624E+02  0.00000000000E+00 0. -1.
         21    1    1    2  505  501 -0.55903354205E+02  0.17665469521E+02  0.62698730234E+02  0.85839295185E+02  0.00000000000E+00 0. -1.
          1    1    1    2  501    0  0.11252691402E+03  0.64051017798E+02 -0.10343539448E+04  0.10424264590E+04  0.00000000000E+00 0. -1.
<scales pt_clust_3="124.75719" pt_clust_4="58.21203" pt_clust_5="58.62810" pt_clust_6="14000.00000"></scales>
<clustering>
<clus scale="   58.628">  1  5  2 -1</clus>
<clus scale="   58.212">  2  4  1 -1</clus>
<clus scale="  124.757">  1  3  2 -1</clus>
<clus scale="   58.628">  1  3  2 -1</clus>
</clustering>
</event>
<event>
 6    0  0.1361744E+002  0.1012604E+03  0.7546771E-02  0.1277668E+00
          1   -1    0    0  505    0 -0.00000000000E+00  0.00000000000E+00  0.57208418653E+03  0.57208418653E+03  0.00000000000E+00 0.  1.
         21   -1    0    0  503  502  0.00000000000E+00 -0.00000000000E+00 -0.19750031016E+03  0.19750031016E+03  0.00000000000E+00 0.  1.
         21    1    1    2  503  501 -0.12107933458E+03 -0.64973005346E+02 -0.11556043183E+03  0.17954361612E+03  0.00000000000E+00 0.  1.
         21    1    1    2  504  502  0.10255244604E+02  0.51015770760E+02 -0.21971403906E+02  0.56484701448E+02  0.00000000000E+00 0.  1.
         21    1    1    2  505  504  0.64883546843E+02 -0.16321363850E+02  0.11824296072E+03  0.13585896852E+03  0.00000000000E+00 0.  1.
          1    1    1    2  501    0  0.45940543132E+02  0.30278598436E+02  0.39387275138E+03  0.39769721059E+03  0.00000000000E+00 0.  1.
<scales pt_clust_3="101.26036" pt_clust_4="52.03632" pt_clust_5="14000.00000" pt_clust_6="55.46559"></scales>
<clustering>
<clus scale="   52.036">  2  4  1 -1</clus>
<clus scale="   55.466">  1  6  2 -1</clus>
<clus scale="  101.260">  2  3  1 -1</clus>
<clus scale="   52.036">  2  3  1 -1</clus>
</clustering>
</event>
<event>
 6    0  0.1361744E+002  0.3334237E+03  0.7546771E-02  0.1069632E+00
         21   -1    0    0  505  502  0.00000000000E+00  0.00000000000E+00  0.69583231993E+02  0.69583231993E+02  0.00000000000E+00 0. -1.
          2   -1    0    0  504    0 -0.00000000000E+00 -0.00000000000E+00 -0.17073359236E+04  0.17073359236E+04  0.00000000000E+00 0.  1.
         21    1    1    2  503  502 -0.21272151404E+03  0.18574809579E+03 -0.43500777413E+03  0.51863721538E+03  0.00000000000E+00 0. -1.
         21    1    1    2  504  503 -0.16461056233E+02  0.39275366922E+02 -0.13686275776E+03  0.14333504554E+03  0.00000000000E+00 0. -1.
         21    1    1    2  505  501  0.10881584591E+03 -0.14699587206E+03 -0.63516350078E+03  0.66097000496E+03  0.00000000000E+00 0.  1.
          2    1    1    2  501    0  0.12036672437E+03 -0.78027590651E+02 -0.43071865890E+03  0.45397688968E+03  0.00000000000E+00 0.  1.
<scales pt_clust_3="34.75697" pt_clust_4="34.75697" pt_clust_5="54.89129" pt_clust_6="327.11130"></scales>
<clustering>
<clus scale="   34.757">  3  4 -1 -1</clus>
<clus scale="   54.891">  5  6 -1 -1</clus>
<clus scale="  327.111">  2  5  1 -1</clus>
<clus scale="  333.424">  1  3  2 -1</clus>
</clustering>
</event>
<event>
 6    0  0.1361744E+002  0.1247729E+03  0.7546771E-02  0.1235425E+00
         21   -1    0    0  504  502  0.00000000000E+00  0.00000000000E+00  0.69195484764E+03  0.69195484764E+03  0.00000000000E+00 0. -1.
          2   -1    0    0  503    0 -0.00000000000E+00 -0.00000000000E+00 -0.62226620369E+03  0.62226620369E+03  0.00000000000E+00 0. -1.
         21    1    1    2  503  502  0.27048307885E+02 -0.60894336284E+02  0.11505974344E+03  0.13296042912E+03  0.00000000000E+00 0. -1.
         21    1    1    2  504  505 -0.40039091768E+02 -0.67049666194E+02  0.55446648171E+03  0.55993916272E+03  0.00000000000E+00 0. -1.
         21    1    1    2  505  501 -0.97027648948E+01  0.92990104438E+02 -0.21782296503E+03  0.23704039163E+03  0.00000000000E+00 0. -1.
          2    1    1    2  501    0  0.22693548779E+02  0.34953898040E+02 -0.38201461617E+03  0.38428106786E+03  0.00000000000E+00 0. -1.
<scales pt_clust_3="65.79342" pt_clust_4="14000.00000" pt_clust_5="124.77292" pt_clust_6="41.67460"></scales>
<clustering>
<clus scale="   41.675">  2  6  1 -1</clus>
<clus scale="   65.793">  1  3  2 -1</clus>
<clus scale="  124.773">  2  5  1 -1</clus>
<clus scale="   65.793">  1  3  2 -1</clus>
</clustering>
</event>
<event>
 6    0  0.1361744E+002  0.2759955E+03  0.7546771E-02  0.1097896E+00
         21   -1    0    0  503  502  0.00000000000E+00  0.00000000000E+00  0.94389457036E+03  0.94389457036E+03  0.00000000000E+00 0.  1.
          2   -1    0    0  505    0 -0.00000000000E+00 -0.00000000000E+00 -0.78887254111E+03  0.78887254111E+03  0.00000000000E+00 0. -1.
         21    1    1    2  503  504  0.90964679066E+02  0.69814167865E+02  0.26994098821E+03  0.29328608557E+03  0.00000000000E+00 0.  1.
         21    1    1    2  504  501  0.38812964172E+02  0.14987679660E+03  0.61410209354E+03  0.63331736250E+03  0.00000000000E+00 0.  1.
         21    1    1    2  505  502 -0.10166812055E+03 -0.32975314921E+01 -0.11007949942E+03  0.14988254282E+03  0.00000000000E+00 0. -1.
          2    1    1    2  501    0 -0.28109522692E+02 -0.21639343297E+03 -0.61894155308E+03  0.65628112058E+03  0.00000000000E+00 0. -1.
<scales pt_clust_3="94.09955" pt_clust_4="94.09955" pt_clust_5="101.72158" pt_clust_6="253.41288"></scales>
<clustering>
<clus scale="   94.100">  3  4 -1 -1</clus>
<clus scale="  101.722">  2  5  1 -1</clus>
<clus scale="  253.413">  2  6  1 -1</clus>
<clus scale="  275.995">  1  3  2 -1</clus>
</clustering>
</event>
<event>
 6    0  0.1361744E+002  0.1325786E+03  0.7546771E-02  0.1223679E+00
         21   -1    0    0  503  502  0.00000000000E+00  0.00000000000E+00  0.16028604344E+03  0.16028604344E+03  0.00000000000E+00 0.  1.
          2   -1    0    0  504    0 -0.00000000000E+00 -0.00000000000E+00 -0.68046556773E+03  0.68046556773E+03  0.00000000000E+00 0. -1.
         21    1    1    2  503  505 -0.14466119203E+03 -0.73416493847E+02 -0.66810099829E+02  0.17544352792E+03  0.00000000000E+00 0.  1.
         21    1    1    2  504  502  0.12694182688E+03 -0.46893563589E+02  0.48148689025E+02  0.14363679881E+03  0.00000000000E+00 0.  1.
         21    1    1    2  505  501 -0.52041819955E+01  0.75032083932E+02 -0.16482008942E+03  0.18116997270E+03  0.00000000000E+00 0. -1.
          2    1    1    2  501    0  0.22923547145E+02  0.45277973503E+02 -0.33669802406E+03  0.34050131175E+03  0.00000000000E+00 0. -1.
<scales pt_clust_3="14000.00000" pt_clust_4="132.57856" pt_clust_5="98.15279" pt_clust_6="50.75021"></scales>
<clustering>
<clus scale="   50.750">  2  6  1 -1</clus>
<clus scale="   98.153">  2  5  1 -1</clus>
<clus scale="  132.579">  1  4  2 -1</clus>
<clus scale="  132.579">  1  3  2 -1</clus>
</clustering>
</event>
<event>
 6    0  0.1361744E+002  0.1225999E+03  0.7546771E-02  0.1238869E+00
         21   -1    0    0  504  502  0.00000000000E+00  0.00000000000E+00  0.56836778559E+03  0.56836778559E+03  0.00000000000E+00 0. -1.
          2   -1    0    0  505    0 -0.00000000000E+00 -0.00000000000E+00 -0.12052865620E+04  0.12052865620E+04  0.00000000000E+00 0. -1.
         21    1    1    2  503  502 -0.73122950819E+02 -0.27798834256E+02  0.10117791974E+03  0.12789336404E+03  0.00000000000E+00 0. -1.
         21    1    1    2  504  501 -0.52828583187E+02  0.24558927926E+02  0.44715112255E+03  0.45093029011E+03  0.00000000000E+00 0. -1.
         21    1    1    2  505  503  0.35507672253E+02  0.20779614759E+00 -0.10587001493E+03  0.11166601107E+03  0.00000000000E+00 0. -1.
          2    1    1    2  501    0  0.90443861753E+02  0.30321101825E+01 -0.10793778037E+04  0.10831646823E+04  0.00000000000E+00 0. -1.
<scales pt_clust_3="122.59987" pt_clust_4="58.20272" pt_clust_5="35.50828" pt_clust_6="14000.00000"></scales>
<clustering>
<clus scale="   35.508">  2  5  1 -1</clus>
<clus scale="   58.203">  1  4  2 -1</clus>
<clus scale="  122.600">  1  3  2 -1</clus>
<clus scale="   58.203">  1  3  2 -1</clus>
</clustering>
</event>
<event>
 6    0  0.1509011E+002  0.1344316E+03  0.7546771E-02  0.1221024E+00
         21   -1    0    0  504  502  0.00000000000E+00  0.00000000000E+00  0.25387813107E+03  0.25387813107E+03  0.00000000000E+00 0. -1.
          3   -1    0    0  505    0 -0.00000000000E+00 -0.00000000000E+00 -0.64368931307E+03  0.64368931307E+03  0.00000000000E+00 0. -1.
         21    1    1    2  503  501  0.36342615488E+02  0.15070932518E+02  0.35589979994E+02  0.53052477637E+02  0.00000000000E+00 0. -1.
         21    1    1    2  504  503  0.63586234514E+02  0.62716621545E+02  0.19110823481E+03  0.21094772160E+03  0.00000000000E+00 0. -1.
         21    1    1    2  505  502 -0.16634944396E+02 -0.25920552750E+02 -0.50770768528E+02  0.59382382631E+02  0.00000000000E+00 0.  1.
          3    1    1    2  501    0 -0.83293905606E+02 -0.51867001312E+02 -0.56573862827E+03  0.57418486227E+03  0.00000000000E+00 0. -1.
<scales pt_clust_3="31.54279" pt_clust_4="31.54279" pt_clust_5="30.79929" pt_clust_6="125.71598"></scales>
<clustering>
<clus scale="   30.799">  2  5  1 -1</clus>
<clus scale="   31.543">  3  4 -1 -1</clus>
<clus scale="  125.716">  2  6  1 -1</clus>
<clus scale="  134.432">  1  3  2 -1</clus>
</clustering>
</event>
<event>
 6    0  0.1361744E+002  0.1317288E+03  0.7546771E-02  0.1224913E+00
         -1   -1    0    0    0  501 -0.00000000000E+00  0.00000000000E+00  0.11542080167E+03  0.11542080167E+03  0.00000000000E+00 0. -1.
         21   -1    0    0  504  502  0.00000000000E+00 -0.00000000000E+00 -0.39670899448E+03  0.39670899448E+03  0.00000000000E+00 0. -1.
         21    1    1    2  503  501 -0.11334071090E+03 -0.44641926063E+02 -0.16102270588E+03  0.20190921257E+03  0.00000000000E+00 0. -1.
         21    1    1    2  504  503  0.17703430320E+02 -0.87091806665E+02 -0.99802455884E+02  0.13363728684E+03  0.00000000000E+00 0. -1.
         21    1    1    2  505  502  0.91979645585E+00  0.30200592179E+02 -0.22569601999E+02  0.37713508560E+02  0.00000000000E+00 0. -1.
         -1    1    1    2    0  505  0.94717484126E+02  0.10153314055E+03  0.21065709472E+01  0.13886978818E+03  0.00000000000E+00 0. -1.
<scales pt_clust_3="131.72879" pt_clust_4="79.53821" pt_clust_5="30.21460" pt_clust_6="14000.00000"></scales>
<clustering>
<clus scale="   30.215">  2  5  1 -1</clus>
<clus scale="   79.538">  2  4  1 -1</clus>
<clus scale="  131.729">  2  3  1 -1</clus>
<clus scale="   30.215">  2  3  1 -1</clus>
</clustering>
</event>
<event>
 6    0  0.1361744E+002  0.1803877E+03  0.7546771E-02  0.1167428E+00
          2   -1    0    0  502    0 -0.00000000000E+00  0.00000000000E+00  0.14269287281E+04  0.14269287281E+04  0.00000000000E+00 0.  1.
         21   -1    0    0  505  502  0.00000000000E+00 -0.00000000000E+00 -0.44094310321E+02  0.44094310321E+02  0.00000000000E+00 0. -1.
         21    1    1    2  503  501  0.84301257607E+02  0.39553361213E+02  0.47282679777E+03  0.48190906933E+03  0.00000000000E+00 0.  1.
         21    1    1    2  504  503 -0.72408508637E+02 -0.54456939455E+02  0.11192840735E+03  0.14400180120E+03  0.00000000000E+00 0. -1.
         21    1    1    2  505  504 -0.64765150643E+02 -0.43951591821E+02  0.50036786627E+02  0.92897508994E+02  0.00000000000E+00 0. -1.
          2    1    1    2  501    0  0.52872401673E+02  0.58855170063E+02  0.74804242599E+03  0.75221465885E+03  0.00000000000E+00 0.  1.
<scales pt_clust_3="58.57923" pt_clust_4="172.88308" pt_clust_5="34.62432" pt_clust_6="58.57923"></scales>
<clustering>
<clus scale="   34.624">  4  5 -1 -1</clus>
<clus scale="   58.579">  3  6 -1 -1</clus>
<clus scale="  172.883">  2  4  1 -1</clus>
<clus scale="  172.883">  2  3  1 -1</clus>
</clustering>
</event>
<event>
 6    0  0.1361744E+002  0.1609216E+03  0.7546771E-02  0.1187660E+00
          2   -1    0    0  504    0 -0.00000000000E+00  0.00000000000E+00  0.21747483166E+04  0.21747483166E+04  0.00000000000E+00 0. -1.
         21   -1    0    0  501  502  0.00000000000E+00 -0.00000000000E+00 -0.27989971621E+02  0.27989971621E+02  0.00000000000E+00 0. -1.
         21    1    1    2  503  505  0.35212247846E+02 -0.78139629943E+02  0.27664624271E+03  0.28961845206E+03  0.00000000000E+00 0. -1.
         21    1    1    2  504  503  0.13968260977E+03 -0.57085871937E+02  0.88205320592E+03  0.89486752445E+03  0.00000000000E+00 0. -1.
         21    1    1    2  505  502 -0.49195863212E+02 -0.19807963595E+01  0.10738295277E+03  0.11813236244E+03  0.00000000000E+00 0. -1.
          2    1    1    2  501    0 -0.12569899440E+03  0.13720629824E+03  0.88067594359E+03  0.90011994928E+03  0.00000000000E+00 0. -1.
<scales pt_clust_3="81.48763" pt_clust_4="14000.00000" pt_clust_5="49.23572" pt_clust_6="160.92162"></scales>
<clustering>
<clus scale="   49.236">  2  5  1 -1</clus>
<clus scale="   81.488">  2  3  1 -1</clus>
<clus scale="  160.922">  2  6  1 -1</clus>
<clus scale="   49.236">  2  3  1 -1</clus>
</clustering>
</event>
<event>
 6    0  0.1361744E+002  0.1754870E+03  0.7546771E-02  0.1172244E+00
          2   -1    0    0  503    0 -0.00000000000E+00  0.00000000000E+00  0.61154153372E+03  0.61154153372E+03  0.00000000000E+00 0. -1.
         21   -1    0    0  504  502  0.00000000000E+00 -0.00000000000E+00 -0.74556869581E+03  0.74556869581E+03  0.00000000000E+00 0.  1.
         21    1    1    2  503  505  0.39669341639E+02  0.13498666727E+02  0.89999562754E+02  0.99276341418E+02  0.00000000000E+00 0.  1.
         21    1    1    2  504  501  0.58324532546E+02  0.10715390786E+03 -0.49738205769E+02  0.13174824545E+03  0.00000000000E+00 0.  1.
         21    1    1    2  505  502  0.11523826758E+03 -0.98016164710E+02 -0.61641262233E+03  0.63470587505E+03  0.00000000000E+00 0.  1.
          2    1    1    2  501    0 -0.21323214177E+03 -0.22636409874E+02  0.44212410325E+03  0.49137976760E+03  0.00000000000E+00 0. -1.
<scales pt_clust_3="41.90311" pt_clust_4="124.46417" pt_clust_5="175.48700" pt_clust_6="14000.00000"></scales>
<clustering>
<clus scale="   41.903">  1  3  2 -1</clus>
<clus scale="  124.464">  2  4  1 -1</clus>
<clus scale="  175.487">  2  5  1 -1</clus>
<clus scale="  124.464">  2  3  1 -1</clus>
</clustering>
</event>
<event>
 6    0  0.1361744E+002  0.3622695E+03  0.7546771E-02  0.1057689E+00
         -2   -1    0    0    0  501 -0.00000000000E+00  0.00000000000E+00  0.23646490590E+03  0.23646490590E+03  0.00000000000E+00 0.  1.
         21   -1    0    0  503  502  0.00000000000E+00 -0.00000000000E+00 -0.10572585191E+04  0.10572585191E+04  0.00000000000E+00 0.  1.
         21    1    1    2  503  505  0.90328859263E+02  0.94844656178E+02 -0.37596732191E+03  0.39812841994E+03  0.00000000000E+00 0.  1.
         21    1    1    2  504  502 -0.11031230869E+03 -0.42412579487E+02 -0.65275714267E+02  0.13501315203E+03  0.00000000000E+00 0.  1.
         21    1    1    2  505  501  0.27352414289E+03 -0.18289471665E+02 -0.42002720767E+03  0.50157035070E+03  0.00000000000E+00 0.  1.
         -2    1    1    2    0  504 -0.25354069346E+03 -0.34142605026E+02  0.40476630625E+02  0.25901150234E+03  0.00000000000E+00 0.  1.
<scales pt_clust_3="130.97638" pt_clust_4="87.01713" pt_clust_5="338.89295" pt_clust_6="87.01713"></scales>
<clustering>
<clus scale="   87.017">  4  6 -1 -1</clus>
<clus scale="  130.976">  2  3  1 -1</clus>
<clus scale="  338.893">  2  5  1 -1</clus>
<clus scale="  130.976">  2  3  1 -1</clus>
</clustering>
</event>
<event>
 6    0  0.1361744E+002  0.1197772E+03  0.7546771E-02  0.1243465E+00
          1   -1    0    0  505    0 -0.00000000000E+00  0.00000000000E+00  0.27469697358E+04  0.27469697358E+04  0.00000000000E+00 0.  1.
         21   -1    0    0  503  502  0.00000000000E+00 -0.00000000000E+00 -0.24134253690E+03  0.24134253690E+03  0.00000000000E+00 0.  1.
         21    1    1    2  503  501  0.56054279561E+02  0.71470107462E+02 -0.21060837575E+03  0.22935986235E+03  0.00000000000E+00 0.  1.
         21    1    1    2  504  502 -0.92483761947E+01  0.41883458524E+02  0.74121245239E+01  0.43528107587E+02  0.00000000000E+00 0.  1.
         21    1    1    2  505  504 -0.19903473840E+02 -0.86078712860E+02  0.62139724008E+03  0.62764657496E+03  0.00000000000E+00 0.  1.
          1    1    1    2  501    0 -0.26902429526E+02 -0.27274853126E+02  0.20874262100E+04  0.20877777278E+04  0.00000000000E+00 0.  1.
<scales pt_clust_3="14000.00000" pt_clust_4="42.10598" pt_clust_5="119.77724" pt_clust_6="38.31003"></scales>
<clustering>
<clus scale="   38.310">  1  6  2 -1</clus>
<clus scale="   42.106">  2  4  1 -1</clus>
<clus scale="  119.777">  1  5  2 -1</clus>
<clus scale="   42.106">  2  3  1 -1</clus>
</clustering>
</event>
<event>
 6    0  0.1361744E+002  0.8200219E+02  0.7546771E-02  0.1323464E+00
         21   -1    0    0  503  502  0.00000000000E+00  0.00000000000E+00  0.28494690752E+03  0.28494690752E+03  0.00000000000E+00 0.  1.
         -3   -1    0    0    0  501 -0.00000000000E+00 -0.00000000000E+00 -0.29454512737E+03  0.29454512737E+03  0.00000000000E+00 0. -1.
         21    1    1    2  503  501 -0.40031463044E+02  0.66340023866E+02 -0.33206292621E+02  0.84298129692E+02  0.00000000000E+00 0. -1.
         21    1    1    2  504  502 -0.21886209308E+02  0.50258347248E+02  0.22135440947E+03  0.22804096610E+03  0.00000000000E+00 0.  1.
         21    1    1    2  505  504  0.59261606855E+02 -0.29945084850E+02 -0.19922990813E+02  0.69322231042E+02  0.00000000000E+00 0.  1.
         -3    1    1    2    0  505  0.26560654971E+01 -0.86653286264E+02 -0.17782334589E+03  0.19783070805E+03  0.00000000000E+00 0. -1.
<scales pt_clust_3="14000.00000" pt_clust_4="54.81704" pt_clust_5="51.14941" pt_clust_6="82.00219"></scales>
<clustering>
<clus scale="   54.817">  1  4  2 -1</clus>
<clus scale="   51.149">  1  5  2 -1</clus>
<clus scale="   82.002">  2  6  1 -1</clus>
<clus scale="   54.817">  1  3  2 -1</clus>
</clustering>
</event>
<event>
 6    0  0.1361744E+002  0.1318709E+03  0.7546771E-02  0.1224706E+00
         21   -1    0    0  504  502  0.00000000000E+00  0.00000000000E+00  0.77954142582E+02  0.77954142582E+02  0.00000000000E+00 0. -1.
          2   -1    0    0  503    0 -0.00000000000E+00 -0.00000000000E+00 -0.21418795113E+04  0.21418795113E+04  0.00000000000E+00 0.  1.
         21    1    1    2  503  505  0.45634100071E+02 -0.31629785449E+02 -0.10476060806E+02  0.56503648261E+02  0.00000000000E+00 0. -1.
         21    1    1    2  504  501 -0.75797305442E+02  0.83333119887E+01 -0.77157182208E+03  0.77533073731E+03  0.00000000000E+00 0. -1.
         21    1    1    2  505  502  0.73488106098E+02  0.13166514364E+02  0.26232496107E+02  0.79132816773E+02  0.00000000000E+00 0. -1.
          2    1    1    2  501    0 -0.43324900727E+02  0.10129959096E+02 -0.13081099819E+04  0.13088664515E+04  0.00000000000E+00 0.  1.
<scales pt_clust_3="51.54039" pt_clust_4="117.35393" pt_clust_5="51.54039" pt_clust_6="44.49341"></scales>
<clustering>
<clus scale="   44.493">  2  6  1 -1</clus>
<clus scale="   51.540">  3  5 -1 -1</clus>
<clus scale="  117.354">  2  4  1 -1</clus>
<clus scale="  131.871">  1  3  2 -1</clus>
</clustering>
</event>
<event>
 6    0  0.1361744E+002  0.1269815E+03  0.7546771E-02  0.1232005E+00
          2   -1    0    0  505    0 -0.00000000000E+00  0.00000000000E+00  0.67631475315E+03  0.67631475315E+03  0.00000000000E+00 0. -1.
         21   -1    0    0  501  502  0.00000000000E+00 -0.00000000000E+00 -0.15696841573E+04  0.15696841573E+04  0.00000000000E+00 0.  1.
         21    1    1    2  503  504 -0.48227722600E+01 -0.60696406563E+02 -0.62857015203E+03  0.63151227140E+03  0.00000000000E+00 0.  1.
         21    1    1    2  504  502  0.44973711181E+02 -0.45966058343E+02 -0.92120756722E+03  0.92344945456E+03  0.00000000000E+00 0.  1.
         21    1    1    2  505  503 -0.17125018920E+02 -0.39381648045E+02  0.45798111660E+02  0.62782541421E+02  0.00000000000E+00 0. -1.
          2    1    1    2  501    0 -0.23025920001E+02  0.14604411295E+03  0.61061020347E+03  0.62825464304E+03  0.00000000000E+00 0. -1.
<scales pt_clust_3="54.25974" pt_clust_4="54.25974" pt_clust_5="42.94392" pt_clust_6="114.09772"></scales>
<clustering>
<clus scale="   42.944">  1  5  2 -1</clus>
<clus scale="   54.260">  3  4 -1 -1</clus>
<clus scale="  114.098">  1  6  2 -1</clus>
<clus scale="  126.981">  2  3  1 -1</clus>
</clustering>
</event>
<event>
 6    0  0.1361744E+002  0.1580396E+03  0.7546771E-02  0.1190928E+00
         21   -1    0    0  505  502  0.00000000000E+00  0.00000000000E+00  0.18045543284E+03  0.18045543284E+03  0.00000000000E+00 0. -1.
          4   -1    0    0  503    0 -0.00000000000E+00 -0.00000000000E+00 -0.19422137829E+03  0.19422137829E+03  0.00000000000E+00 0. -1.
         21    1    1    2  503  504 -0.48331890427E+02 -0.80183306902E+02  0.39558311423E+02  0.10163756363E+03  0.00000000000E+00 0. -1.
         21    1    1    2  504  502 -0.99062320294E+01 -0.65090055602E+02  0.10458496192E+02  0.66665050168E+02  0.00000000000E+00 0. -1.
         21    1    1    2  505  501  0.38461483208E+02 -0.75345774005E+01  0.10524191205E+01  0.39206672049E+02  0.00000000000E+00 0. -1.
          4    1    1    2  501    0  0.19776639249E+02  0.15280793990E+03 -0.64835172188E+02  0.16716752529E+03  0.00000000000E+00 0. -1.
<scales pt_clust_3="30.56048" pt_clust_4="30.56048" pt_clust_5="39.19254" pt_clust_6="153.78053"></scales>
<clustering>
<clus scale="   30.560">  3  4 -1 -1</clus>
<clus scale="   39.193">  1  5  2 -1</clus>
<clus scale="  153.781">  2  6  1 -1</clus>
<clus scale="   39.193">  1  3  2 -1</clus>
</clustering>
</event>
<event>
 6    0  0.1361744E+002  0.1672971E+03  0.7546771E-02  0.1180696E+00
         21   -1    0    0  505  502  0.00000000000E+00  0.00000000000E+00  0.54711382798E+02  0.54711382798E+02  0.00000000000E+00 0. -1.
         -3   -1    0    0    0  501 -0.00000000000E+00 -0.00000000000E+00 -0.24804021671E+04  0.24804021671E+04  0.00000000000E+00 0. -1.
         21    1    1    2  503  504  0.83326152420E+02  0.75042411031E+02 -0.39913195133E+03  0.41458524540E+03  0.00000000000E+00 0. -1.
         21    1    1    2  504  502 -0.11407026439E+03 -0.88949785482E+02 -0.80289916936E+02  0.16544050386E+03  0.00000000000E+00 0. -1.
         21    1    1    2  505  501 -0.57577836690E+02 -0.99802318475E+00 -0.14261841609E+04  0.14273463014E+04  0.00000000000E+00 0. -1.
         -3    1    1    2    0  503  0.88321948656E+02  0.14905397637E+02 -0.52008475515E+03  0.52774149925E+03  0.00000000000E+00 0. -1.
<scales pt_clust_3="58.98981" pt_clust_4="150.07220" pt_clust_5="57.58649" pt_clust_6="58.98981"></scales>
<clustering>
<clus scale="   57.586">  2  5  1 -1</clus>
<clus scale="   58.990">  3  6 -1 -1</clus>
<clus scale="  150.072">  1  4  2 -1</clus>
<clus scale="  150.072">  1  3  2 -1</clus>
</clustering>
</event>
<event>
 6    0  0.1361744E+002  0.8852472E+02  0.7546771E-02  0.1306464E+00
          2   -1    0    0  503    0 -0.00000000000E+00  0.00000000000E+00  0.34729688742E+04  0.34729688742E+04  0.00000000000E+00 0.  1.
         21   -1    0    0  504  502  0.00000000000E+00 -0.00000000000E+00 -0.23156237427E+02  0.23156237427E+02  0.00000000000E+00 0.  1.
         21    1    1    2  503  505 -0.87400346747E+02 -0.48675772285E+02  0.20768994777E+04  0.20793074790E+04  0.00000000000E+00 0.  1.
         21    1    1    2  504  501  0.24627729099E+02 -0.50515026595E+02  0.10214172359E+03  0.11658140782E+03  0.00000000000E+00 0.  1.
         21    1    1    2  505  502  0.16809332672E+02  0.32565734657E+02  0.11562881578E+02  0.38428907986E+02  0.00000000000E+00 0.  1.
          2    1    1    2  501    0  0.45963284976E+02  0.66625064223E+02  0.12592085539E+04  0.12618073169E+04  0.00000000000E+00 0.  1.
<scales pt_clust_3="14000.00000" pt_clust_4="45.50348" pt_clust_5="36.64807" pt_clust_6="88.52472"></scales>
<clustering>
<clus scale="   36.648">  2  5  1 -1</clus>
<clus scale="   45.503">  2  4  1 -1</clus>
<clus scale="   88.525">  2  6  1 -1</clus>
<clus scale="   36.648">  2  3  1 -1</clus>
</clustering>
</event>
<event>
 6    0  0.1361744E+002  0.1611558E+03  0.7546771E-02  0.1187398E+00
         -3   -1    0    0    0  501 -0.00000000000E+00  0.00000000000E+00  0.21467496935E+03  0.21467496935E+03  0.00000000000E+00 0. -1.
         21   -1    0    0  503  502  0.00000000000E+00 -0.00000000000E+00 -0.51238051640E+03  0.51238051640E+03  0.00000000000E+00 0. -1.
         21    1    1    2  503  501 -0.82345372297E+02 -0.15999025948E+02 -0.20169871165E+01  0.83909459581E+02  0.00000000000E+00 0.  1.
         21    1    1    2  504  505  0.11161005226E+03 -0.90399964539E+02  0.77329817525E+02  0.16312221809E+03  0.00000000000E+00 0. -1.
         21    1    1    2  505  502 -0.94328739483E+02  0.10423833251E+03 -0.38846146579E+03  0.41311723695E+03  0.00000000000E+00 0. -1.
         -3    1    1    2    0  504  0.65064059517E+02  0.21606579813E+01  0.15443088330E+02  0.66906571134E+02  0.00000000000E+00 0. -1.
<scales pt_clust_3="83.88521" pt_clust_4="49.04284" pt_clust_5="143.75210" pt_clust_6="49.04284"></scales>
<clustering>
<clus scale="   49.043">  4  6 -1 -1</clus>
<clus scale="   83.885">  1  3  2 -1</clus>
<clus scale="  143.752">  2  5  1 -1</clus>
<clus scale="  143.752">  2  3  1 -1</clus>
</clustering>
</event>
<event>
 6    0  0.1361744E+002  0.1099178E+03  0.7546771E-02  0.1260722E+00
          2   -1    0    0  505    0 -0.00000000000E+00  0.00000000000E+00  0.14736276250E+04  0.14736276250E+04  0.00000000000E+00 0. -1.
         21   -1    0    0  504  502  0.00000000000E+00 -0.00000000000E+00 -0.51611907325E+03  0.51611907325E+03  0.00000000000E+00 0. -1.
         21    1    1    2  503  502  0.40341071803E+02 -0.63836877912E+02 -0.45415146564E+03  0.46038690555E+03  0.00000000000E+00 0. -1.
         21    1    1    2  504  501 -0.18890865392E+02 -0.39836008728E+02 -0.93721647763E+01  0.45073383046E+02  0.00000000000E+00 0.  1.
         21    1    1    2  505  503 -0.27221737911E+02  0.20567041162E+03  0.33901834931E+03  0.39746041614E+03  0.00000000000E+00 0. -1.
          2    1    1    2  501    0  0.57715314991E+01 -0.10199752498E+03  0.10820138329E+04  0.10868259936E+04  0.00000000000E+00 0. -1.
<scales pt_clust_3="14000.00000" pt_clust_4="44.08823" pt_clust_5="109.91783" pt_clust_6="102.35122"></scales>
<clustering>
<clus scale="   44.088">  2  4  1 -1</clus>
<clus scale="  102.351">  1  6  2 -1</clus>
<clus scale="  109.918">  1  5  2 -1</clus>
<clus scale="   44.088">  2  3  1 -1</clus>
</clustering>
</event>
<event>
 6    0  0.1361744E+002  0.4528251E+03  0.7546771E-02  0.1026883E+00
          2   -1    0    0  503    0 -0.00000000000E+00  0.00000000000E+00  0.31704242961E+04  0.31704242961E+04  0.00000000000E+00 0. -1.
         21   -1    0    0  501  502  0.00000000000E+00 -0.00000000000E+00 -0.94620082700E+02  0.94620082700E+02  0.00000000000E+00 0. -1.
         21    1    1    2  503  504  0.17264560628E+01 -0.31487306404E+02  0.30017677676E+03  0.30182864082E+03  0.00000000000E+00 0.  1.
         21    1    1    2  504  505  0.82340397520E+02  0.10644592183E+03  0.15402597173E+03  0.20453526666E+03  0.00000000000E+00 0. -1.
         21    1    1    2  505  502  0.28358276476E+03  0.14710701617E+03  0.49500428570E+03  0.58914251378E+03  0.00000000000E+00 0. -1.
          2    1    1    2  501    0 -0.36764961835E+03 -0.22206563160E+03  0.21265971792E+04  0.21695379575E+04  0.00000000000E+00 0. -1.
<scales pt_clust_3="31.53460" pt_clust_4="66.37421" pt_clust_5="66.37421" pt_clust_6="441.08416"></scales>
<clustering>
<clus scale="   31.535">  1  3  2 -1</clus>
<clus scale="   66.374">  4  5 -1 -1</clus>
<clus scale="  441.084">  1  6  2 -1</clus>
<clus scale="  452.825">  2  3  1 -1</clus>
</clustering>
</event>
<event>
 6    0  0.1361744E+002  0.2043943E+03  0.7546771E-02  0.1146084E+00
          2   -1    0    0  505    0 -0.00000000000E+00  0.00000000000E+00  0.15488916851E+04  0.15488916851E+04  0.00000000000E+00 0. -1.
         21   -1    0    0  504  502  0.00000000000E+00 -0.00000000000E+00 -0.82300639184E+03  0.82300639184E+03  0.00000000000E+00 0.  1.
         21    1    1    2  503  502 -0.34087071932E+02  0.41939169877E+02 -0.14602252435E+03  0.15570292245E+03  0.00000000000E+00 0. -1.
         21    1    1    2  504  501  0.16052275322E+03  0.12026566790E+03 -0.64465681428E+03  0.67513983247E+03  0.00000000000E+00 0.  1.
         21    1    1    2  505  503 -0.33840999218E+02 -0.60260778584E+02  0.12618922766E+03  0.14387597382E+03  0.00000000000E+00 0.  1.
          2    1    1    2  501    0 -0.92594682073E+02 -0.10194405920E+03  0.13903754042E+04  0.13971793482E+04  0.00000000000E+00 0. -1.
<scales pt_clust_3="54.04463" pt_clust_4="204.39427" pt_clust_5="68.85442" pt_clust_6="14000.00000"></scales>
<clustering>
<clus scale="   54.045">  2  3  1 -1</clus>
<clus scale="   68.854">  1  5  2 -1</clus>
<clus scale="  204.394">  2  4  1 -1</clus>
<clus scale="   54.045">  2  3  1 -1</clus>
</clustering>
</event>
<event>
 6    0  0.1361744E+002  0.1622431E+03  0.7546771E-02  0.1186187E+00
         21   -1    0    0  504  502  0.00000000000E+00  0.00000000000E+00  0.13562264613E+04  0.13562264613E+04  0.00000000000E+00 0. -1.
          2   -1    0    0  505    0 -0.00000000000E+00 -0.00000000000E+00 -0.14218186943E+04  0.14218186943E+04  0.00000000000E+00 0. -1.
         21    1    1    2  503  502  0.44574796742E+01  0.10444677806E+03  0.39311709018E+02  0.11168889397E+03  0.00000000000E+00 0. -1.
         21    1    1    2  504  501  0.64677792049E+02  0.51235197941E+02  0.12707717362E+04  0.12734477091E+04  0.00000000000E+00 0. -1.
         21    1    1    2  505  503 -0.10477914845E+03 -0.12925729671E+03 -0.12102911757E+04  0.12216754269E+04  0.00000000000E+00 0. -1.
          2    1    1    2  501    0  0.35643876727E+02 -0.26424679292E+02 -0.16538450255E+03  0.17123312562E+03  0.00000000000E+00 0. -1.
<scales pt_clust_3="14000.00000" pt_clust_4="82.52452" pt_clust_5="162.24313" pt_clust_6="44.37059"></scales>
<clustering>
<clus scale="   44.371">  2  6  1 -1</clus>
<clus scale="   82.525">  1  4  2 -1</clus>
<clus scale="  162.243">  2  5  1 -1</clus>
<clus scale="   82.525">  1  3  2 -1</clus>
</clustering>
</event>
<event>
 6    0  0.1361744E+002  0.1195850E+03  0.7546771E-02  0.1243783E+00
         21   -1    0    0  503  502  0.00000000000E+00  0.00000000000E+00  0.36924425482E+03  0.36924425482E+03  0.00000000000E+00 0. -1.
         -1   -1    0    0    0  501 -0.00000000000E+00 -0.00000000000E+00 -0.62006122940E+03  0.62006122940E+03  0.00000000000E+00 0.  1.
         21    1    1    2  503  505 -0.62588099439E+02 -0.17173498380E+02  0.24201442324E+03  0.25056572051E+03  0.00000000000E+00 0. -1.
         21    1    1    2  504  502  0.38850927855E+02 -0.63001535913E+02  0.58874262650E+01  0.74251262013E+02  0.00000000000E+00 0.  1.
         21    1    1    2  505  501 -0.46384136030E+02 -0.47305176030E+01  0.70606406467E+02  0.84611645217E+02  0.00000000000E+00 0.  1.
         -1    1    1    2    0  504  0.70121307614E+02  0.84905551896E+02 -0.56932523055E+03  0.57987685647E+03  0.00000000000E+00 0.  1.
<scales pt_clust_3="40.26988" pt_clust_4="74.01749" pt_clust_5="40.26988" pt_clust_6="109.74159"></scales>
<clustering>
<clus scale="   40.270">  3  5 -1 -1</clus>
<clus scale="   74.017">  1  4  2 -1</clus>
<clus scale="  109.742">  2  6  1 -1</clus>
<clus scale="   74.017">  1  3  2 -1</clus>
</clustering>
</event>
<event>
 6    0  0.1361744E+002  0.1228060E+03  0.7546771E-02  0.1238539E+00
         21   -1    0    0  503  502  0.00000000000E+00  0.00000000000E+00  0.18451315913E+04  0.18451315913E+04  0.00000000000E+00 0.  1.
         -1   -1    0    0    0  501 -0.00000000000E+00 -0.00000000000E+00 -0.87580558366E+02  0.87580558366E+02  0.00000000000E+00 0.  1.
         21    1    1    2  503  501 -0.22890095827E+01  0.85346277793E+02  0.11980136020E+04  0.12010519628E+04  0.00000000000E+00 0.  1.
         21    1    1    2  504  505 -0.33429759371E+02 -0.20650228246E+02 -0.30243499016E+01  0.39409737762E+02  0.00000000000E+00 0.  1.
         21    1    1    2  505  502  0.47989451717E+02  0.17400240008E+02  0.59930397026E+03  0.60147402653E+03  0.00000000000E+00 0.  1.
         -1    1    1    2    0  504 -0.12270682763E+02 -0.82096289555E+02 -0.36742189430E+02  0.90776422590E+02  0.00000000000E+00 0.  1.
<scales pt_clust_3="111.17389" pt_clust_4="35.89372" pt_clust_5="51.04660" pt_clust_6="35.89372"></scales>
<clustering>
<clus scale="   35.894">  4  6 -1 -1</clus>
<clus scale="   51.047">  1  5  2 -1</clus>
<clus scale="  111.174">  1  3  2 -1</clus>
<clus scale="   51.047">  1  3  2 -1</clus>
</clustering>
</event>
<event>
 6    0  0.1361744E+002  0.1202239E+03  0.7546771E-02  0.1242728E+00
          2   -1    0    0  503    0 -0.00000000000E+00  0.00000000000E+00  0.47955910651E+03  0.47955910651E+03  0.00000000000E+00 0.  1.
         21   -1    0    0  501  502  0.00000000000E+00 -0.00000000000E+00 -0.13153803466E+03  0.13153803466E+03  0.00000000000E+00 0.  1.
         21    1    1    2  503  504  0.13426594959E+02 -0.13990364747E+03  0.21112530064E+03  0.25362806745E+03  0.00000000000E+00 0.  1.
         21    1    1    2  504  505 -0.73926979824E+02  0.98441814797E+02 -0.97255017699E+01  0.12349321694E+03  0.00000000000E+00 0.  1.
         21    1    1    2  505  502 -0.35466080502E+02 -0.33206274453E+02  0.74229623751E+01  0.49148752778E+02  0.00000000000E+00 0. -1.
          2    1    1    2  501    0  0.95966465367E+02  0.74668107130E+02  0.13919831061E+03  0.18482710400E+03  0.00000000000E+00 0.  1.
<scales pt_clust_3="14000.00000" pt_clust_4="120.22387" pt_clust_5="48.58497" pt_clust_6="111.62333"></scales>
<clustering>
<clus scale="   48.585">  2  5  1 -1</clus>
<clus scale="  111.623">  1  6  2 -1</clus>
<clus scale="  120.224">  2  4  1 -1</clus>
<clus scale="   48.585">  2  3  1 -1</clus>
</clustering>
</event>
<event>
 6    0  0.1361744E+002  0.1321525E+03  0.7546771E-02  0.1224296E+00
         21   -1    0    0  504  502  0.00000000000E+00  0.00000000000E+00  0.87617229738E+03  0.87617229738E+03  0.00000000000E+00 0. -1.
          2   -1    0    0  505    0 -0.00000000000E+00 -0.00000000000E+00 -0.54896871403E+03  0.54896871403E+03  0.00000000000E+00 0.  1.
         21    1    1    2  503  501 -0.90075989005E+02  0.12941187867E+03  0.34137412353E+03  0.37602847014E+03  0.00000000000E+00 0. -1.
         21    1    1    2  504  503  0.68088767623E+02 -0.10016041670E+03  0.48162256511E+03  0.49661704016E+03  0.00000000000E+00 0. -1.
         21    1    1    2  505  502 -0.40774687341E+02  0.92656980349E+01  0.86553030281E+01  0.42700615433E+02  0.00000000000E+00 0. -1.
          2    1    1    2  501    0  0.62761908723E+02 -0.38517160006E+02 -0.50444840833E+03  0.50979488568E+03  0.00000000000E+00 0.  1.
<scales pt_clust_3="132.15250" pt_clust_4="14000.00000" pt_clust_5="41.81421" pt_clust_6="38.10337"></scales>
<clustering>
<clus scale="   41.814">  2  5  1 -1</clus>
<clus scale="   38.103">  2  6  1 -1</clus>
<clus scale="  132.152">  2  3  1 -1</clus>
<clus scale="  132.152">  1  3  2 -1</clus>
</clustering>
</event>
<event>
 6    0  0.1361744E+002  0.1043633E+03  0.7546771E-02  0.1271379E+00
          2   -1    0    0  504    0 -0.00000000000E+00  0.00000000000E+00  0.73967120888E+03  0.73967120888E+03  0.00000000000E+00 0.  1.
         21   -1    0    0  503  502  0.00000000000E+00 -0.00000000000E+00 -0.15299426989E+04  0.15299426989E+04  0.00000000000E+00 0. -1.
         21    1    1    2  503  501  0.27214586462E+02 -0.10773084827E+03 -0.10168234918E+04  0.10228766216E+04  0.00000000000E+00 0. -1.
         21    1    1    2  504  505  0.41889019879E+02  0.23787294780E+02  0.93853334231E+01  0.49077590230E+02  0.00000000000E+00 0.  1.
         21    1    1    2  505  502 -0.53702732286E+02  0.63974575157E+01 -0.48653455073E+03  0.48953118386E+03  0.00000000000E+00 0. -1.
          2    1    1    2  501    0 -0.15400874054E+02  0.77546095971E+02  0.70370121911E+03  0.70812851214E+03  0.00000000000E+00 0.  1.
<scales pt_clust_3="104.36330" pt_clust_4="48.17183" pt_clust_5="54.00069" pt_clust_6="14000.00000"></scales>
<clustering>
<clus scale="   48.172">  1  4  2 -1</clus>
<clus scale="   54.001">  2  5  1 -1</clus>
<clus scale="  104.363">  2  3  1 -1</clus>
<clus scale="   54.001">  2  3  1 -1</clus>
</clustering>
</event>
<event>
 6    0  0.1361744E+002  0.1327494E+03  0.7546771E-02  0.1223432E+00
          1   -1    0    0  505    0 -0.00000000000E+00  0.00000000000E+00  0.63559972818E+03  0.63559972818E+03  0.00000000000E+00 0. -1.
         21   -1    0    0  503  502  0.00000000000E+00 -0.00000000000E+00 -0.39421021277E+02  0.39421021277E+02  0.00000000000E+00 0. -1.
         21    1    1    2  503  504 -0.24836455391E+02 -0.34793077522E+02  0.39810647119E+02  0.58414855849E+02  0.00000000000E+00 0.  1.
         21    1    1    2  504  501 -0.49136951914E+02  0.62421673364E+02  0.19773349536E+03  0.21309490969E+03  0.00000000000E+00 0. -1.
         21    1    1    2  505  502  0.79614051982E+02 -0.88640526078E+02  0.19194522237E+03  0.22591703904E+03  0.00000000000E+00 0. -1.
          1    1    1    2  501    0 -0.56406446760E+01  0.61011930236E+02  0.16668934205E+03  0.17759394488E+03  0.00000000000E+00 0. -1.
<scales pt_clust_3="42.74819" pt_clust_4="35.09998" pt_clust_5="126.59019" pt_clust_6="35.09998"></scales>
<clustering>
<clus scale="   35.100">  4  6 -1 -1</clus>
<clus scale="   42.748">  2  3  1 -1</clus>
<clus scale="  126.590">  2  5  1 -1</clus>
<clus scale="   42.748">  2  3  1 -1</clus>
</clustering>
</event>
<event>
 6    0  0.1361744E+002  0.1107336E+03  0.7546771E-02  0.1259217E+00
         -1   -1    0    0    0  501 -0.00000000000E+00  0.00000000000E+00  0.13712805988E+04  0.13712805988E+04  0.00000000000E+00 0.  1.
         21   -1    0    0  505  502  0.00000000000E+00 -0.00000000000E+00 -0.18540983613E+03  0.18540983613E+03  0.00000000000E+00 0. -1.
         21    1    1    2  503  504  0.81485343834E+02  0.19073219229E+02  0.25496310864E+03  0.26834648446E+03  0.00000000000E+00 0.  1.
         21    1    1    2  504  502 -0.98588165684E+01 -0.47230068951E+02 -0.30378378536E+02  0.57015099402E+02  0.00000000000E+00 0.  1.
         21    1    1    2  505  501 -0.93051793453E+02 -0.87301977300E+01 -0.11837651866E+03  0.15082391318E+03  0.00000000000E+00 0. -1.
         -1    1    1    2    0  503  0.21425266188E+02  0.36887047452E+02  0.10796625512E+04  0.10805049379E+04  0.00000000000E+00 0.  1.
<scales pt_clust_3="110.73356" pt_clust_4="46.40041" pt_clust_5="14000.00000" pt_clust_6="42.65790"></scales>
<clustering>
<clus scale="   42.658">  1  6  2 -1</clus>
<clus scale="   46.400">  2  4  1 -1</clus>
<clus scale="  110.734">  1  3  2 -1</clus>
<clus scale="   46.400">  2  3  1 -1</clus>
</clustering>
</event>
<event>
 6    0  0.1361744E+002  0.9284836E+02  0.7546771E-02  0.1296097E+00
         21   -1    0    0  503  502  0.00000000000E+00  0.00000000000E+00  0.16743947571E+03  0.16743947571E+03  0.00000000000E+00 0. -1.
          2   -1    0    0  505    0 -0.00000000000E+00 -0.00000000000E+00 -0.80069590361E+03  0.80069590361E+03  0.00000000000E+00 0.  1.
         21    1    1    2  503  501 -0.51404881884E+02 -0.51469470128E+02  0.13162847621E+03  0.15039156886E+03  0.00000000000E+00 0. -1.
         21    1    1    2  504  502  0.45274662396E+02 -0.62199165663E+02 -0.28330120924E+03  0.29356107784E+03  0.00000000000E+00 0. -1.
         21    1    1    2  505  504 -0.47970440339E+02 -0.21095028651E+02 -0.68027977610E+02  0.85871817949E+02  0.00000000000E+00 0. -1.
          2    1    1    2  501    0  0.54100659827E+02  0.13476366444E+03 -0.41355571725E+03  0.43831091467E+03  0.00000000000E+00 0.  1.
<scales pt_clust_3="73.37647" pt_clust_4="92.84836" pt_clust_5="52.40385" pt_clust_6="14000.00000"></scales>
<clustering>
<clus scale="   52.404">  2  5  1 -1</clus>
<clus scale="   73.376">  1  3  2 -1</clus>
<clus scale="   92.848">  2  4  1 -1</clus>
<clus scale="   73.376">  1  3  2 -1</clus>
</clustering>
</event>
<event>
 6    0  0.1361744E+002  0.1693245E+03  0.7546771E-02  0.1178554E+00
          2   -1    0    0  503    0 -0.00000000000E+00  0.00000000000E+00  0.97935372101E+03  0.97935372101E+03  0.00000000000E+00 0. -1.
         21   -1    0    0  505  502  0.00000000000E+00 -0.00000000000E+00 -0.11564995383E+04  0.11564995383E+04  0.00000000000E+00 0. -1.
         21    1    1    2  503  504 -0.18046490102E+02  0.20716363048E+03  0.82432573349E+02  0.22369080166E+03  0.00000000000E+00 0. -1.
         21    1    1    2  504  502  0.86548180782E+02 -0.76129083003E+02 -0.10502433716E+04  0.10565497454E+04  0.00000000000E+00 0. -1.
         21    1    1    2  505  501 -0.31852333347E+02 -0.17432555949E+03  0.22167419217E+03  0.28380172534E+03  0.00000000000E+00 0. -1.
          2    1    1    2  501    0 -0.36649357334E+02  0.43291012011E+02  0.56899078876E+03  0.57181098696E+03  0.00000000000E+00 0. -1.
<scales pt_clust_3="169.32448" pt_clust_4="114.83327" pt_clust_5="14000.00000" pt_clust_6="56.72113"></scales>
<clustering>
<clus scale="   56.721">  1  6  2 -1</clus>
<clus scale="  114.833">  2  4  1 -1</clus>
<clus scale="  169.324">  2  3  1 -1</clus>
<clus scale="  114.833">  2  3  1 -1</clus>
</clustering>
</event>
<event>
 6    0  0.1361744E+002  0.1221821E+03  0.7546771E-02  0.1239540E+00
         21   -1    0    0  505  502  0.00000000000E+00  0.00000000000E+00  0.34886830468E+02  0.34886830468E+02  0.00000000000E+00 0.  1.
          4   -1    0    0  504    0 -0.00000000000E+00 -0.00000000000E+00 -0.17094326899E+04  0.17094326899E+04  0.00000000000E+00 0. -1.
         21    1    1    2  503  502 -0.86455899050E+02 -0.33186398781E+02 -0.23165133992E+03  0.24947605663E+03  0.00000000000E+00 0. -1.
         21    1    1    2  504  503 -0.31530655056E+02  0.88955778644E+01 -0.22084745942E+03  0.22326422429E+03  0.00000000000E+00 0.  1.
         21    1    1    2  505  501  0.16272482372E+03 -0.15166169924E+02 -0.25617424167E+03  0.30386612687E+03  0.00000000000E+00 0.  1.
          4    1    1    2  501    0 -0.44738269616E+02  0.39456990840E+02 -0.96587281843E+03  0.96771311259E+03  0.00000000000E+00 0. -1.
<scales pt_clust_3="122.18208" pt_clust_4="32.76146" pt_clust_5="14000.00000" pt_clust_6="79.38476"></scales>
<clustering>
<clus scale="   32.761">  2  4  1 -1</clus>
<clus scale="   79.385">  2  6  1 -1</clus>
<clus scale="  122.182">  1  3  2 -1</clus>
<clus scale="  122.182">  1  3  2 -1</clus>
</clustering>
</event>
<event>
 6    0  0.1361744E+002  0.7763301E+02  0.7546771E-02  0.1335906E+00
         -2   -1    0    0    0  501 -0.00000000000E+00  0.00000000000E+00  0.61037355738E+03  0.61037355738E+03  0.00000000000E+00 0.  1.
         21   -1    0    0  505  502  0.00000000000E+00 -0.00000000000E+00 -0.93071296000E+02  0.93071296000E+02  0.00000000000E+00 0. -1.
         21    1    1    2  503  502 -0.89643746187E+00 -0.89214367496E+02  0.16976980829E+03  0.19178580442E+03  0.00000000000E+00 0.  1.
         21    1    1    2  504  501  0.45154318723E+02  0.61305813546E+02  0.66758807147E+02  0.10126230101E+03  0.00000000000E+00 0. -1.
         21    1    1    2  505  504 -0.53612453418E+02  0.57971701816E+02 -0.39699827573E+02  0.88380369326E+02  0.00000000000E+00 0. -1.
         -2    1    1    2    0  503  0.93545721569E+01 -0.30063147866E+02  0.32047347351E+03  0.32201637863E+03  0.00000000000E+00 0.  1.
<scales pt_clust_3="77.63301" pt_clust_4="71.10154" pt_clust_5="14000.00000" pt_clust_6="31.48493"></scales>
<clustering>
<clus scale="   31.485">  1  6  2 -1</clus>
<clus scale="   71.102">  1  4  2 -1</clus>
<clus scale="   77.633">  1  3  2 -1</clus>
<clus scale="   77.633">  2  3  1 -1</clus>
</clustering>
</event>
<event>
 6    0  0.1361744E+002  0.1181860E+03  0.7546771E-02  0.1246120E+00
         21   -1    0    0  503  502  0.00000000000E+00  0.00000000000E+00  0.37233458997E+04  0.37233458997E+04  0.00000000000E+00 0. -1.
         -1   -1    0    0    0  501 -0.00000000000E+00 -0.00000000000E+00 -0.34771430580E+03  0.34771430580E+03  0.00000000000E+00 0.  1.
         21    1    1    2  503  505  0.20876191736E+02  0.93091940147E+02  0.66376734963E+03  0.67058856174E+03  0.00000000000E+00 0. -1.
         21    1    1    2  504  502 -0.33283901459E+02  0.56847006019E+01  0.51145144898E+02  0.61285885519E+02  0.00000000000E+00 0.  1.
         21    1    1    2  505  501  0.11939704269E+03 -0.48315447134E+02  0.29882105095E+04  0.29909851362E+04  0.00000000000E+00 0. -1.
         -1    1    1    2    0  504 -0.10698933297E+03 -0.50461193614E+02 -0.32749141013E+03  0.34820062197E+03  0.00000000000E+00 0.  1.
<scales pt_clust_3="95.28584" pt_clust_4="33.76587" pt_clust_5="14000.00000" pt_clust_6="118.18597"></scales>
<clustering>
<clus scale="   33.766">  1  4  2 -1</clus>
<clus scale="   95.286">  1  3  2 -1</clus>
<clus scale="  118.186">  2  6  1 -1</clus>
<clus scale="   33.766">  1  3  2 -1</clus>
</clustering>
</event>
<event>
 6    0  0.1361744E+002  0.1013527E+03  0.7546771E-02  0.1277477E+00
         21   -1    0    0  505  502  0.00000000000E+00  0.00000000000E+00  0.42686366468E+02  0.42686366468E+02  0.00000000000E+00 0. -1.
          1   -1    0    0  503    0 -0.00000000000E+00 -0.00000000000E+00 -0.85503913684E+03  0.85503913684E+03  0.00000000000E+00 0.  1.
         21    1    1    2  503  504  0.11297695336E+03  0.61361446527E+02 -0.38962567833E+03  0.41028915209E+03  0.00000000000E+00 0. -1.
         21    1    1    2  504  502 -0.15473147165E+02  0.41839730758E+02 -0.29942613298E+02  0.53726543200E+02  0.00000000000E+00 0. -1.
         21    1    1    2  505  501 -0.29519534128E+02 -0.47402708681E+02 -0.36459997391E+02  0.66691461936E+02  0.00000000000E+00 0.  1.
          1    1    1    2  501    0 -0.67984272069E+02 -0.55798468604E+02 -0.35632448136E+03  0.36701834608E+03  0.00000000000E+00 0.  1.
<scales pt_clust_3="14000.00000" pt_clust_4="44.60921" pt_clust_5="45.81749" pt_clust_6="101.35274"></scales>
<clustering>
<clus scale="   44.609">  1  4  2 -1</clus>
<clus scale="   45.817">  1  5  2 -1</clus>
<clus scale="  101.353">  2  6  1 -1</clus>
<clus scale="   44.609">  1  3  2 -1</clus>
</clustering>
</event>
<event>
 6    0  0.1361744E+002  0.2770354E+03  0.7546771E-02  0.1097319E+00
          2   -1    0    0  504    0 -0.00000000000E+00  0.00000000000E+00  0.42653777267E+04  0.42653777267E+04  0.00000000000E+00 0. -1.
         21   -1    0    0  505  502  0.00000000000E+00 -0.00000000000E+00 -0.80601479039E+02  0.80601479039E+02  0.00000000000E+00 0.  1.
         21    1    1    2  503  502 -0.90103587235E+02 -0.20431734645E+03  0.14814235851E+03  0.26797461238E+03  0.00000000000E+00 0.  1.
         21    1    1    2  504  503 -0.47215344647E+02 -0.25107763303E+02  0.28680213974E+02  0.60681489944E+02  0.00000000000E+00 0.  1.
         21    1    1    2  505  501  0.60427959756E+02  0.48129888365E+02  0.11017770908E+04  0.11044821331E+04  0.00000000000E+00 0. -1.
          2    1    1    2  501    0  0.76890972126E+02  0.18129522139E+03  0.29061765844E+04  0.29128409704E+04  0.00000000000E+00 0. -1.
<scales pt_clust_3="35.47889" pt_clust_4="35.47889" pt_clust_5="38.09775" pt_clust_6="274.21206"></scales>
<clustering>
<clus scale="   35.479">  3  4 -1 -1</clus>
<clus scale="   38.098">  5  6 -1 -1</clus>
<clus scale="  274.212">  1  5  2 -1</clus>
<clus scale="  277.035">  2  3  1 -1</clus>
</clustering>
</event>
<event>
 6    0  0.1361744E+002  0.2072513E+03  0.7546771E-02  0.1143761E+00
          1   -1    0    0  505    0 -0.00000000000E+00  0.00000000000E+00  0.84658165360E+03  0.84658165360E+03  0.00000000000E+00 0. -1.
         21   -1    0    0  503  502  0.00000000000E+00 -0.00000000000E+00 -0.23681161098E+03  0.23681161098E+03  0.00000000000E+00 0. -1.
         21    1    1    2  503  501  0.49535099253E+02 -0.13568244035E+03  0.99664861487E+02  0.17548941647E+03  0.00000000000E+00 0. -1.
         21    1    1    2  504  502 -0.11162078921E+03  0.21583623071E+03 -0.11398474212E+03  0.26839709482E+03  0.00000000000E+00 0. -1.
         21    1    1    2  505  504  0.48922432950E+02 -0.24526469772E+02  0.11656189309E+03  0.12876966679E+03  0.00000000000E+00 0.  1.
          1    1    1    2  501    0  0.13163257011E+02 -0.55627320584E+02  0.50752803016E+03  0.51073708650E+03  0.00000000000E+00 0. -1.
<scales pt_clust_3="14000.00000" pt_clust_4="207.25132" pt_clust_5="54.72616" pt_clust_6="87.02872"></scales>
<clustering>
<clus scale="   54.726">  1  5  2 -1</clus>
<clus scale="   87.029">  1  6  2 -1</clus>
<clus scale="  207.251">  2  4  1 -1</clus>
<clus scale="  207.251">  2  3  1 -1</clus>
</clustering>
</event>
<event>
 6    0  0.1361744E+002  0.9607877E+02  0.7546771E-02  0.1288765E+00
         21   -1    0    0  504  502  0.00000000000E+00  0.00000000000E+00  0.11649643269E+03  0.11649643269E+03  0.00000000000E+00 0.  1.
         -1   -1    0    0    0  501 -0.00000000000E+00 -0.00000000000E+00 -0.20434089264E+04  0.20434089264E+04  0.00000000000E+00 0.  1.
         21    1    1    2  503  502  0.10034636649E+02 -0.35476177073E+02 -0.15624041887E+02  0.40042024890E+02  0.00000000000E+00 0. -1.
         21    1    1    2  504  505  0.43234946953E+02  0.11662858414E+03  0.65129921546E+02  0.14040439436E+03  0.00000000000E+00 0.  1.
         21    1    1    2  505  501 -0.13547235926E+02 -0.39114924791E+02 -0.43744260756E+03  0.43939679090E+03  0.00000000000E+00 0.  1.
         -1    1    1    2    0  503 -0.39722347677E+02 -0.42037482275E+02 -0.15389757658E+04  0.15400621489E+04  0.00000000000E+00 0.  1.
<scales pt_clust_3="36.86805" pt_clust_4="96.07877" pt_clust_5="41.67828" pt_clust_6="14000.00000"></scales>
<clustering>
<clus scale="   36.868">  1  3  2 -1</clus>
<clus scale="   41.678">  2  5  1 -1</clus>
<clus scale="   96.079">  1  4  2 -1</clus>
<clus scale="   36.868">  1  3  2 -1</clus>
</clustering>
</event>
<event>
 6    0  0.1361744E+002  0.1480161E+03  0.7546771E-02  0.1202932E+00
          1   -1    0    0  503    0 -0.00000000000E+00  0.00000000000E+00  0.98303356097E+02  0.98303356097E+02  0.00000000000E+00 0.  1.
         21   -1    0    0  501  502  0.00000000000E+00 -0.00000000000E+00 -0.45462712165E+03  0.45462712165E+03  0.00000000000E+00 0.  1.
         21    1    1    2  503  504  0.57196810352E+01  0.11352259846E+03 -0.19974796568E+03  0.22982459596E+03  0.00000000000E+00 0.  1.
         21    1    1    2  504  505  0.25911040125E+02  0.22464477343E+02 -0.11208350185E+03  0.11721239751E+03  0.00000000000E+00 0.  1.
         21    1    1    2  505  502  0.45765577896E+02 -0.24590342463E+02 -0.47242322384E+02  0.70221151279E+02  0.00000000000E+00 0. -1.
          1    1    1    2  501    0 -0.77396299057E+02 -0.11139673334E+03  0.27500243671E+01  0.13567233300E+03  0.00000000000E+00 0.  1.
<scales pt_clust_3="33.42374" pt_clust_4="33.42374" pt_clust_5="51.95357" pt_clust_6="134.92941"></scales>
<clustering>
<clus scale="   33.424">  3  4 -1 -1</clus>
<clus scale="   51.954">  2  5  1 -1</clus>
<clus scale="  134.929">  1  6  2 -1</clus>
<clus scale="   51.954">  2  3  1 -1</clus>
</clustering>
</event>
<event>
 6    0  0.1361744E+002  0.8883769E+02  0.7546771E-02  0.1305691E+00
         21   -1    0    0  505  502  0.00000000000E+00  0.00000000000E+00  0.11775207440E+04  0.11775207440E+04  0.00000000000E+00 0.  1.
         -2   -1    0    0    0  501 -0.00000000000E+00 -0.00000000000E+00 -0.22760690656E+02  0.22760690656E+02  0.00000000000E+00 0.  1.
         21    1    1    2  503  501 -0.31035870553E+02 -0.48150005704E+01  0.74044118203E+02  0.80429726668E+02  0.00000000000E+00 0. -1.
         21    1    1    2  504  503  0.31192417614E+01 -0.11531597556E+03  0.76548539938E+03  0.77412880101E+03  0.00000000000E+00 0.  1.
         21    1    1    2  505  504  0.15417459402E+02  0.62979583541E+02  0.24923222115E+03  0.25752830146E+03  0.00000000000E+00 0.  1.
         -2    1    1    2    0  502  0.12499169389E+02  0.57151392592E+02  0.65998314632E+02  0.88194605532E+02  0.00000000000E+00 0.  1.
<scales pt_clust_3="31.40716" pt_clust_4="14000.00000" pt_clust_5="88.83769" pt_clust_6="54.65926"></scales>
<clustering>
<clus scale="   31.407">  2  3  1 -1</clus>
<clus scale="   54.659">  2  6  1 -1</clus>
<clus scale="   88.838">  1  5  2 -1</clus>
<clus scale="   88.838">  1  3  2 -1</clus>
</clustering>
</event>
<event>
 6    0  0.1361744E+002  0.7374127E+02  0.7546771E-02  0.1347814E+00
          1   -1    0    0  504    0 -0.00000000000E+00  0.00000000000E+00  0.78953559712E+03  0.78953559712E+03  0.00000000000E+00 0. -1.
         21   -1    0    0  503  502  0.00000000000E+00 -0.00000000000E+00 -0.20085391516E+04  0.20085391516E+04  0.00000000000E+00 0.  1.
         21    1    1    2  503  501 -0.39319484654E+02 -0.98707470333E+02 -0.14136694376E+04  0.14176566811E+04  0.00000000000E+00 0.  1.
         21    1    1    2  504  505 -0.40744824545E+02 -0.48276673189E+02  0.33965439603E+03  0.34547921305E+03  0.00000000000E+00 0. -1.
         21    1    1    2  505  502  0.45517771245E+02  0.25671033833E+02 -0.57982605665E+03  0.58217619794E+03  0.00000000000E+00 0.  1.
          1    1    1    2  501    0  0.34546537955E+02  0.12131310969E+03  0.43483754372E+03  0.45276265669E+03  0.00000000000E+00 0. -1.
<scales pt_clust_3="73.74127" pt_clust_4="63.07270" pt_clust_5="52.25772" pt_clust_6="14000.00000"></scales>
<clustering>
<clus scale="   52.258">  2  5  1 -1</clus>
<clus scale="   63.073">  1  4  2 -1</clus>
<clus scale="   73.741">  2  3  1 -1</clus>
<clus scale="   52.258">  2  3  1 -1</clus>
</clustering>
</event>
<event>
 6    0  0.1361744E+002  0.1639515E+03  0.7546771E-02  0.1184306E+00
         21   -1    0    0  505  502  0.00000000000E+00  0.00000000000E+00  0.47615658253E+02  0.47615658253E+02  0.00000000000E+00 0. -1.
          2   -1    0    0  503    0 -0.00000000000E+00 -0.00000000000E+00 -0.35223906081E+04  0.35223906081E+04  0.00000000000E+00 0.  1.
         21    1    1    2  503  504  0.59745913316E+02  0.48637356512E+01 -0.12639716186E+04  0.12653922248E+04  0.00000000000E+00 0.  1.
         21    1    1    2  504  502  0.44500599568E+02 -0.97480080154E+02 -0.65187733443E+03  0.66062601260E+03  0.00000000000E+00 0.  1.
         21    1    1    2  505  501 -0.11699763668E+03  0.13934870095E+03 -0.15441813177E+03  0.23864506461E+03  0.00000000000E+00 0. -1.
          2    1    1    2  501    0  0.12751123792E+02 -0.46732356442E+02 -0.14045078650E+04  0.14053429643E+04  0.00000000000E+00 0.  1.
<scales pt_clust_3="71.19546" pt_clust_4="14000.00000" pt_clust_5="163.95153" pt_clust_6="48.44073"></scales>
<clustering>
<clus scale="   48.441">  2  6  1 -1</clus>
<clus scale="   71.195">  2  3  1 -1</clus>
<clus scale="  163.952">  1  5  2 -1</clus>
<clus scale="  163.952">  1  3  2 -1</clus>
</clustering>
</event>
<event>
 6    0  0.1361744E+002  0.1690483E+03  0.7546771E-02  0.1178844E+00
          2   -1    0    0  502    0 -0.00000000000E+00  0.00000000000E+00  0.31830785108E+04  0.31830785108E+04  0.00000000000E+00 0. -1.
         21   -1    0    0  503  502  0.00000000000E+00 -0.00000000000E+00 -0.19452392551E+03  0.19452392551E+03  0.00000000000E+00 0. -1.
         21    1    1    2  503  505  0.28276076140E+02  0.93989411966E+02 -0.82229202820E+02  0.12804369504E+03  0.00000000000E+00 0. -1.
         21    1    1    2  504  501  0.11162797275E+02 -0.95088492972E+02  0.16310134763E+04  0.16338211008E+04  0.00000000000E+00 0. -1.
         21    1    1    2  505  504 -0.23479691979E+02  0.66441233893E+02 -0.73005664403E+02  0.10146704160E+03  0.00000000000E+00 0. -1.
          2    1    1    2  501    0 -0.15959181436E+02 -0.65342152887E+02  0.15127759762E+04  0.15142705989E+04  0.00000000000E+00 0. -1.
<scales pt_clust_3="44.96660" pt_clust_4="30.31655" pt_clust_5="44.96660" pt_clust_6="164.52729"></scales>
<clustering>
<clus scale="   30.317">  4  6 -1 -1</clus>
<clus scale="   44.967">  3  5 -1 -1</clus>
<clus scale="  164.527">  1  4  2 -1</clus>
<clus scale="  169.048">  2  3  1 -1</clus>
</clustering>
</event>
<event>
 6    0  0.1361744E+002  0.2159231E+03  0.7546771E-02  0.1136960E+00
          2   -1    0    0  504    0 -0.00000000000E+00  0.00000000000E+00  0.24970088068E+04  0.24970088068E+04  0.00000000000E+00 0. -1.
         21   -1    0    0  503  502  0.00000000000E+00 -0.00000000000E+00 -0.23693971627E+03  0.23693971627E+03  0.00000000000E+00 0. -1.
         21    1    1    2  503  501 -0.14446191530E+02 -0.26323493599E+02  0.28065668916E+01  0.30157844464E+02  0.00000000000E+00 0. -1.
         21    1    1    2  504  505 -0.55190958473E+02  0.22687204913E+02  0.27584467718E+03  0.28222515319E+03  0.00000000000E+00 0. -1.
         21    1    1    2  505  502  0.18200873607E+03 -0.11299409827E+03 -0.16415296652E+03  0.26989079767E+03  0.00000000000E+00 0. -1.
          2    1    1    2  501    0 -0.11237158606E+03  0.11663038696E+03  0.21455708130E+04  0.21516747277E+04  0.00000000000E+00 0. -1.
<scales pt_clust_3="30.02697" pt_clust_4="59.72147" pt_clust_5="215.92311" pt_clust_6="14000.00000"></scales>
<clustering>
<clus scale="   30.027">  2  3  1 -1</clus>
<clus scale="   59.721">  1  4  2 -1</clus>
<clus scale="  215.923">  2  5  1 -1</clus>
<clus scale="   30.027">  2  3  1 -1</clus>
</clustering>
</event>
<event>
 6    0  0.1361744E+002  0.1311747E+03  0.7546771E-02  0.1225723E+00
         21   -1    0    0  504  502  0.00000000000E+00  0.00000000000E+00  0.12023376976E+02  0.12023376976E+02  0.00000000000E+00 0. -1.
          2   -1    0    0  502    0 -0.00000000000E+00 -0.00000000000E+00 -0.28502313950E+04  0.28502313950E+04  0.00000000000E+00 0.  1.
         21    1    1    2  503  505 -0.79252858564E+02  0.13740652801E+02 -0.30867713434E+03  0.31898494383E+03  0.00000000000E+00 0. -1.
         21    1    1    2  504  503 -0.32694915495E+02  0.32786791723E+02 -0.99367666797E+02  0.10962602070E+03  0.00000000000E+00 0. -1.
         21    1    1    2  505  501  0.50556384467E+02 -0.55042750369E+01 -0.66733040405E+03  0.66926535337E+03  0.00000000000E+00 0.  1.
          2    1    1    2  501    0  0.61391389592E+02 -0.41023169487E+02 -0.17628328129E+04  0.17643784541E+04  0.00000000000E+00 0.  1.
<scales pt_clust_3="38.00930" pt_clust_4="38.00930" pt_clust_5="39.20679" pt_clust_6="130.11119"></scales>
<clustering>
<clus scale="   38.009">  3  4 -1 -1</clus>
<clus scale="   39.207">  5  6 -1 -1</clus>
<clus scale="  130.111">  2  5  1 -1</clus>
<clus scale="  131.175">  1  3  2 -1</clus>
</clustering>
</event>
<event>
 6    0  0.1361744E+002  0.2345207E+03  0.7546771E-02  0.1123498E+00
          1   -1    0    0  504    0 -0.00000000000E+00  0.00000000000E+00  0.57949176966E+03  0.57949176966E+03  0.00000000000E+00 0. -1.
         21   -1    0    0  503  502  0.00000000000E+00 -0.00000000000E+00 -0.16851673666E+03  0.16851673666E+03  0.00000000000E+00 0. -1.
         21    1    1    2  503  505 -0.15143140263E+03 -0.10431901722E+03 -0.39599084279E+02  0.18810107530E+03  0.00000000000E+00 0. -1.
         21    1    1    2  504  502 -0.11002244775E+02 -0.68677727016E+02  0.38698099160E+02  0.79594110692E+02  0.00000000000E+00 0.  1.
         21    1    1    2  505  501  0.61030380712E+02  0.57154827083E+02  0.86249512597E+02  0.12012643361E+03  0.00000000000E+00 0. -1.
          1    1    1    2  501    0  0.10140326669E+03  0.11584191715E+03  0.32562650552E+03  0.36018688671E+03  0.00000000000E+00 0. -1.
<scales pt_clust_3="224.17295" pt_clust_4="69.55343" pt_clust_5="50.77266" pt_clust_6="50.77266"></scales>
<clustering>
<clus scale="   50.773">  5  6 -1 -1</clus>
<clus scale="   69.553">  2  4  1 -1</clus>
<clus scale="  224.173">  2  3  1 -1</clus>
<clus scale="   69.553">  2  3  1 -1</clus>
</clustering>
</event>
<event>
 6    0  0.1361744E+002  0.1285754E+03  0.7546771E-02  0.1229585E+00
         -1   -1    0    0    0  501 -0.00000000000E+00  0.00000000000E+00  0.28626219668E+03  0.28626219668E+03  0.00000000000E+00 0. -1.
         21   -1    0    0  505  502  0.00000000000E+00 -0.00000000000E+00 -0.12448158107E+03  0.12448158107E+03  0.00000000000E+00 0. -1.
         21    1    1    2  503  502  0.98639249756E+02  0.41943673054E+01  0.11957621470E+03  0.15506697079E+03  0.00000000000E+00 0.  1.
         21    1    1    2  504  501 -0.75005880777E+02 -0.61458345904E+02  0.36269468689E+02  0.10353011538E+03  0.00000000000E+00 0. -1.
         21    1    1    2  505  504 -0.71568193038E+02  0.29918149333E+02 -0.33319558033E+02  0.84423307575E+02  0.00000000000E+00 0. -1.
         -1    1    1    2    0  503  0.47934824060E+02  0.27345829265E+02  0.39254490256E+02  0.67723384005E+02  0.00000000000E+00 0. -1.
<scales pt_clust_3="32.84199" pt_clust_4="120.83882" pt_clust_5="77.56998" pt_clust_6="32.84199"></scales>
<clustering>
<clus scale="   32.842">  3  6 -1 -1</clus>
<clus scale="   77.570">  2  5  1 -1</clus>
<clus scale="  120.839">  2  4  1 -1</clus>
<clus scale="   77.570">  2  3  1 -1</clus>
</clustering>
</event>
<event>
 6    0  0.1361744E+002  0.1088392E+03  0.7546771E-02  0.1262735E+00
         21   -1    0    0  505  502  0.00000000000E+00  0.00000000000E+00  0.22591810675E+03  0.22591810675E+03  0.00000000000E+00 0.  1.
          1   -1    0    0  504    0 -0.00000000000E+00 -0.00000000000E+00 -0.16835970519E+04  0.16835970519E+04  0.00000000000E+00 0.  1.
         21    1    1    2  503  502  0.28072481402E+02 -0.66163744781E+02  0.68912514913E+02  0.99572285538E+02  0.00000000000E+00 0. -1.
         21    1    1    2  504  503  0.49150833548E+02  0.38794703488E+02 -0.37198615243E+03  0.37721947332E+03  0.00000000000E+00 0. -1.
         21    1    1    2  505  501 -0.85120008614E+01 -0.44005798480E+02  0.13349499683E+03  0.14081860189E+03  0.00000000000E+00 0.  1.
          1    1    1    2  501    0 -0.68711314089E+02  0.71374839773E+02 -0.12881003044E+04  0.12919047978E+04  0.00000000000E+00 0.  1.
<scales pt_clust_3="14000.00000" pt_clust_4="61.62189" pt_clust_5="44.82147" pt_clust_6="108.83922"></scales>
<clustering>
<clus scale="   44.821">  1  5  2 -1</clus>
<clus scale="   61.622">  2  4  1 -1</clus>
<clus scale="  108.839">  2  6  1 -1</clus>
<clus scale="   44.821">  1  3  2 -1</clus>
</clustering>
</event>
<event>
 6    0  0.1361744E+002  0.4068445E+03  0.7546771E-02  0.1041435E+00
         21   -1    0    0  504  502  0.00000000000E+00  0.00000000000E+00  0.88597787890E+02  0.88597787890E+02  0.00000000000E+00 0.  1.
          1   -1    0    0  502    0 -0.00000000000E+00 -0.00000000000E+00 -0.26431812661E+04  0.26431812661E+04  0.00000000000E+00 0.  1.
         21    1    1    2  503  501 -0.36073508987E+02  0.65570544177E+00 -0.26919716025E+03  0.27160419564E+03  0.00000000000E+00 0. -1.
         21    1    1    2  504  505  0.49748917160E+02  0.75689232148E+01 -0.10648180977E+03  0.11777359283E+03  0.00000000000E+00 0. -1.
         21    1    1    2  505  503  0.24576615106E+03 -0.27821074579E+03 -0.50283496343E+03  0.62501617621E+03  0.00000000000E+00 0.  1.
          1    1    1    2  501    0 -0.25944155923E+03  0.26998611713E+03 -0.16760695447E+04  0.17173850893E+04  0.00000000000E+00 0.  1.
<scales pt_clust_3="33.20075" pt_clust_4="50.32140" pt_clust_5="392.53381" pt_clust_6="33.20075"></scales>
<clustering>
<clus scale="   33.201">  3  6 -1 -1</clus>
<clus scale="   50.321">  1  4  2 -1</clus>
<clus scale="  392.534">  1  5  2 -1</clus>
<clus scale="   50.321">  1  3  2 -1</clus>
</clustering>
</event>
<event>
 6    0  0.1361744E+002  0.1452029E+03  0.7546771E-02  0.1206495E+00
          3   -1    0    0  504    0 -0.00000000000E+00  0.00000000000E+00  0.87622365166E+03  0.87622365166E+03  0.00000000000E+00 0. -1.
         21   -1    0    0  505  502  0.00000000000E+00 -0.00000000000E+00 -0.29654054081E+03  0.29654054081E+03  0.00000000000E+00 0. -1.
         21    1    1    2  503  502 -0.26503972198E+02  0.25699150410E+02 -0.10379265672E+02  0.38348872603E+02  0.00000000000E+00 0.  1.
         21    1    1    2  504  503  0.59246743994E+02 -0.14988846575E+02  0.33022412566E+03  0.33583152825E+03  0.00000000000E+00 0. -1.
         21    1    1    2  505  501 -0.63459115776E+02  0.93537950526E+02 -0.25154806859E+03  0.27577679085E+03  0.00000000000E+00 0. -1.
          3    1    1    2  501    0  0.30716343980E+02 -0.10424825436E+03  0.51138631945E+03  0.52280700076E+03  0.00000000000E+00 0. -1.
<scales pt_clust_3="36.91757" pt_clust_4="60.78404" pt_clust_5="145.20286" pt_clust_6="14000.00000"></scales>
<clustering>
<clus scale="   36.918">  2  3  1 -1</clus>
<clus scale="   60.784">  1  4  2 -1</clus>
<clus scale="  145.203">  2  5  1 -1</clus>
<clus scale="   36.918">  2  3  1 -1</clus>
</clustering>
</event>
<event>
 6    0  0.1361744E+002  0.1258636E+03  0.7546771E-02  0.1233726E+00
         21   -1    0    0  501  502  0.00000000000E+00  0.00000000000E+00  0.20766252340E+03  0.20766252340E+03  0.00000000000E+00 0. -1.
          2   -1    0    0  503    0 -0.00000000000E+00 -0.00000000000E+00 -0.39425701285E+03  0.39425701285E+03  0.00000000000E+00 0. -1.
         21    1    1    2  503  504 -0.14627972666E+02 -0.35691520097E+02 -0.43596470358E+02  0.58210947586E+02  0.00000000000E+00 0.  1.
         21    1    1    2  504  505  0.81673530893E+02 -0.84642039105E+00  0.89369049648E+02  0.12107067816E+03  0.00000000000E+00 0. -1.
         21    1    1    2  505  502  0.35315623829E+02  0.23360714335E+02  0.81714956936E+02  0.92033963555E+02  0.00000000000E+00 0. -1.
          2    1    1    2  501    0 -0.10236118206E+03  0.13177226153E+02 -0.31408202567E+03  0.33060394694E+03  0.00000000000E+00 0. -1.
<scales pt_clust_3="38.57282" pt_clust_4="31.79876" pt_clust_5="31.79876" pt_clust_6="117.86071"></scales>
<clustering>
<clus scale="   31.799">  4  5 -1 -1</clus>
<clus scale="   38.573">  2  3  1 -1</clus>
<clus scale="  117.861">  2  6  1 -1</clus>
<clus scale="  125.864">  1  3  2 -1</clus>
</clustering>
</event>
<event>
 6    0  0.1361744E+002  0.1029858E+03  0.7546771E-02  0.1274140E+00
         21   -1    0    0  505  502  0.00000000000E+00  0.00000000000E+00  0.46713033540E+03  0.46713033540E+03  0.00000000000E+00 0. -1.
         -4   -1    0    0    0  501 -0.00000000000E+00 -0.00000000000E+00 -0.21631999407E+03  0.21631999407E+03  0.00000000000E+00 0.  1.
         21    1    1    2  503  502 -0.46386223904E+02 -0.73192330998E+02  0.33654622182E+03  0.34752288919E+03  0.00000000000E+00 0. -1.
         21    1    1    2  504  501  0.28056566293E+02  0.12454913007E+02 -0.31165442870E+02  0.43744492219E+02  0.00000000000E+00 0. -1.
         21    1    1    2  505  504  0.29841964025E+02 -0.31059395601E+02  0.10177571777E+03  0.11051482072E+03  0.00000000000E+00 0. -1.
         -4    1    1    2    0  503 -0.11512306415E+02  0.91796813591E+02 -0.15634615539E+03  0.18166812734E+03  0.00000000000E+00 0.  1.
<scales pt_clust_3="102.98576" pt_clust_4="30.69684" pt_clust_5="43.33357" pt_clust_6="14000.00000"></scales>
<clustering>
<clus scale="   30.697">  2  4  1 -1</clus>
<clus scale="   43.334">  1  5  2 -1</clus>
<clus scale="  102.986">  1  3  2 -1</clus>
<clus scale="   43.334">  1  3  2 -1</clus>
</clustering>
</event>
<event>
 6    0  0.1361744E+002  0.1709273E+03  0.7546771E-02  0.1176884E+00
         21   -1    0    0  504  502  0.00000000000E+00  0.00000000000E+00  0.20023335309E+03  0.20023335309E+03  0.00000000000E+00 0. -1.
          1   -1    0    0  503    0 -0.00000000000E+00 -0.00000000000E+00 -0.96136865052E+03  0.96136865052E+03  0.00000000000E+00 0. -1.
         21    1    1    2  503  502  0.20858798541E+02  0.70111786304E+02  0.81304373957E+02  0.10936705756E+03  0.00000000000E+00 0. -1.
         21    1    1    2  504  505 -0.79580521748E+02  0.81933347218E+02  0.62699290460E+02  0.13029709840E+03  0.00000000000E+00 0. -1.
         21    1    1    2  505  501 -0.64366111116E+01 -0.68272981079E+02 -0.38944645071E+03  0.39543794441E+03  0.00000000000E+00 0. -1.
          1    1    1    2  501    0  0.65158334318E+02 -0.83772152443E+02 -0.51569251114E+03  0.52649990323E+03  0.00000000000E+00 0. -1.
<scales pt_clust_3="73.14883" pt_clust_4="158.39587" pt_clust_5="51.63920" pt_clust_6="51.63920"></scales>
<clustering>
<clus scale="   51.639">  5  6 -1 -1</clus>
<clus scale="   73.149">  1  3  2 -1</clus>
<clus scale="  158.396">  1  4  2 -1</clus>
<clus scale="   73.149">  1  3  2 -1</clus>
</clustering>
</event>
<event>
 6    0  0.1361744E+002  0.1427358E+03  0.7546771E-02  0.1209694E+00
          2   -1    0    0  504    0 -0.00000000000E+00  0.00000000000E+00  0.14136322435E+03  0.14136322435E+03  0.00000000000E+00 0. -1.
         21   -1    0    0  505  502  0.00000000000E+00 -0.00000000000E+00 -0.38776971410E+03  0.38776971410E+03  0.00000000000E+00 0. -1.
         21    1    1    2  503  502  0.72950594577E+01 -0.81231355548E+02 -0.56954077243E+02  0.99476217918E+02  0.00000000000E+00 0. -1.
         21    1    1    2  504  503  0.93306235538E+02 -0.61818370709E+02 -0.19807788189E+03  0.22751354210E+03  0.00000000000E+00 0. -1.
         21    1    1    2  505  501 -0.32802430019E+02  0.31086772750E+01 -0.27018390324E+02  0.42610523410E+02  0.00000000000E+00 0.  1.
          2    1    1    2  501    0 -0.67798864977E+02  0.13994104898E+03  0.35643859698E+02  0.15953265502E+03  0.00000000000E+00 0. -1.
<scales pt_clust_3="80.54247" pt_clust_4="14000.00000" pt_clust_5="32.94940" pt_clust_6="142.73578"></scales>
<clustering>
<clus scale="   32.949">  2  5  1 -1</clus>
<clus scale="   80.542">  2  3  1 -1</clus>
<clus scale="  142.736">  1  6  2 -1</clus>
<clus scale="   32.949">  2  3  1 -1</clus>
</clustering>
</event>
<event>
 6    0  0.1361744E+002  0.1808111E+03  0.7546771E-02  0.1167020E+00
         21   -1    0    0  501  502  0.00000000000E+00  0.00000000000E+00  0.28521729345E+03  0.28521729345E+03  0.00000000000E+00 0. -1.
          2   -1    0    0  504    0 -0.00000000000E+00 -0.00000000000E+00 -0.49259683187E+03  0.49259683187E+03  0.00000000000E+00 0. -1.
         21    1    1    2  503  505 -0.10693860841E+03  0.15055669243E+02  0.16093505938E+03  0.19381081622E+03  0.00000000000E+00 0. -1.
         21    1    1    2  504  503  0.16676367170E+02  0.33457141150E+02 -0.64607399576E+02  0.74643134955E+02  0.00000000000E+00 0. -1.
         21    1    1    2  505  502 -0.65162968509E+02  0.28211849125E+02  0.68568729268E+02  0.98710645471E+02  0.00000000000E+00 0. -1.
          2    1    1    2  501    0  0.15542520975E+03 -0.76724659518E+02 -0.37227592749E+03  0.41064952867E+03  0.00000000000E+00 0. -1.
<scales pt_clust_3="30.40287" pt_clust_4="37.38290" pt_clust_5="30.40287" pt_clust_6="176.88093"></scales>
<clustering>
<clus scale="   30.403">  3  5 -1 -1</clus>
<clus scale="   37.383">  2  4  1 -1</clus>
<clus scale="  176.881">  2  6  1 -1</clus>
<clus scale="  180.811">  1  3  2 -1</clus>
</clustering>
</event>
<event>
 6    0  0.1361744E+002  0.1733835E+03  0.7546771E-02  0.1174365E+00
         21   -1    0    0  504  502  0.00000000000E+00  0.00000000000E+00  0.74514148008E+02  0.74514148008E+02  0.00000000000E+00 0.  1.
          3   -1    0    0  503    0 -0.00000000000E+00 -0.00000000000E+00 -0.79979448297E+03  0.79979448297E+03  0.00000000000E+00 0.  1.
         21    1    1    2  503  502  0.60250750854E+02 -0.67829489936E+02 -0.12171266418E+03  0.15180568272E+03  0.00000000000E+00 0.  1.
         21    1    1    2  504  505 -0.66345330988E+02 -0.97520144586E+01 -0.32836191277E+02  0.74666057800E+02  0.00000000000E+00 0.  1.
         21    1    1    2  505  501 -0.11756526281E+03 -0.32485464760E+02 -0.13616616505E+03  0.18280623880E+03  0.00000000000E+00 0.  1.
          3    1    1    2  501    0  0.12365984294E+03  0.11006696915E+03 -0.43456531445E+03  0.46503065166E+03  0.00000000000E+00 0.  1.
<scales pt_clust_3="90.72482" pt_clust_4="34.16494" pt_clust_5="34.16494" pt_clust_6="167.14896"></scales>
<clustering>
<clus scale="   34.165">  4  5 -1 -1</clus>
<clus scale="   90.725">  1  3  2 -1</clus>
<clus scale="  167.149">  2  6  1 -1</clus>
<clus scale="   90.725">  1  3  2 -1</clus>
</clustering>
</event>
<event>
 6    0  0.1361744E+002  0.1579042E+03  0.7546771E-02  0.1191083E+00
         21   -1    0    0  505  502  0.00000000000E+00  0.00000000000E+00  0.40137307529E+03  0.40137307529E+03  0.00000000000E+00 0. -1.
          1   -1    0    0  503    0 -0.00000000000E+00 -0.00000000000E+00 -0.20078893064E+04  0.20078893064E+04  0.00000000000E+00 0.  1.
         21    1    1    2  503  502 -0.75072166509E+02  0.10941419717E+02  0.78150090527E+02  0.10891731496E+03  0.00000000000E+00 0. -1.
         21    1    1    2  504  501 -0.88439917984E+01  0.40580027541E+02 -0.71516404611E+03  0.71636901641E+03  0.00000000000E+00 0.  1.
         21    1    1    2  505  504  0.16684973236E+02 -0.14307385169E+03  0.28765136811E+03  0.32170145313E+03  0.00000000000E+00 0. -1.
          1    1    1    2  501    0  0.67231185071E+02  0.91552404432E+02 -0.12571536436E+04  0.12622745972E+04  0.00000000000E+00 0.  1.
<scales pt_clust_3="75.86531" pt_clust_4="38.83883" pt_clust_5="144.25078" pt_clust_6="38.83883"></scales>
<clustering>
<clus scale="   38.839">  4  6 -1 -1</clus>
<clus scale="   75.865">  1  3  2 -1</clus>
<clus scale="  144.251">  1  5  2 -1</clus>
<clus scale="   75.865">  1  3  2 -1</clus>
</clustering>
</event>
<event>
 6    0  0.1361744E+002  0.2076633E+03  0.7546771E-02  0.1143430E+00
          1   -1    0    0  505    0 -0.00000000000E+00  0.00000000000E+00  0.38873008389E+03  0.38873008389E+03  0.00000000000E+00 0.  1.
         21   -1    0    0  503  502  0.00000000000E+00 -0.00000000000E+00 -0.18293802872E+04  0.18293802872E+04  0.00000000000E+00 0. -1.
         21    1    1    2  503  501 -0.11998756945E+03 -0.66063518116E+01  0.10145413219E+03  0.15726920119E+03  0.00000000000E+00 0.  1.
         21    1    1    2  504  502  0.62288028321E+02  0.36253327197E+02 -0.37087933087E+03  0.37781686075E+03  0.00000000000E+00 0. -1.
         21    1    1    2  505  504  0.12396432933E+03  0.55775609493E+01 -0.14188558801E+04  0.14242718394E+04  0.00000000000E+00 0. -1.
          1    1    1    2  501    0 -0.66264788201E+02 -0.35224536334E+02  0.24763087545E+03  0.25875246973E+03  0.00000000000E+00 0.  1.
<scales pt_clust_3="187.59602" pt_clust_4="67.87274" pt_clust_5="67.87274" pt_clust_6="75.04525"></scales>
<clustering>
<clus scale="   67.873">  4  5 -1 -1</clus>
<clus scale="   75.045">  1  6  2 -1</clus>
<clus scale="  187.596">  1  3  2 -1</clus>
<clus scale="  207.663">  2  3  1 -1</clus>
</clustering>
</event>
<event>
 6    0  0.1361744E+002  0.9522018E+02  0.7546771E-02  0.1290681E+00
          2   -1    0    0  505    0 -0.00000000000E+00  0.00000000000E+00  0.12896519825E+04  0.12896519825E+04  0.00000000000E+00 0.  1.
         21   -1    0    0  504  502  0.00000000000E+00 -0.00000000000E+00 -0.62327051689E+03  0.62327051689E+03  0.00000000000E+00 0.  1.
         21    1    1    2  503  502  0.75145541242E+01 -0.39247639380E+02 -0.30967161413E+03  0.31223925813E+03  0.00000000000E+00 0.  1.
         21    1    1    2  504  501 -0.60005933531E+02  0.11870640459E+03 -0.29489251436E+03  0.32350195915E+03  0.00000000000E+00 0.  1.
         21    1    1    2  505  503 -0.12639692767E+00 -0.47153389112E+02  0.25245790938E+03  0.25682378023E+03  0.00000000000E+00 0.  1.
          2    1    1    2  501    0  0.52617776335E+02 -0.32305376093E+02  0.10184876848E+04  0.10203575019E+04  0.00000000000E+00 0.  1.
<scales pt_clust_3="39.96055" pt_clust_4="14000.00000" pt_clust_5="47.42777" pt_clust_6="95.22018"></scales>
<clustering>
<clus scale="   39.961">  2  3  1 -1</clus>
<clus scale="   47.428">  1  5  2 -1</clus>
<clus scale="   95.220">  1  6  2 -1</clus>
<clus scale="   39.961">  2  3  1 -1</clus>
</clustering>
</event>
<event>
 6    0  0.1361744E+002  0.8789330E+02  0.7546771E-02  0.1308035E+00
         21   -1    0    0  503  502  0.00000000000E+00  0.00000000000E+00  0.31476571113E+04  0.31476571113E+04  0.00000000000E+00 0. -1.
          1   -1    0    0  505    0 -0.00000000000E+00 -0.00000000000E+00 -0.27392056199E+02  0.27392056199E+02  0.00000000000E+00 0.  1.
         21    1    1    2  503  501 -0.71015094520E+02  0.41385302574E+02  0.21739976952E+04  0.21755509339E+04  0.00000000000E+00 0. -1.
         21    1    1    2  504  502 -0.19222148436E+02 -0.45242153122E+02  0.71473900572E+03  0.71642737923E+03  0.00000000000E+00 0. -1.
         21    1    1    2  505  504  0.57463706823E+01 -0.37714022911E+02  0.16090522456E+03  0.16536583562E+03  0.00000000000E+00 0.  1.
          1    1    1    2  501    0  0.84490872273E+02  0.41570873459E+02  0.70623129600E+02  0.11770501881E+03  0.00000000000E+00 0.  1.
<scales pt_clust_3="87.89330" pt_clust_4="50.24999" pt_clust_5="38.14929" pt_clust_6="14000.00000"></scales>
<clustering>
<clus scale="   38.149">  2  5  1 -1</clus>
<clus scale="   50.250">  1  4  2 -1</clus>
<clus scale="   87.893">  1  3  2 -1</clus>
<clus scale="   50.250">  1  3  2 -1</clus>
</clustering>
</event>
<event>
 6    0  0.1361744E+002  0.1962472E+03  0.7546771E-02  0.1152944E+00
          2   -1    0    0  504    0 -0.00000000000E+00  0.00000000000E+00  0.12952885554E+04  0.12952885554E+04  0.00000000000E+00 0. -1.
         21   -1    0    0  503  502  0.00000000000E+00 -0.00000000000E+00 -0.33975010365E+03  0.33975010365E+03  0.00000000000E+00 0. -1.
         21    1    1    2  503  501 -0.42371268107E+02 -0.10737804460E+02 -0.75607721100E+00  0.43717232968E+02  0.00000000000E+00 0.  1.
         21    1    1    2  504  505 -0.39018398431E+02 -0.23256217685E+02  0.11367949488E+03  0.12241860412E+03  0.00000000000E+00 0.  1.
         21    1    1    2  505  502  0.23869055372E+03  0.24258779051E+02 -0.26075312556E+03  0.35433580300E+03  0.00000000000E+00 0. -1.
          2    1    1    2  501    0 -0.15730088718E+03  0.97352430939E+01  0.11033681597E+04  0.11145670190E+04  0.00000000000E+00 0. -1.
<scales pt_clust_3="43.71069" pt_clust_4="46.00028" pt_clust_5="14000.00000" pt_clust_6="196.24717"></scales>
<clustering>
<clus scale="   43.711">  2  3  1 -1</clus>
<clus scale="   46.000">  1  4  2 -1</clus>
<clus scale="  196.247">  1  6  2 -1</clus>
<clus scale="   43.711">  2  3  1 -1</clus>
</clustering>
</event>
<event>
 6    0  0.1361744E+002  0.2385045E+03  0.7546771E-02  0.1120793E+00
         21   -1    0    0  504  502  0.00000000000E+00  0.00000000000E+00  0.49952803410E+02  0.49952803410E+02  0.00000000000E+00 0.  1.
          1   -1    0    0  505    0 -0.00000000000E+00 -0.00000000000E+00 -0.36948417448E+04  0.36948417448E+04  0.00000000000E+00 0.  1.
         21    1    1    2  503  501  0.87571696496E+02 -0.74500293587E+02 -0.26260672095E+03  0.28667295942E+03  0.00000000000E+00 0. -1.
         21    1    1    2  504  503  0.87804453113E+02 -0.96372988866E+02 -0.10813031739E+03  0.16937987043E+03  0.00000000000E+00 0.  1.
         21    1    1    2  505  502 -0.56324528525E+02  0.14120512013E+03 -0.10214456773E+04  0.10326967659E+04  0.00000000000E+00 0.  1.
          1    1    1    2  501    0 -0.11905162108E+03  0.29668162324E+02 -0.22527062257E+04  0.22560449525E+04  0.00000000000E+00 0.  1.
<scales pt_clust_3="96.61064" pt_clust_4="96.61064" pt_clust_5="215.17586" pt_clust_6="122.69266"></scales>
<clustering>
<clus scale="   96.611">  3  4 -1 -1</clus>
<clus scale="  122.693">  2  6  1 -1</clus>
<clus scale="  215.176">  2  5  1 -1</clus>
<clus scale="  238.505">  1  3  2 -1</clus>
</clustering>
</event>
<event>
 6    0  0.1361744E+002  0.3022346E+03  0.7546771E-02  0.1084129E+00
         -4   -1    0    0    0  501 -0.00000000000E+00  0.00000000000E+00  0.15599972536E+03  0.15599972536E+03  0.00000000000E+00 0.  1.
         21   -1    0    0  505  502  0.00000000000E+00 -0.00000000000E+00 -0.69859681268E+03  0.69859681268E+03  0.00000000000E+00 0.  1.
         21    1    1    2  503  502 -0.27381138392E+01 -0.15736477012E+03 -0.11463371891E+03  0.19471018888E+03  0.00000000000E+00 0.  1.
         21    1    1    2  504  501  0.64873340966E+02  0.27414071577E+03 -0.34006543615E+03  0.44159504444E+03  0.00000000000E+00 0.  1.
         21    1    1    2  505  504 -0.34491041341E+02  0.29687898124E+02 -0.43040346770E+02  0.62637645852E+02  0.00000000000E+00 0. -1.
         -4    1    1    2    0  503 -0.27644185785E+02 -0.14646384377E+03 -0.44857585485E+02  0.15565365886E+03  0.00000000000E+00 0.  1.
<scales pt_clust_3="62.82182" pt_clust_4="295.40366" pt_clust_5="45.50828" pt_clust_6="62.82182"></scales>
<clustering>
<clus scale="   45.508">  2  5  1 -1</clus>
<clus scale="   62.822">  3  6 -1 -1</clus>
<clus scale="  295.404">  2  4  1 -1</clus>
<clus scale="   45.508">  2  3  1 -1</clus>
</clustering>
</event>
<event>
 6    0  0.1361744E+002  0.1530497E+03  0.7546771E-02  0.1196775E+00
         21   -1    0    0  504  502  0.00000000000E+00  0.00000000000E+00  0.14723406340E+03  0.14723406340E+03  0.00000000000E+00 0. -1.
          1   -1    0    0  505    0 -0.00000000000E+00 -0.00000000000E+00 -0.19085707482E+04  0.19085707482E+04  0.00000000000E+00 0. -1.
         21    1    1    2  503  502 -0.27807701550E+02  0.59808434181E+02  0.56621007391E+02  0.86926725135E+02  0.00000000000E+00 0. -1.
         21    1    1    2  504  501 -0.62760298235E+02 -0.26122669760E+02  0.24777112850E+02  0.72354365667E+02  0.00000000000E+00 0. -1.
         21    1    1    2  505  503 -0.47499036992E+02  0.59185244661E+02 -0.39359574223E+02  0.85488173356E+02  0.00000000000E+00 0.  1.
          1    1    1    2  501    0  0.13806703678E+03 -0.92871009082E+02 -0.18033752308E+04  0.18110355474E+04  0.00000000000E+00 0. -1.
<scales pt_clust_3="65.95693" pt_clust_4="81.60017" pt_clust_5="14000.00000" pt_clust_6="153.04970"></scales>
<clustering>
<clus scale="   65.957">  1  3  2 -1</clus>
<clus scale="   81.600">  1  4  2 -1</clus>
<clus scale="  153.050">  2  6  1 -1</clus>
<clus scale="   65.957">  1  3  2 -1</clus>
</clustering>
</event>
<event>
 6    0  0.1361744E+002  0.1591930E+03  0.7546771E-02  0.1189611E+00
          2   -1    0    0  504    0 -0.00000000000E+00  0.00000000000E+00  0.12731013576E+04  0.12731013576E+04  0.00000000000E+00 0. -1.
         21   -1    0    0  505  502  0.00000000000E+00 -0.00000000000E+00 -0.10803273989E+03  0.10803273989E+03  0.00000000000E+00 0.  1.
         21    1    1    2  503  502  0.38872592585E+02  0.20286779566E+00  0.12291480865E+02  0.40770088441E+02  0.00000000000E+00 0. -1.
         21    1    1    2  504  503  0.10891131632E+03  0.19302758015E+02 -0.54031936291E+02  0.12310045260E+03  0.00000000000E+00 0.  1.
         21    1    1    2  505  501 -0.33779701886E+02  0.69166102212E+01  0.46538946764E+03  0.46666504513E+03  0.00000000000E+00 0.  1.
          2    1    1    2  501    0 -0.11400420702E+03 -0.26422236032E+02  0.74141960546E+03  0.75059851128E+03  0.00000000000E+00 0. -1.
<scales pt_clust_3="31.87384" pt_clust_4="158.46542" pt_clust_5="30.32868" pt_clust_6="30.32868"></scales>
<clustering>
<clus scale="   30.329">  5  6 -1 -1</clus>
<clus scale="   31.874">  3  4 -1 -1</clus>
<clus scale="  158.465">  2  3  1 -1</clus>
<clus scale="  158.465">  2  3  1 -1</clus>
</clustering>
</event>
<event>
 6    0  0.1361744E+002  0.1065522E+03  0.7546771E-02  0.1267091E+00
          2   -1    0    0  503    0 -0.00000000000E+00  0.00000000000E+00  0.23907467530E+04  0.23907467530E+04  0.00000000000E+00 0. -1.
         21   -1    0    0  504  502  0.00000000000E+00 -0.00000000000E+00 -0.17245565553E+04  0.17245565553E+04  0.00000000000E+00 0. -1.
         21    1    1    2  503  505  0.42742480266E+02  0.34205637164E+02  0.11114564865E+03  0.12389632944E+03  0.00000000000E+00 0. -1.
         21    1    1    2  504  501  0.96531520413E+02 -0.39717638359E+02 -0.36199703766E+03  0.37674617517E+03  0.00000000000E+00 0.  1.
         21    1    1    2  505  502 -0.17182541903E+03  0.11437170146E+03 -0.13394750792E+04  0.13552853384E+04  0.00000000000E+00 0. -1.
          2    1    1    2  501    0  0.32551418354E+02 -0.10885970027E+03  0.22565166659E+04  0.22593754652E+04  0.00000000000E+00 0. -1.
<scales pt_clust_3="54.74436" pt_clust_4="104.46919" pt_clust_5="106.55219" pt_clust_6="14000.00000"></scales>
<clustering>
<clus scale="   54.744">  1  3  2 -1</clus>
<clus scale="  104.469">  2  4  1 -1</clus>
<clus scale="  106.552">  2  5  1 -1</clus>
<clus scale="  104.469">  2  3  1 -1</clus>
</clustering>
</event>
<event>
 6    0  0.1361744E+002  0.1145690E+03  0.7546771E-02  0.1252335E+00
         21   -1    0    0  504  502  0.00000000000E+00  0.00000000000E+00  0.26365998134E+03  0.26365998134E+03  0.00000000000E+00 0. -1.
          1   -1    0    0  505    0 -0.00000000000E+00 -0.00000000000E+00 -0.27494111518E+03  0.27494111518E+03  0.00000000000E+00 0.  1.
         21    1    1    2  503  501  0.57521641914E+02 -0.13700708183E+02  0.78012521759E+02  0.97889745349E+02  0.00000000000E+00 0. -1.
         21    1    1    2  504  503  0.49663746175E+02  0.10949893404E+02  0.11452932379E+03  0.12531302350E+03  0.00000000000E+00 0. -1.
         21    1    1    2  505  502 -0.11607220109E+03  0.80572962197E+02 -0.63966633723E+02  0.15510154201E+03  0.00000000000E+00 0.  1.
          1    1    1    2  501    0  0.88868130025E+01 -0.77822147419E+02 -0.13985634566E+03  0.16029678567E+03  0.00000000000E+00 0.  1.
<scales pt_clust_3="32.79951" pt_clust_4="32.79951" pt_clust_5="108.97350" pt_clust_6="78.32791"></scales>
<clustering>
<clus scale="   32.800">  3  4 -1 -1</clus>
<clus scale="   78.328">  2  6  1 -1</clus>
<clus scale="  108.973">  2  5  1 -1</clus>
<clus scale="  114.569">  1  3  2 -1</clus>
</clustering>
</event>
<event>
 6    0  0.1361744E+002  0.1681107E+03  0.7546771E-02  0.1179833E+00
         21   -1    0    0  504  502  0.00000000000E+00  0.00000000000E+00  0.74594205055E+03  0.74594205055E+03  0.00000000000E+00 0. -1.
          2   -1    0    0  502    0 -0.00000000000E+00 -0.00000000000E+00 -0.29558084471E+03  0.29558084471E+03  0.00000000000E+00 0.  1.
         21    1    1    2  503  505 -0.27110384536E+02  0.31417247047E+02  0.24611876431E+03  0.24959259305E+03  0.00000000000E+00 0. -1.
         21    1    1    2  504  503 -0.35482479046E+02 -0.13370394393E+01  0.30919911720E+03  0.31123124534E+03  0.00000000000E+00 0. -1.
         21    1    1    2  505  501 -0.10628944255E+03  0.28747826440E+02  0.13955776785E+03  0.17776460191E+03  0.00000000000E+00 0.  1.
          2    1    1    2  501    0  0.16888230613E+03 -0.58828034048E+02 -0.24451444353E+03  0.30293445497E+03  0.00000000000E+00 0.  1.
<scales pt_clust_3="78.39278" pt_clust_4="33.64259" pt_clust_5="14000.00000" pt_clust_6="168.11072"></scales>
<clustering>
<clus scale="   33.643">  3  4 -1 -1</clus>
<clus scale="   78.393">  1  3  2 -1</clus>
<clus scale="  168.111">  2  6  1 -1</clus>
<clus scale="   78.393">  1  3  2 -1</clus>
</clustering>
</event>
<event>
 6    0  0.1361744E+002  0.2000704E+03  0.7546771E-02  0.1149680E+00
          2   -1    0    0  504    0 -0.00000000000E+00  0.00000000000E+00  0.37790646642E+04  0.37790646642E+04  0.00000000000E+00 0. -1.
         21   -1    0    0  501  502  0.00000000000E+00 -0.00000000000E+00 -0.25460503124E+02  0.25460503124E+02  0.00000000000E+00 0. -1.
         21    1    1    2  503  505  0.80112140519E+02 -0.20984321568E+02  0.16523987206E+03  0.18483103671E+03  0.00000000000E+00 0. -1.
         21    1    1    2  504  503  0.15497900366E+00 -0.44316722651E+02  0.89628962550E+03  0.89738458238E+03  0.00000000000E+00 0.  1.
         21    1    1    2  505  502  0.95681362620E+02 -0.59173757502E+02  0.29759567580E+03  0.31815034651E+03  0.00000000000E+00 0. -1.
          2    1    1    2  501    0 -0.17594848214E+03  0.12447480172E+03  0.23944789877E+04  0.24041592017E+04  0.00000000000E+00 0. -1.
<scales pt_clust_3="32.61280" pt_clust_4="44.31699" pt_clust_5="32.61280" pt_clust_6="196.42633"></scales>
<clustering>
<clus scale="   32.613">  3  5 -1 -1</clus>
<clus scale="   44.317">  1  4  2 -1</clus>
<clus scale="  196.426">  1  6  2 -1</clus>
<clus scale="  200.070">  2  3  1 -1</clus>
</clustering>
</event>
<event>
 6    0  0.1361744E+002  0.1079766E+03  0.7546771E-02  0.1264363E+00
         21   -1    0    0  501  502  0.00000000000E+00  0.00000000000E+00  0.51162770831E+01  0.51162770831E+01  0.00000000000E+00 0. -1.
          1   -1    0    0  505    0 -0.00000000000E+00 -0.00000000000E+00 -0.38292496901E+04  0.38292496901E+04  0.00000000000E+00 0. -1.
         21    1    1    2  503  504  0.49921869126E+02 -0.14454744368E+01 -0.43850419797E+03  0.44133911457E+03  0.00000000000E+00 0. -1.
         21    1    1    2  504  502  0.39059162008E+02 -0.46919415559E+02 -0.57243696534E+03  0.57568318456E+03  0.00000000000E+00 0. -1.
         21    1    1    2  505  503 -0.55044409720E+02  0.83370264477E+02 -0.21742560562E+04  0.21765499962E+04  0.00000000000E+00 0. -1.
          1    1    1    2  501    0 -0.33936621414E+02 -0.35005374481E+02 -0.63893619350E+03  0.64079367184E+03  0.00000000000E+00 0. -1.
<scales pt_clust_3="41.20597" pt_clust_4="41.20597" pt_clust_5="97.89493" pt_clust_6="48.75521"></scales>
<clustering>
<clus scale="   41.206">  3  4 -1 -1</clus>
<clus scale="   48.755">  1  6  2 -1</clus>
<clus scale="   97.895">  2  5  1 -1</clus>
<clus scale="   48.755">  1  3  2 -1</clus>
</clustering>
</event>
<event>
 6    0  0.1361744E+002  0.8510850E+02  0.7546771E-02  0.1315149E+00
         21   -1    0    0  504  502  0.00000000000E+00  0.00000000000E+00  0.54186568397E+02  0.54186568397E+02  0.00000000000E+00 0.  1.
          2   -1    0    0  505    0 -0.00000000000E+00 -0.00000000000E+00 -0.13267849394E+04  0.13267849394E+04  0.00000000000E+00 0.  1.
         21    1    1    2  503  501  0.94613266493E+02 -0.23873153818E+02 -0.70972791559E+02  0.12065958234E+03  0.00000000000E+00 0.  1.
         21    1    1    2  504  503 -0.12352834117E+02  0.51076123466E+02  0.72040366786E+00  0.52553609585E+02  0.00000000000E+00 0.  1.
         21    1    1    2  505  502 -0.52118319571E+01 -0.29816715256E+02 -0.18160787969E+03  0.18411306762E+03  0.00000000000E+00 0.  1.
          2    1    1    2  501    0 -0.77048600420E+02  0.26137456087E+01 -0.10207381034E+04  0.10236452483E+04  0.00000000000E+00 0.  1.
<scales pt_clust_3="14000.00000" pt_clust_4="51.92056" pt_clust_5="30.26879" pt_clust_6="85.10850"></scales>
<clustering>
<clus scale="   30.269">  2  5  1 -1</clus>
<clus scale="   51.921">  1  4  2 -1</clus>
<clus scale="   85.108">  2  6  1 -1</clus>
<clus scale="   51.921">  1  3  2 -1</clus>
</clustering>
</event>
<event>
 6    0  0.1361744E+002  0.1403142E+03  0.7546771E-02  0.1212907E+00
         21   -1    0    0  504  502  0.00000000000E+00  0.00000000000E+00  0.22992955354E+02  0.22992955354E+02  0.00000000000E+00 0. -1.
          2   -1    0    0  505    0 -0.00000000000E+00 -0.00000000000E+00 -0.25774046498E+04  0.25774046498E+04  0.00000000000E+00 0.  1.
         21    1    1    2  503  501 -0.36130746257E+01  0.65714418447E+02 -0.28390681673E+03  0.29143527529E+03  0.00000000000E+00 0. -1.
         21    1    1    2  504  503  0.30607836869E+02  0.26364271157E+02 -0.81034059062E+02  0.90545199759E+02  0.00000000000E+00 0. -1.
         21    1    1    2  505  502  0.50136909090E+01  0.38901180615E+02 -0.18681999050E+02  0.43444862047E+02  0.00000000000E+00 0. -1.
          2    1    1    2  501    0 -0.32008453152E+02 -0.13097987022E+03 -0.21707888196E+04  0.21749722680E+04  0.00000000000E+00 0.  1.
<scales pt_clust_3="49.22562" pt_clust_4="49.22562" pt_clust_5="39.22294" pt_clust_6="127.15359"></scales>
<clustering>
<clus scale="   39.223">  1  5  2 -1</clus>
<clus scale="   49.226">  3  4 -1 -1</clus>
<clus scale="  127.154">  2  6  1 -1</clus>
<clus scale="   39.223">  1  3  2 -1</clus>
</clustering>
</event>
<event>
 6    0  0.1361744E+002  0.1641082E+03  0.7546771E-02  0.1184135E+00
         21   -1    0    0  504  502  0.00000000000E+00  0.00000000000E+00  0.10888992857E+03  0.10888992857E+03  0.00000000000E+00 0. -1.
          2   -1    0    0  505    0 -0.00000000000E+00 -0.00000000000E+00 -0.10909389852E+04  0.10909389852E+04  0.00000000000E+00 0. -1.
         21    1    1    2  503  501 -0.92414703975E+01 -0.36555188398E+02 -0.30706964691E+02  0.48627196654E+02  0.00000000000E+00 0.  1.
         21    1    1    2  504  503 -0.59048757609E+02 -0.13573539068E+03  0.18922576692E+02  0.14922773190E+03  0.00000000000E+00 0. -1.
         21    1    1    2  505  502  0.36002517950E+02  0.85808797041E+02 -0.14992234552E+03  0.17645407514E+03  0.00000000000E+00 0.  1.
          2    1    1    2  501    0  0.32287710056E+02  0.86481782037E+02 -0.82034232307E+03  0.82551991003E+03  0.00000000000E+00 0. -1.
<scales pt_clust_3="34.45354" pt_clust_4="34.45354" pt_clust_5="149.23604" pt_clust_6="92.31248"></scales>
<clustering>
<clus scale="   34.454">  3  4 -1 -1</clus>
<clus scale="   92.312">  2  6  1 -1</clus>
<clus scale="  149.236">  2  5  1 -1</clus>
<clus scale="  164.108">  1  3  2 -1</clus>
</clustering>
</event>
<event>
 6    0  0.1361744E+002  0.1213745E+03  0.7546771E-02  0.1240847E+00
         -1   -1    0    0    0  501 -0.00000000000E+00  0.00000000000E+00  0.53713403423E+03  0.53713403423E+03  0.00000000000E+00 0.  1.
         21   -1    0    0  505  502  0.00000000000E+00 -0.00000000000E+00 -0.16275991361E+03  0.16275991361E+03  0.00000000000E+00 0.  1.
         21    1    1    2  503  502  0.80700429024E+02  0.11689493275E+03 -0.30718639434E+02  0.14532934789E+03  0.00000000000E+00 0.  1.
         21    1    1    2  504  503 -0.46787812500E+02  0.84173852790E+01  0.12325224066E+03  0.13210248522E+03  0.00000000000E+00 0.  1.
         21    1    1    2  505  501  0.20928448662E+02 -0.83963917337E+02 -0.38594168581E+02  0.94749402248E+02  0.00000000000E+00 0.  1.
         -1    1    1    2    0  504 -0.54841065186E+02 -0.41348400695E+02  0.32043468797E+03  0.32771271249E+03  0.00000000000E+00 0.  1.
<scales pt_clust_3="107.57659" pt_clust_4="46.76068" pt_clust_5="86.53288" pt_clust_6="46.76068"></scales>
<clustering>
<clus scale="   46.761">  4  6 -1 -1</clus>
<clus scale="   86.533">  2  5  1 -1</clus>
<clus scale="  107.577">  2  3  1 -1</clus>
<clus scale="   86.533">  2  3  1 -1</clus>
</clustering>
</event>
<event>
 6    0  0.1361744E+002  0.1543207E+03  0.7546771E-02  0.1195262E+00
          2   -1    0    0  505    0 -0.00000000000E+00  0.00000000000E+00  0.15010902687E+04  0.15010902687E+04  0.00000000000E+00 0. -1.
         21   -1    0    0  501  502  0.00000000000E+00 -0.00000000000E+00 -0.52900500164E+03  0.52900500164E+03  0.00000000000E+00 0. -1.
         21    1    1    2  503  502  0.87974006371E+02 -0.67397934667E+02 -0.40759299744E+03  0.42239076571E+03  0.00000000000E+00 0. -1.
         21    1    1    2  504  503  0.39780526264E+02  0.12834304399E+02 -0.10508430072E+03  0.11309252804E+03  0.00000000000E+00 0. -1.
         21    1    1    2  505  504 -0.43372331487E+02 -0.52992052518E+01  0.16135864744E+03  0.16717013435E+03  0.00000000000E+00 0.  1.
          2    1    1    2  501    0 -0.84382201148E+02  0.59862835519E+02  0.13234039178E+04  0.13274418423E+04  0.00000000000E+00 0. -1.
<scales pt_clust_3="41.68010" pt_clust_4="41.68010" pt_clust_5="43.69486" pt_clust_6="138.59637"></scales>
<clustering>
<clus scale="   41.680">  3  4 -1 -1</clus>
<clus scale="   43.695">  1  5  2 -1</clus>
<clus scale="  138.596">  1  6  2 -1</clus>
<clus scale="  154.321">  2  3  1 -1</clus>
</clustering>
</event>
<event>
 6    0  0.1361744E+002  0.1288166E+03  0.7546771E-02  0.1229222E+00
         21   -1    0    0  504  502  0.00000000000E+00  0.00000000000E+00  0.35214746230E+03  0.35214746230E+03  0.00000000000E+00 0.  1.
          1   -1    0    0  505    0 -0.00000000000E+00 -0.00000000000E+00 -0.20767548573E+04  0.20767548573E+04  0.00000000000E+00 0.  1.
         21    1    1    2  503  502 -0.31053472400E+02  0.10777686512E+02  0.34165121043E+02  0.47410253855E+02  0.00000000000E+00 0. -1.
         21    1    1    2  504  501  0.91300483403E+00  0.65945529386E+02 -0.84068036673E+03  0.84326337845E+03  0.00000000000E+00 0.  1.
         21    1    1    2  505  503  0.56381500936E+02 -0.12988316309E+03  0.29314081433E+03  0.32554576748E+03  0.00000000000E+00 0.  1.
          1    1    1    2  501    0 -0.26241033369E+02  0.53159947189E+02 -0.12112329637E+04  0.12126829199E+04  0.00000000000E+00 0.  1.
<scales pt_clust_3="32.87061" pt_clust_4="39.54510" pt_clust_5="121.87897" pt_clust_6="39.54510"></scales>
<clustering>
<clus scale="   32.871">  1  3  2 -1</clus>
<clus scale="   39.545">  4  6 -1 -1</clus>
<clus scale="  121.879">  1  5  2 -1</clus>
<clus scale="   32.871">  1  3  2 -1</clus>
</clustering>
</event>
<event>
 6    0  0.1361744E+002  0.1165172E+03  0.7546771E-02  0.1248956E+00
         21   -1    0    0  505  502  0.00000000000E+00  0.00000000000E+00  0.75363798174E+02  0.75363798174E+02  0.00000000000E+00 0. -1.
          2   -1    0    0  503    0 -0.00000000000E+00 -0.00000000000E+00 -0.26243815000E+04  0.26243815000E+04  0.00000000000E+00 0.  1.
         21    1    1    2  503  504 -0.33444708777E+02 -0.61009935731E+01 -0.19168262951E+03  0.19467408950E+03  0.00000000000E+00 0.  1.
         21    1    1    2  504  502  0.85574360028E+02  0.90103379011E+02  0.33141627855E+01  0.12430838137E+03  0.00000000000E+00 0. -1.
         21    1    1    2  505  501 -0.70646992561E+02 -0.56848106012E+02 -0.19704341721E+03  0.21690738342E+03  0.00000000000E+00 0. -1.
          2    1    1    2  501    0  0.18517341311E+02 -0.27154279426E+02 -0.21636058179E+04  0.21638554438E+04  0.00000000000E+00 0.  1.
<scales pt_clust_3="31.06879" pt_clust_4="14000.00000" pt_clust_5="116.51720" pt_clust_6="32.86711"></scales>
<clustering>
<clus scale="   32.867">  2  6  1 -1</clus>
<clus scale="   31.069">  2  3  1 -1</clus>
<clus scale="  116.517">  2  5  1 -1</clus>
<clus scale="  116.517">  1  3  2 -1</clus>
</clustering>
</event>
<event>
 6    0  0.1361744E+002  0.1177324E+03  0.7546771E-02  0.1246885E+00
          2   -1    0    0  503    0 -0.00000000000E+00  0.00000000000E+00  0.42577944990E+04  0.42577944990E+04  0.00000000000E+00 0. -1.
         21   -1    0    0  501  502  0.00000000000E+00 -0.00000000000E+00 -0.49860244335E+02  0.49860244335E+02  0.00000000000E+00 0.  1.
         21    1    1    2  503  504  0.51700243704E+02  0.59043336468E+02  0.11144459140E+04  0.11172057671E+04  0.00000000000E+00 0.  1.
         21    1    1    2  504  505 -0.58563228334E+02  0.43146151245E+01  0.29634234468E+02  0.65775796985E+02  0.00000000000E+00 0. -1.
         21    1    1    2  505  502 -0.50975648166E+02  0.21955283311E+02 -0.34763438593E+01  0.55611474876E+02  0.00000000000E+00 0.  1.
          2    1    1    2  501    0  0.57838632795E+02 -0.85313234904E+02  0.30673304500E+04  0.30690617044E+04  0.00000000000E+00 0. -1.
<scales pt_clust_3="78.47949" pt_clust_4="35.87628" pt_clust_5="35.87628" pt_clust_6="111.79967"></scales>
<clustering>
<clus scale="   35.876">  4  5 -1 -1</clus>
<clus scale="   78.479">  1  3  2 -1</clus>
<clus scale="  111.800">  1  6  2 -1</clus>
<clus scale="  117.732">  2  3  1 -1</clus>
</clustering>
</event>
<event>
 6    0  0.1361744E+002  0.8407863E+02  0.7546771E-02  0.1317860E+00
          2   -1    0    0  503    0 -0.00000000000E+00  0.00000000000E+00  0.75142654241E+03  0.75142654241E+03  0.00000000000E+00 0. -1.
         21   -1    0    0  504  502  0.00000000000E+00 -0.00000000000E+00 -0.69384361209E+03  0.69384361209E+03  0.00000000000E+00 0.  1.
         21    1    1    2  503  505  0.10990620443E+03  0.70494060671E+02  0.32947389230E+03  0.35440348766E+03  0.00000000000E+00 0.  1.
         21    1    1    2  504  501  0.28388385001E+02  0.18599974189E+02 -0.34700817509E+02  0.48538708044E+02  0.00000000000E+00 0.  1.
         21    1    1    2  505  502 -0.98172760188E+02 -0.27443072219E+02 -0.63228240565E+03  0.64044676090E+03  0.00000000000E+00 0.  1.
          2    1    1    2  501    0 -0.40121829238E+02 -0.61650962641E+02  0.39509226118E+03  0.40188119789E+03  0.00000000000E+00 0. -1.
<scales pt_clust_3="14000.00000" pt_clust_4="33.93905" pt_clust_5="71.08503" pt_clust_6="84.07863"></scales>
<clustering>
<clus scale="   33.939">  2  4  1 -1</clus>
<clus scale="   71.085">  2  5  1 -1</clus>
<clus scale="   84.079">  1  6  2 -1</clus>
<clus scale="   33.939">  2  3  1 -1</clus>
</clustering>
</event>
<event>
 6    0  0.1361744E+002  0.9844322E+02  0.7546771E-02  0.1283604E+00
          2   -1    0    0  505    0 -0.00000000000E+00  0.00000000000E+00  0.11144147495E+04  0.11144147495E+04  0.00000000000E+00 0.  1.
         21   -1    0    0  501  502  0.00000000000E+00 -0.00000000000E+00 -0.67672357386E+02  0.67672357386E+02  0.00000000000E+00 0.  1.
         21    1    1    2  503  502 -0.22091195269E+02 -0.42638029033E+02  0.52242597725E+02  0.70959928447E+02  0.00000000000E+00 0.  1.
         21    1    1    2  504  503  0.84681446018E+02 -0.50656757062E+02 -0.40261694060E+01  0.98758616717E+02  0.00000000000E+00 0.  1.
         21    1    1    2  505  504  0.78406907019E+01  0.84543228083E+02  0.35839094985E+03  0.36831115484E+03  0.00000000000E+00 0.  1.
          2    1    1    2  501    0 -0.70430941451E+02  0.87515580122E+01  0.64013501398E+03  0.64405740692E+03  0.00000000000E+00 0.  1.
<scales pt_clust_3="48.02106" pt_clust_4="98.44322" pt_clust_5="14000.00000" pt_clust_6="71.54909"></scales>
<clustering>
<clus scale="   48.021">  2  3  1 -1</clus>
<clus scale="   71.549">  1  6  2 -1</clus>
<clus scale="   98.443">  2  4  1 -1</clus>
<clus scale="   48.021">  2  3  1 -1</clus>
</clustering>
</event>
<event>
 6    0  0.1361744E+002  0.9500814E+02  0.7546771E-02  0.1291158E+00
          2   -1    0    0  503    0 -0.00000000000E+00  0.00000000000E+00  0.32939418027E+04  0.32939418027E+04  0.00000000000E+00 0.  1.
         21   -1    0    0  505  502  0.00000000000E+00 -0.00000000000E+00 -0.58443615026E+02  0.58443615026E+02  0.00000000000E+00 0. -1.
         21    1    1    2  503  504  0.14277090020E+02  0.42415020558E+02  0.14163977575E+04  0.14171046104E+04  0.00000000000E+00 0. -1.
         21    1    1    2  504  502  0.63619975373E+01 -0.85250561811E+02 -0.14906914609E+02  0.86777585845E+02  0.00000000000E+00 0. -1.
         21    1    1    2  505  501  0.47299552463E+02  0.37074902165E+01  0.81954036279E+02  0.94696658913E+02  0.00000000000E+00 0.  1.
          2    1    1    2  501    0 -0.67938640020E+02  0.39128051036E+02  0.17520533085E+04  0.17538065626E+04  0.00000000000E+00 0.  1.
<scales pt_clust_3="44.75343" pt_clust_4="95.00814" pt_clust_5="48.30915" pt_clust_6="14000.00000"></scales>
<clustering>
<clus scale="   44.753">  1  3  2 -1</clus>
<clus scale="   48.309">  2  5  1 -1</clus>
<clus scale="   95.008">  2  4  1 -1</clus>
<clus scale="   48.309">  2  3  1 -1</clus>
</clustering>
</event>
<event>
 6    0  0.1361744E+002  0.1459270E+03  0.7546771E-02  0.1205569E+00
          2   -1    0    0  504    0 -0.00000000000E+00  0.00000000000E+00  0.16854653015E+04  0.16854653015E+04  0.00000000000E+00 0. -1.
         21   -1    0    0  501  502  0.00000000000E+00 -0.00000000000E+00 -0.61544361511E+02  0.61544361511E+02  0.00000000000E+00 0.  1.
         21    1    1    2  503  505 -0.56065040692E+02 -0.37835777251E+02  0.48222725092E+02  0.83067840006E+02  0.00000000000E+00 0.  1.
         21    1    1    2  504  503 -0.30682221530E+02 -0.84975553783E+01  0.24314114362E+03  0.24521668558E+03  0.00000000000E+00 0.  1.
         21    1    1    2  505  502 -0.60633677526E+02 -0.23601425615E+02 -0.10404615308E+02  0.65891776126E+02  0.00000000000E+00 0.  1.
          2    1    1    2  501    0  0.14738093975E+03  0.69934758244E+02  0.13429616866E+04  0.13528333613E+04  0.00000000000E+00 0. -1.
<scales pt_clust_3="56.59328" pt_clust_4="31.83720" pt_clust_5="56.59328" pt_clust_6="133.89937"></scales>
<clustering>
<clus scale="   31.837">  1  4  2 -1</clus>
<clus scale="   56.593">  3  5 -1 -1</clus>
<clus scale="  133.899">  1  6  2 -1</clus>
<clus scale="  145.927">  2  3  1 -1</clus>
</clustering>
</event>
<event>
 6    0  0.1361744E+002  0.1895466E+03  0.7546771E-02  0.1158871E+00
          2   -1    0    0  503    0 -0.00000000000E+00  0.00000000000E+00  0.78011220382E+02  0.78011220382E+02  0.00000000000E+00 0. -1.
         21   -1    0    0  505  502  0.00000000000E+00 -0.00000000000E+00 -0.11145073469E+04  0.11145073469E+04  0.00000000000E+00 0.  1.
         21    1    1    2  503  502 -0.50612084305E+02  0.17187579143E+03 -0.74119920613E+02  0.19389851312E+03  0.00000000000E+00 0. -1.
         21    1    1    2  504  501  0.36683880920E+02 -0.11125090226E+03 -0.43893624034E+03  0.45429890321E+03  0.00000000000E+00 0.  1.
         21    1    1    2  505  504  0.46337305221E+02 -0.38755538228E+02 -0.48745628638E+03  0.49118506566E+03  0.00000000000E+00 0.  1.
          2    1    1    2  501    0 -0.32409101836E+02 -0.21869350944E+02 -0.35983679197E+02  0.53136085301E+02  0.00000000000E+00 0. -1.
<scales pt_clust_3="172.00447" pt_clust_4="56.75404" pt_clust_5="56.75404" pt_clust_6="39.09755"></scales>
<clustering>
<clus scale="   39.098">  1  6  2 -1</clus>
<clus scale="   56.754">  4  5 -1 -1</clus>
<clus scale="  172.004">  1  3  2 -1</clus>
<clus scale="  189.547">  2  3  1 -1</clus>
</clustering>
</event>
<event>
 6    0  0.1361744E+002  0.1662706E+03  0.7546771E-02  0.1181794E+00
          2   -1    0    0  504    0 -0.00000000000E+00  0.00000000000E+00  0.13093541446E+04  0.13093541446E+04  0.00000000000E+00 0.  1.
         21   -1    0    0  503  502  0.00000000000E+00 -0.00000000000E+00 -0.33045549660E+03  0.33045549660E+03  0.00000000000E+00 0. -1.
         21    1    1    2  503  501 -0.43216949299E+02  0.39787724394E+02 -0.19424164808E+03  0.20293000165E+03  0.00000000000E+00 0. -1.
         21    1    1    2  504  505  0.52971720194E+02 -0.52857359526E+02  0.17202345746E+03  0.18759523852E+03  0.00000000000E+00 0. -1.
         21    1    1    2  505  502 -0.44090287956E+02  0.11163921978E+03 -0.91976907110E+02  0.15121845233E+03  0.00000000000E+00 0. -1.
          2    1    1    2  501    0  0.34335517062E+02 -0.98569584643E+02  0.10930937458E+04  0.10980659487E+04  0.00000000000E+00 0.  1.
<scales pt_clust_3="58.74324" pt_clust_4="71.36711" pt_clust_5="14000.00000" pt_clust_6="166.27064"></scales>
<clustering>
<clus scale="   58.743">  2  3  1 -1</clus>
<clus scale="   71.367">  1  4  2 -1</clus>
<clus scale="  166.271">  1  6  2 -1</clus>
<clus scale="   58.743">  2  3  1 -1</clus>
</clustering>
</event>
<event>
 6    0  0.1361744E+002  0.1381912E+03  0.7546771E-02  0.1215784E+00
         21   -1    0    0  504  502  0.00000000000E+00  0.00000000000E+00  0.14203233476E+03  0.14203233476E+03  0.00000000000E+00 0. -1.
          2   -1    0    0  505    0 -0.00000000000E+00 -0.00000000000E+00 -0.22315908942E+04  0.22315908942E+04  0.00000000000E+00 0.  1.
         21    1    1    2  503  501  0.57280717278E+02 -0.36428683026E+02 -0.13082444177E+04  0.13100044221E+04  0.00000000000E+00 0.  1.
         21    1    1    2  504  503 -0.66478342812E+02  0.70098678476E+02  0.10716082121E+03  0.14427971579E+03  0.00000000000E+00 0. -1.
         21    1    1    2  505  502 -0.17671428056E+02  0.28965129929E+02 -0.62691110700E+01  0.34504490649E+02  0.00000000000E+00 0. -1.
          2    1    1    2  501    0  0.26869053590E+02 -0.62635125378E+02 -0.88220585192E+03  0.88483460044E+03  0.00000000000E+00 0.  1.
<scales pt_clust_3="48.43974" pt_clust_4="129.40514" pt_clust_5="33.93019" pt_clust_6="48.43974"></scales>
<clustering>
<clus scale="   33.930">  1  5  2 -1</clus>
<clus scale="   48.440">  3  6 -1 -1</clus>
<clus scale="  129.405">  1  4  2 -1</clus>
<clus scale="   33.930">  1  3  2 -1</clus>
</clustering>
</event>
<event>
 6    0  0.1361744E+002  0.1194146E+03  0.7546771E-02  0.1244066E+00
         21   -1    0    0  503  502  0.00000000000E+00  0.00000000000E+00  0.45663502153E+02  0.45663502153E+02  0.00000000000E+00 0. -1.
          1   -1    0    0  505    0 -0.00000000000E+00 -0.00000000000E+00 -0.18741955652E+04  0.18741955652E+04  0.00000000000E+00 0.  1.
         21    1    1    2  503  501 -0.15821535765E+02 -0.26210247470E+02 -0.86963873966E+02  0.92195517470E+02  0.00000000000E+00 0. -1.
         21    1    1    2  504  502  0.90361648151E+02 -0.73005860913E+02 -0.49143198936E+02  0.12613539228E+03  0.00000000000E+00 0. -1.
         21    1    1    2  505  504  0.86465387868E+00  0.44706063723E+02 -0.15582050638E+03  0.16210925318E+03  0.00000000000E+00 0.  1.
          1    1    1    2  501    0 -0.75404766265E+02  0.54510044660E+02 -0.15366044837E+04  0.15394189044E+04  0.00000000000E+00 0.  1.
<scales pt_clust_3="30.61532" pt_clust_4="119.41456" pt_clust_5="42.79255" pt_clust_6="14000.00000"></scales>
<clustering>
<clus scale="   30.615">  1  3  2 -1</clus>
<clus scale="   42.793">  2  5  1 -1</clus>
<clus scale="  119.415">  1  4  2 -1</clus>
<clus scale="   30.615">  1  3  2 -1</clus>
</clustering>
</event>
<event>
 6    0  0.1361744E+002  0.1282349E+03  0.7546771E-02  0.1230099E+00
         21   -1    0    0  501  502  0.00000000000E+00  0.00000000000E+00  0.82114184897E+02  0.82114184897E+02  0.00000000000E+00 0. -1.
          2   -1    0    0  503    0 -0.00000000000E+00 -0.00000000000E+00 -0.47579383657E+04  0.47579383657E+04  0.00000000000E+00 0.  1.
         21    1    1    2  503  505 -0.19453618877E+02  0.47232677581E+02 -0.65561608583E+03  0.65760308783E+03  0.00000000000E+00 0.  1.
         21    1    1    2  504  502  0.66436086913E+02 -0.13195037651E+02  0.32918226814E+02  0.75309178189E+02  0.00000000000E+00 0. -1.
         21    1    1    2  505  504  0.37347292862E+02 -0.42492475931E+02 -0.35568794714E+01  0.56684055840E+02  0.00000000000E+00 0. -1.
          2    1    1    2  501    0 -0.84329760898E+02  0.84548360015E+01 -0.40495694423E+04  0.40504562288E+04  0.00000000000E+00 0.  1.
<scales pt_clust_3="51.08198" pt_clust_4="47.38240" pt_clust_5="47.38240" pt_clust_6="117.28664"></scales>
<clustering>
<clus scale="   47.382">  4  5 -1 -1</clus>
<clus scale="   51.082">  2  3  1 -1</clus>
<clus scale="  117.287">  2  6  1 -1</clus>
<clus scale="  128.235">  1  3  2 -1</clus>
</clustering>
</event>
<event>
 6    0  0.1361744E+002  0.2352953E+03  0.7546771E-02  0.1122967E+00
         21   -1    0    0  504  502  0.00000000000E+00  0.00000000000E+00  0.22297657036E+04  0.22297657036E+04  0.00000000000E+00 0.  1.
          1   -1    0    0  505    0 -0.00000000000E+00 -0.00000000000E+00 -0.46185912860E+03  0.46185912860E+03  0.00000000000E+00 0. -1.
         21    1    1    2  503  501 -0.18909281979E+02 -0.36186907946E+02  0.32028871881E+03  0.32288065388E+03  0.00000000000E+00 0.  1.
         21    1    1    2  504  503  0.61479344120E+02 -0.18441497703E+03  0.18041445951E+04  0.18145870917E+04  0.00000000000E+00 0.  1.
         21    1    1    2  505  502 -0.95590327002E+02  0.98792900848E+01  0.38329491983E+02  0.10346139833E+03  0.00000000000E+00 0.  1.
          1    1    1    2  501    0  0.53020264862E+02  0.21072259489E+03 -0.39485623080E+03  0.45069568834E+03  0.00000000000E+00 0. -1.
<scales pt_clust_3="32.64561" pt_clust_4="32.64561" pt_clust_5="96.09948" pt_clust_6="224.25388"></scales>
<clustering>
<clus scale="   32.646">  3  4 -1 -1</clus>
<clus scale="   96.099">  2  5  1 -1</clus>
<clus scale="  224.254">  2  6  1 -1</clus>
<clus scale="  235.295">  1  3  2 -1</clus>
</clustering>
</event>
<event>
 6    0  0.1361744E+002  0.1142178E+03  0.7546771E-02  0.1252953E+00
         21   -1    0    0  504  502  0.00000000000E+00  0.00000000000E+00  0.54613020074E+02  0.54613020074E+02  0.00000000000E+00 0. -1.
          2   -1    0    0  505    0 -0.00000000000E+00 -0.00000000000E+00 -0.22605759127E+04  0.22605759127E+04  0.00000000000E+00 0.  1.
         21    1    1    2  503  502  0.11926747238E+03  0.15023429034E+02 -0.43368275965E+02  0.12779374299E+03  0.00000000000E+00 0. -1.
         21    1    1    2  504  501 -0.93930261301E+02  0.64162686886E+01 -0.30004490708E+03  0.31446940830E+03  0.00000000000E+00 0.  1.
         21    1    1    2  505  503  0.66567288757E+02  0.30139203702E+02 -0.40263378600E+03  0.40921087615E+03  0.00000000000E+00 0. -1.
          2    1    1    2  501    0 -0.91904499835E+02 -0.51578901424E+02 -0.14599159236E+04  0.14637149054E+04  0.00000000000E+00 0.  1.
<scales pt_clust_3="114.21784" pt_clust_4="14000.00000" pt_clust_5="73.07240" pt_clust_6="48.26411"></scales>
<clustering>
<clus scale="   73.072">  2  5  1 -1</clus>
<clus scale="   48.264">  2  6  1 -1</clus>
<clus scale="  114.218">  1  3  2 -1</clus>
<clus scale="  114.218">  1  3  2 -1</clus>
</clustering>
</event>
<event>
 6    0  0.1361744E+002  0.1116405E+03  0.7546771E-02  0.1257562E+00
         21   -1    0    0  505  502  0.00000000000E+00  0.00000000000E+00  0.10269072758E+03  0.10269072758E+03  0.00000000000E+00 0. -1.
          2   -1    0    0  503    0 -0.00000000000E+00 -0.00000000000E+00 -0.71441176252E+03  0.71441176252E+03  0.00000000000E+00 0.  1.
         21    1    1    2  503  504 -0.35997681719E+02  0.54049873555E+01 -0.13663223373E+03  0.14139807025E+03  0.00000000000E+00 0.  1.
         21    1    1    2  504  502 -0.26396274839E+02  0.31040029913E+02  0.38095294889E+02  0.55780805615E+02  0.00000000000E+00 0. -1.
         21    1    1    2  505  501 -0.91044537384E+00  0.82316026838E+02  0.69947365722E+01  0.82617694987E+02  0.00000000000E+00 0. -1.
          2    1    1    2  501    0  0.63304401932E+02 -0.11876104411E+03 -0.52017883266E+03  0.53730591924E+03  0.00000000000E+00 0.  1.
<scales pt_clust_3="36.40119" pt_clust_4="41.16943" pt_clust_5="14000.00000" pt_clust_6="111.64053"></scales>
<clustering>
<clus scale="   36.401">  2  3  1 -1</clus>
<clus scale="   41.169">  1  4  2 -1</clus>
<clus scale="  111.641">  2  6  1 -1</clus>
<clus scale="   41.169">  1  3  2 -1</clus>
</clustering>
</event>
<event>
 6    0  0.1361744E+002  0.8917074E+02  0.7546771E-02  0.1304872E+00
         -4   -1    0    0    0  501 -0.00000000000E+00  0.00000000000E+00  0.46567528519E+03  0.46567528519E+03  0.00000000000E+00 0. -1.
         21   -1    0    0  505  502  0.00000000000E+00 -0.00000000000E+00 -0.14987392665E+03  0.14987392665E+03  0.00000000000E+00 0. -1.
         21    1    1    2  503  502  0.30180845989E+02 -0.16397889552E+02 -0.81012455810E+01  0.35290287988E+02  0.00000000000E+00 0. -1.
         21    1    1    2  504  501 -0.11614988762E+03  0.25692579556E+01  0.36839506306E+03  0.38628010558E+03  0.00000000000E+00 0. -1.
         21    1    1    2  505  504  0.57694022090E+02  0.36445945019E+02 -0.10395928357E+03  0.12435610051E+03  0.00000000000E+00 0. -1.
         -4    1    1    2    0  503  0.28275019546E+02 -0.22617313423E+02  0.59466824639E+02  0.69622717768E+02  0.00000000000E+00 0. -1.
<scales pt_clust_3="34.34784" pt_clust_4="89.17074" pt_clust_5="14000.00000" pt_clust_6="37.54825"></scales>
<clustering>
<clus scale="   34.348">  2  3  1 -1</clus>
<clus scale="   37.548">  1  6  2 -1</clus>
<clus scale="   89.171">  1  4  2 -1</clus>
<clus scale="   34.348">  2  3  1 -1</clus>
</clustering>
</event>
<event>
 6    0  0.1361744E+002  0.2064118E+03  0.7546771E-02  0.1144439E+00
          2   -1    0    0  505    0 -0.00000000000E+00  0.00000000000E+00  0.21017841431E+04  0.21017841431E+04  0.00000000000E+00 0. -1.
         21   -1    0    0  503  502  0.00000000000E+00 -0.00000000000E+00 -0.52845299668E+02  0.52845299668E+02  0.00000000000E+00 0. -1.
         21    1    1    2  503  501  0.91466755381E+02  0.57080483124E+02  0.78283583373E+03  0.79022546875E+03  0.00000000000E+00 0. -1.
         21    1    1    2  504  502 -0.12769019610E+03 -0.58892430832E+02  0.10655849302E+03  0.17643077120E+03  0.00000000000E+00 0. -1.
         21    1    1    2  505  504 -0.54088973307E+02  0.21951295888E+02  0.57116087969E+02  0.81668377781E+02  0.00000000000E+00 0. -1.
          2    1    1    2  501    0  0.90312414028E+02 -0.20139348180E+02  0.11024284287E+04  0.11063048251E+04  0.00000000000E+00 0. -1.
<scales pt_clust_3="83.87673" pt_clust_4="199.56403" pt_clust_5="47.42294" pt_clust_6="83.87673"></scales>
<clustering>
<clus scale="   47.423">  4  5 -1 -1</clus>
<clus scale="   83.877">  3  6 -1 -1</clus>
<clus scale="  199.564">  2  4  1 -1</clus>
<clus scale="  199.564">  2  3  1 -1</clus>
</clustering>
</event>
<event>
 6    0  0.1361744E+002  0.2243211E+03  0.7546771E-02  0.1130702E+00
          2   -1    0    0  503    0 -0.00000000000E+00  0.00000000000E+00  0.75200020334E+03  0.75200020334E+03  0.00000000000E+00 0.  1.
         21   -1    0    0  501  502  0.00000000000E+00 -0.00000000000E+00 -0.79005748844E+03  0.79005748844E+03  0.00000000000E+00 0.  1.
         21    1    1    2  503  504  0.16162257929E+03  0.42840282944E+02  0.91419116226E+02  0.19056390736E+03  0.00000000000E+00 0.  1.
         21    1    1    2  504  505 -0.11722896788E+03 -0.25430867540E+02 -0.39871530519E+03  0.41636913253E+03  0.00000000000E+00 0.  1.
         21    1    1    2  505  502 -0.90103965030E+02 -0.64136535843E+02 -0.32190644486E+03  0.34037623152E+03  0.00000000000E+00 0. -1.
          2    1    1    2  501    0  0.45710353624E+02  0.46727120438E+02  0.59114534871E+03  0.59474842036E+03  0.00000000000E+00 0.  1.
<scales pt_clust_3="219.00089" pt_clust_4="46.63272" pt_clust_5="46.63272" pt_clust_6="65.36712"></scales>
<clustering>
<clus scale="   46.633">  4  5 -1 -1</clus>
<clus scale="   65.367">  1  6  2 -1</clus>
<clus scale="  219.001">  1  3  2 -1</clus>
<clus scale="  224.321">  2  3  1 -1</clus>
</clustering>
</event>
<event>
 6    0  0.1361744E+002  0.1229724E+03  0.7546771E-02  0.1238273E+00
         21   -1    0    0  504  502  0.00000000000E+00  0.00000000000E+00  0.34518961072E+02  0.34518961072E+02  0.00000000000E+00 0. -1.
          1   -1    0    0  503    0 -0.00000000000E+00 -0.00000000000E+00 -0.15790496068E+04  0.15790496068E+04  0.00000000000E+00 0.  1.
         21    1    1    2  503  505  0.30700031437E+02  0.81577961355E+00 -0.10577171028E+03  0.11013996605E+03  0.00000000000E+00 0. -1.
         21    1    1    2  504  501  0.26038171824E+02  0.12359250586E+03 -0.14655690515E+03  0.19347356497E+03  0.00000000000E+00 0. -1.
         21    1    1    2  505  502 -0.82494060037E+02 -0.14569162522E+02 -0.30389654815E+03  0.31523109367E+03  0.00000000000E+00 0. -1.
          1    1    1    2  501    0  0.25755856776E+02 -0.10983912295E+03 -0.98830548212E+03  0.99472394315E+03  0.00000000000E+00 0.  1.
<scales pt_clust_3="30.71087" pt_clust_4="14000.00000" pt_clust_5="77.38494" pt_clust_6="122.97240"></scales>
<clustering>
<clus scale="   30.711">  2  3  1 -1</clus>
<clus scale="   77.385">  2  5  1 -1</clus>
<clus scale="  122.972">  2  6  1 -1</clus>
<clus scale="  122.972">  1  3  2 -1</clus>
</clustering>
</event>
<event>
 6    0  0.1361744E+002  0.1919451E+03  0.7546771E-02  0.1156719E+00
         21   -1    0    0  504  502  0.00000000000E+00  0.00000000000E+00  0.91710811402E+03  0.91710811402E+03  0.00000000000E+00 0.  1.
          1   -1    0    0  505    0 -0.00000000000E+00 -0.00000000000E+00 -0.10009529122E+04  0.10009529122E+04  0.00000000000E+00 0.  1.
         21    1    1    2  503  501 -0.10460496288E+02 -0.67363011755E+02  0.37951129891E+03  0.38558529969E+03  0.00000000000E+00 0.  1.
         21    1    1    2  504  503 -0.97404435765E+02 -0.73325909600E+02  0.51383189793E+03  0.52809803300E+03  0.00000000000E+00 0. -1.
         21    1    1    2  505  502 -0.31472699797E+02 -0.29493658765E+01 -0.11450742475E+03  0.11879048748E+03  0.00000000000E+00 0.  1.
          1    1    1    2  501    0  0.13933763185E+03  0.14363828723E+03 -0.86268057022E+03  0.88558720601E+03  0.00000000000E+00 0.  1.
<scales pt_clust_3="54.53801" pt_clust_4="54.53801" pt_clust_5="31.61059" pt_clust_6="177.52740"></scales>
<clustering>
<clus scale="   31.611">  2  5  1 -1</clus>
<clus scale="   54.538">  3  4 -1 -1</clus>
<clus scale="  177.527">  2  6  1 -1</clus>
<clus scale="  191.945">  1  3  2 -1</clus>
</clustering>
</event>
<event>
 6    0  0.1361744E+002  0.2348298E+03  0.7546771E-02  0.1123286E+00
         21   -1    0    0  504  502  0.00000000000E+00  0.00000000000E+00  0.44268409161E+03  0.44268409161E+03  0.00000000000E+00 0.  1.
          2   -1    0    0  505    0 -0.00000000000E+00 -0.00000000000E+00 -0.13272066746E+04  0.13272066746E+04  0.00000000000E+00 0. -1.
         21    1    1    2  503  501 -0.48478200626E+02  0.25738080865E+02 -0.18303633129E+03  0.19108867919E+03  0.00000000000E+00 0. -1.
         21    1    1    2  504  503  0.19861485068E+03 -0.82183224054E+02  0.38373351471E+03  0.43983332245E+03  0.00000000000E+00 0.  1.
         21    1    1    2  505  502  0.18611513983E+02  0.24082184942E+02  0.86858108572E+01  0.31650961985E+02  0.00000000000E+00 0.  1.
          2    1    1    2  501    0 -0.16874816404E+03  0.32362958246E+02 -0.10939055773E+04  0.11073178026E+04  0.00000000000E+00 0. -1.
<scales pt_clust_3="38.81969" pt_clust_4="224.56473" pt_clust_5="30.43584" pt_clust_6="38.81969"></scales>
<clustering>
<clus scale="   30.436">  1  5  2 -1</clus>
<clus scale="   38.820">  3  6 -1 -1</clus>
<clus scale="  224.565">  1  4  2 -1</clus>
<clus scale="   30.436">  1  3  2 -1</clus>
</clustering>
</event>
<event>
 6    0  0.1361744E+002  0.1029665E+03  0.7546771E-02  0.1274179E+00
         21   -1    0    0  505  502  0.00000000000E+00  0.00000000000E+00  0.79982883495E+03  0.79982883495E+03  0.00000000000E+00 0. -1.
         -2   -1    0    0    0  501 -0.00000000000E+00 -0.00000000000E+00 -0.39105230388E+03  0.39105230388E+03  0.00000000000E+00 0. -1.
         21    1    1    2  503  502  0.10498479949E+02 -0.73404150100E+02 -0.31991913238E+03  0.32840011967E+03  0.00000000000E+00 0. -1.
         21    1    1    2  504  501  0.86615254440E+02  0.13037169871E+03  0.67398269966E+03  0.69191882585E+03  0.00000000000E+00 0. -1.
         21    1    1    2  505  504 -0.41444676020E+02 -0.37799887863E+02  0.86922933701E+02  0.10345090186E+03  0.00000000000E+00 0. -1.
         -2    1    1    2    0  503 -0.55669058368E+02 -0.19167660746E+02 -0.32209969906E+02  0.67111291445E+02  0.00000000000E+00 0. -1.
<scales pt_clust_3="102.96652" pt_clust_4="14000.00000" pt_clust_5="56.09361" pt_clust_6="60.15427"></scales>
<clustering>
<clus scale="   56.094">  1  5  2 -1</clus>
<clus scale="   60.154">  2  6  1 -1</clus>
<clus scale="  102.967">  2  3  1 -1</clus>
<clus scale="   56.094">  1  3  2 -1</clus>
</clustering>
</event>
<event>
 6    0  0.1361744E+002  0.3433772E+03  0.7546771E-02  0.1065367E+00
          4   -1    0    0  505    0 -0.00000000000E+00  0.00000000000E+00  0.41871548240E+03  0.41871548240E+03  0.00000000000E+00 0. -1.
         21   -1    0    0  504  502  0.00000000000E+00 -0.00000000000E+00 -0.28041751266E+03  0.28041751266E+03  0.00000000000E+00 0. -1.
         21    1    1    2  503  502 -0.85622198178E+02 -0.72314681331E+02  0.62822405260E+02  0.12848045984E+03  0.00000000000E+00 0. -1.
         21    1    1    2  504  501  0.51589933672E+02  0.57829446806E+02  0.44247516866E+02  0.89239054919E+02  0.00000000000E+00 0. -1.
         21    1    1    2  505  503 -0.21126220435E+03 -0.67395943908E+02  0.17799135513E+02  0.22246514663E+03  0.00000000000E+00 0. -1.
          4    1    1    2  501    0  0.24529446886E+03  0.81881178433E+02  0.13428912102E+02  0.25894833368E+03  0.00000000000E+00 0. -1.
<scales pt_clust_3="67.45687" pt_clust_4="55.41887" pt_clust_5="341.55964" pt_clust_6="55.41887"></scales>
<clustering>
<clus scale="   55.419">  4  6 -1 -1</clus>
<clus scale="   67.457">  3  5 -1 -1</clus>
<clus scale="  341.560">  1  3  2 -1</clus>
<clus scale="  343.377">  2  3  1 -1</clus>
</clustering>
</event>
<event>
 6    0  0.1361744E+002  0.1050092E+03  0.7546771E-02  0.1270101E+00
         21   -1    0    0  501  502  0.00000000000E+00  0.00000000000E+00  0.86338632994E+02  0.86338632994E+02  0.00000000000E+00 0. -1.
          2   -1    0    0  505    0 -0.00000000000E+00 -0.00000000000E+00 -0.20045935436E+04  0.20045935436E+04  0.00000000000E+00 0. -1.
         21    1    1    2  503  504 -0.84877274222E+02 -0.57892406221E+02  0.17419994806E+02  0.10420719071E+03  0.00000000000E+00 0. -1.
         21    1    1    2  504  502 -0.18981692302E+02  0.34820575824E+02  0.63199816085E+01  0.40158676658E+02  0.00000000000E+00 0. -1.
         21    1    1    2  505  503  0.30978449555E+02 -0.24012850510E+02 -0.34567098044E+03  0.34788605612E+03  0.00000000000E+00 0. -1.
          2    1    1    2  501    0  0.72880516969E+02  0.47084680907E+02 -0.15963239066E+04  0.15986802531E+04  0.00000000000E+00 0. -1.
<scales pt_clust_3="14000.00000" pt_clust_4="39.29208" pt_clust_5="39.19542" pt_clust_6="105.00920"></scales>
<clustering>
<clus scale="   39.195">  2  5  1 -1</clus>
<clus scale="   39.292">  1  4  2 -1</clus>
<clus scale="  105.009">  2  6  1 -1</clus>
<clus scale="   39.292">  1  3  2 -1</clus>
</clustering>
</event>
<event>
 6    0  0.1361744E+002  0.1145185E+03  0.7546771E-02  0.1252424E+00
         21   -1    0    0  505  502  0.00000000000E+00  0.00000000000E+00  0.16619447852E+03  0.16619447852E+03  0.00000000000E+00 0. -1.
          2   -1    0    0  503    0 -0.00000000000E+00 -0.00000000000E+00 -0.85953429953E+03  0.85953429953E+03  0.00000000000E+00 0. -1.
         21    1    1    2  503  504  0.41361936987E+02 -0.33787512290E+02 -0.92888233637E+02  0.10714770070E+03  0.00000000000E+00 0.  1.
         21    1    1    2  504  502  0.87797801801E+02 -0.28836039541E+02  0.64942424739E+02  0.11294905802E+03  0.00000000000E+00 0. -1.
         21    1    1    2  505  501 -0.79133528759E+01 -0.55267833569E+02  0.47284329906E+02  0.73163942183E+02  0.00000000000E+00 0. -1.
          2    1    1    2  501    0 -0.12124638591E+03  0.11789138540E+03 -0.71267834202E+03  0.73246807714E+03  0.00000000000E+00 0. -1.
<scales pt_clust_3="53.40792" pt_clust_4="14000.00000" pt_clust_5="56.30682" pt_clust_6="114.51847"></scales>
<clustering>
<clus scale="   53.408">  2  3  1 -1</clus>
<clus scale="   56.307">  1  5  2 -1</clus>
<clus scale="  114.518">  2  6  1 -1</clus>
<clus scale="   56.307">  1  3  2 -1</clus>
</clustering>
</event>
<event>
 6    0  0.1361744E+002  0.6985208E+02  0.7546771E-02  0.1360597E+00
         21   -1    0    0  504  502  0.00000000000E+00  0.00000000000E+00  0.12655846430E+04  0.12655846430E+04  0.00000000000E+00 0. -1.
         -1   -1    0    0    0  501 -0.00000000000E+00 -0.00000000000E+00 -0.10052842299E+04  0.10052842299E+04  0.00000000000E+00 0.  1.
         21    1    1    2  503  502  0.30528511573E+02  0.25784158872E+02  0.10999602769E+04  0.11006858878E+04  0.00000000000E+00 0. -1.
         21    1    1    2  504  505 -0.71235669263E+01  0.43402547730E+02  0.14609882714E+03  0.15257586194E+03  0.00000000000E+00 0. -1.
         21    1    1    2  505  501  0.63981574242E+02 -0.15468283508E+02 -0.69874593472E+02  0.95996710621E+02  0.00000000000E+00 0.  1.
         -1    1    1    2    0  503 -0.87386518889E+02 -0.53718423094E+02 -0.91588409741E+03  0.92161041257E+03  0.00000000000E+00 0.  1.
<scales pt_clust_3="39.96014" pt_clust_4="69.85208" pt_clust_5="67.73909" pt_clust_6="14000.00000"></scales>
<clustering>
<clus scale="   39.960">  1  3  2 -1</clus>
<clus scale="   67.739">  2  5  1 -1</clus>
<clus scale="   69.852">  1  4  2 -1</clus>
<clus scale="   39.960">  1  3  2 -1</clus>
</clustering>
</event>
<event>
 6    0  0.1361744E+002  0.2249548E+03  0.7546771E-02  0.1130242E+00
          2   -1    0    0  502    0 -0.00000000000E+00  0.00000000000E+00  0.36820198930E+03  0.36820198930E+03  0.00000000000E+00 0.  1.
         21   -1    0    0  504  502  0.00000000000E+00 -0.00000000000E+00 -0.24261639997E+03  0.24261639997E+03  0.00000000000E+00 0. -1.
         21    1    1    2  503  501  0.11760691458E+03  0.24591057673E+02  0.11295570530E+03  0.16490936248E+03  0.00000000000E+00 0.  1.
         21    1    1    2  504  505 -0.23233666648E+02 -0.24976014131E+02  0.86300931848E+00  0.34122563398E+02  0.00000000000E+00 0. -1.
         21    1    1    2  505  503 -0.20296270231E+03  0.23275484761E+00 -0.12406962161E+03  0.23788060810E+03  0.00000000000E+00 0. -1.
          2    1    1    2  501    0  0.10858945438E+03  0.15220161036E+00  0.13583649632E+03  0.17390585528E+03  0.00000000000E+00 0.  1.
<scales pt_clust_3="31.83219" pt_clust_4="34.11165" pt_clust_5="222.44888" pt_clust_6="31.83219"></scales>
<clustering>
<clus scale="   31.832">  3  6 -1 -1</clus>
<clus scale="   34.112">  2  4  1 -1</clus>
<clus scale="  222.449">  2  5  1 -1</clus>
<clus scale="   34.112">  2  3  1 -1</clus>
</clustering>
</event>
<event>
 6    0  0.1361744E+002  0.1237875E+03  0.7546771E-02  0.1236976E+00
         21   -1    0    0  504  502  0.00000000000E+00  0.00000000000E+00  0.61138993554E+03  0.61138993554E+03  0.00000000000E+00 0.  1.
          2   -1    0    0  502    0 -0.00000000000E+00 -0.00000000000E+00 -0.16380468126E+03  0.16380468126E+03  0.00000000000E+00 0.  1.
         21    1    1    2  503  505  0.65308160388E+02  0.61460545436E+02  0.62207140488E+02  0.10914340469E+03  0.00000000000E+00 0.  1.
         21    1    1    2  504  503 -0.19728171612E+02 -0.88831279251E+02  0.43058892144E+03  0.44009887093E+03  0.00000000000E+00 0.  1.
         21    1    1    2  505  501  0.66333497352E+02  0.10451131244E+02  0.45321184105E+02  0.81014620557E+02  0.00000000000E+00 0. -1.
          2    1    1    2  501    0 -0.11191348613E+03  0.16919602571E+02 -0.90531991757E+02  0.14493772063E+03  0.00000000000E+00 0.  1.
<scales pt_clust_3="39.62516" pt_clust_4="90.99559" pt_clust_5="39.62516" pt_clust_6="115.00625"></scales>
<clustering>
<clus scale="   39.625">  3  5 -1 -1</clus>
<clus scale="   90.996">  1  4  2 -1</clus>
<clus scale="  115.006">  2  6  1 -1</clus>
<clus scale="   90.996">  1  3  2 -1</clus>
</clustering>
</event>
<event>
 6    0  0.1361744E+002  0.1309365E+03  0.7546771E-02  0.1226073E+00
          2   -1    0    0  505    0 -0.00000000000E+00  0.00000000000E+00  0.55257834957E+03  0.55257834957E+03  0.00000000000E+00 0. -1.
         21   -1    0    0  504  502  0.00000000000E+00 -0.00000000000E+00 -0.18384424591E+03  0.18384424591E+03  0.00000000000E+00 0.  1.
         21    1    1    2  503  502  0.71897992718E+01 -0.43830846639E+02 -0.12220055967E+03  0.13002235621E+03  0.00000000000E+00 0.  1.
         21    1    1    2  504  501  0.18572386139E+02  0.41672858448E+02  0.28854603186E+03  0.29213074669E+03  0.00000000000E+00 0. -1.
         21    1    1    2  505  503 -0.70934534806E+02 -0.62809969371E+02 -0.23464235075E+01  0.94775029326E+02  0.00000000000E+00 0. -1.
          2    1    1    2  501    0  0.45172349395E+02  0.64967957563E+02  0.20473505498E+03  0.21949446325E+03  0.00000000000E+00 0. -1.
<scales pt_clust_3="44.41662" pt_clust_4="41.57954" pt_clust_5="118.93653" pt_clust_6="41.57954"></scales>
<clustering>
<clus scale="   41.580">  4  6 -1 -1</clus>
<clus scale="   44.417">  2  3  1 -1</clus>
<clus scale="  118.937">  2  5  1 -1</clus>
<clus scale="   44.417">  2  3  1 -1</clus>
</clustering>
</event>
<event>
 6    0  0.1361744E+002  0.7044890E+02  0.7546771E-02  0.1358573E+00
          2   -1    0    0  505    0 -0.00000000000E+00  0.00000000000E+00  0.46185305612E+04  0.46185305612E+04  0.00000000000E+00 0.  1.
         21   -1    0    0  504  502  0.00000000000E+00 -0.00000000000E+00 -0.52378918157E+02  0.52378918157E+02  0.00000000000E+00 0.  1.
         21    1    1    2  503  502  0.20218339108E+02  0.57264786761E+02 -0.78749660060E+01  0.61237669197E+02  0.00000000000E+00 0.  1.
         21    1    1    2  504  501 -0.33188177079E+02  0.59801292768E+00  0.57016491472E+00  0.33198460888E+02  0.00000000000E+00 0. -1.
         21    1    1    2  505  503  0.52282327851E+02  0.34280881164E+02  0.22307992867E+04  0.22316751731E+04  0.00000000000E+00 0.  1.
          2    1    1    2  501    0 -0.39312489879E+02 -0.92143680853E+02  0.23426571574E+04  0.23447981761E+04  0.00000000000E+00 0.  1.
<scales pt_clust_3="58.98598" pt_clust_4="33.19356" pt_clust_5="14000.00000" pt_clust_6="70.44890"></scales>
<clustering>
<clus scale="   33.194">  2  4  1 -1</clus>
<clus scale="   58.986">  2  3  1 -1</clus>
<clus scale="   70.449">  2  6  1 -1</clus>
<clus scale="   33.194">  2  3  1 -1</clus>
</clustering>
</event>
<event>
 6    0  0.1361744E+002  0.7671255E+02  0.7546771E-02  0.1338648E+00
          1   -1    0    0  503    0 -0.00000000000E+00  0.00000000000E+00  0.18635574359E+04  0.18635574359E+04  0.00000000000E+00 0. -1.
         21   -1    0    0  505  502  0.00000000000E+00 -0.00000000000E+00 -0.13216379400E+03  0.13216379400E+03  0.00000000000E+00 0. -1.
         21    1    1    2  503  504 -0.25600783884E+02 -0.51495775031E+02  0.65209042187E+03  0.65462136634E+03  0.00000000000E+00 0. -1.
         21    1    1    2  504  502 -0.43330782315E+02  0.37896568287E+02 -0.17198132477E+02  0.60078967573E+02  0.00000000000E+00 0. -1.
         21    1    1    2  505  501  0.72919790956E+02 -0.72548679831E+02 -0.61478516958E+02  0.11983411411E+03  0.00000000000E+00 0. -1.
          1    1    1    2  501    0 -0.39882247571E+01  0.86147886575E+02  0.11579798695E+04  0.11611867819E+04  0.00000000000E+00 0. -1.
<scales pt_clust_3="57.50839" pt_clust_4="14000.00000" pt_clust_5="76.71255" pt_clust_6="46.56146"></scales>
<clustering>
<clus scale="   57.508">  1  3  2 -1</clus>
<clus scale="   46.561">  1  6  2 -1</clus>
<clus scale="   76.713">  1  5  2 -1</clus>
<clus scale="   76.713">  2  3  1 -1</clus>
</clustering>
</event>
<event>
 6    0  0.1361744E+002  0.2556225E+03  0.7546771E-02  0.1109802E+00
         21   -1    0    0  503  502  0.00000000000E+00  0.00000000000E+00  0.16170869099E+03  0.16170869099E+03  0.00000000000E+00 0. -1.
          2   -1    0    0  504    0 -0.00000000000E+00 -0.00000000000E+00 -0.48911118143E+03  0.48911118143E+03  0.00000000000E+00 0. -1.
         21    1    1    2  503  501 -0.31893397631E+02 -0.52252721966E+02 -0.22831885256E+02  0.65336289684E+02  0.00000000000E+00 0.  1.
         21    1    1    2  504  505  0.12576742765E+03  0.40404978133E+02 -0.10631203453E+03  0.16956490440E+03  0.00000000000E+00 0.  1.
         21    1    1    2  505  502  0.12828886441E+03 -0.44752867745E+02 -0.84302299130E+02  0.15989912301E+03  0.00000000000E+00 0. -1.
          2    1    1    2  501    0 -0.22216289443E+03  0.56600611578E+02 -0.11395627152E+03  0.25601955533E+03  0.00000000000E+00 0. -1.
<scales pt_clust_3="61.21712" pt_clust_4="83.64579" pt_clust_5="83.64579" pt_clust_6="240.19500"></scales>
<clustering>
<clus scale="   61.217">  1  3  2 -1</clus>
<clus scale="   83.646">  4  5 -1 -1</clus>
<clus scale="  240.195">  1  6  2 -1</clus>
<clus scale="   61.217">  1  3  2 -1</clus>
</clustering>
</event>
<event>
 6    0  0.1361744E+002  0.1126571E+03  0.7546771E-02  0.1255727E+00
         21   -1    0    0  504  502  0.00000000000E+00  0.00000000000E+00  0.16626736634E+02  0.16626736634E+02  0.00000000000E+00 0. -1.
          2   -1    0    0  505    0 -0.00000000000E+00 -0.00000000000E+00 -0.26440043484E+04  0.26440043484E+04  0.00000000000E+00 0. -1.
         21    1    1    2  503  502  0.46076289645E+02  0.88832053250E+02 -0.51491226023E+03  0.52454627430E+03  0.00000000000E+00 0. -1.
         21    1    1    2  504  501 -0.54367861718E+02 -0.10800571880E+03 -0.33026144285E+03  0.35170118043E+03  0.00000000000E+00 0. -1.
         21    1    1    2  505  503  0.97113338013E+01 -0.33568493562E+02 -0.62237367166E+03  0.62335394515E+03  0.00000000000E+00 0.  1.
          2    1    1    2  501    0 -0.14197617275E+01  0.52742159112E+02 -0.11598302371E+04  0.11610296852E+04  0.00000000000E+00 0. -1.
<scales pt_clust_3="112.65706" pt_clust_4="14000.00000" pt_clust_5="34.94501" pt_clust_6="33.72598"></scales>
<clustering>
<clus scale="   34.945">  2  5  1 -1</clus>
<clus scale="   33.726">  2  6  1 -1</clus>
<clus scale="  112.657">  2  3  1 -1</clus>
<clus scale="  112.657">  1  3  2 -1</clus>
</clustering>
</event>
<event>
 6    0  0.1361744E+002  0.3646240E+03  0.7546771E-02  0.1056768E+00
          4   -1    0    0  505    0 -0.00000000000E+00  0.00000000000E+00  0.55428033073E+03  0.55428033073E+03  0.00000000000E+00 0.  1.
         21   -1    0    0  501  502  0.00000000000E+00 -0.00000000000E+00 -0.56274147355E+03  0.56274147355E+03  0.00000000000E+00 0.  1.
         21    1    1    2  503  502  0.20652280526E+03 -0.35577877911E+03 -0.25894289457E+03  0.48608809017E+03  0.00000000000E+00 0.  1.
         21    1    1    2  504  503  0.50233266035E+02  0.24162788064E+03  0.85476486188E+02  0.26117741749E+03  0.00000000000E+00 0.  1.
         21    1    1    2  505  504  0.11683403448E+01 -0.33456921805E+02  0.21098363746E+02  0.39571095368E+02  0.00000000000E+00 0. -1.
          4    1    1    2  501    0 -0.25792441164E+03  0.14760782027E+03  0.14390690182E+03  0.33018520124E+03  0.00000000000E+00 0.  1.
<scales pt_clust_3="364.62397" pt_clust_4="236.05139" pt_clust_5="33.47732" pt_clust_6="14000.00000"></scales>
<clustering>
<clus scale="   33.477">  1  5  2 -1</clus>
<clus scale="  236.051">  1  4  2 -1</clus>
<clus scale="  364.624">  2  3  1 -1</clus>
<clus scale="  364.624">  2  3  1 -1</clus>
</clustering>
</event>
<event>
 6    0  0.1361744E+002  0.1523059E+03  0.7546771E-02  0.1197668E+00
          1   -1    0    0  504    0 -0.00000000000E+00  0.00000000000E+00  0.82698661298E+03  0.82698661298E+03  0.00000000000E+00 0.  1.
         21   -1    0    0  501  502  0.00000000000E+00 -0.00000000000E+00 -0.76261724250E+02  0.76261724250E+02  0.00000000000E+00 0. -1.
         21    1    1    2  503  505  0.19233034761E+02 -0.38317844018E+02  0.29001415600E+02  0.51761461563E+02  0.00000000000E+00 0. -1.
         21    1    1    2  504  503  0.17647245777E+02  0.66742858267E+02  0.14782899301E+03  0.16315466768E+03  0.00000000000E+00 0.  1.
         21    1    1    2  505  502 -0.17860269623E+02 -0.11169370497E+03  0.51711784111E+01  0.11323079990E+03  0.00000000000E+00 0. -1.
          1    1    1    2  501    0 -0.19020010915E+02  0.83268690719E+02  0.56872330171E+03  0.57510140808E+03  0.00000000000E+00 0.  1.
<scales pt_clust_3="36.67869" pt_clust_4="69.03647" pt_clust_5="36.67869" pt_clust_6="140.17040"></scales>
<clustering>
<clus scale="   36.679">  3  5 -1 -1</clus>
<clus scale="   69.036">  1  4  2 -1</clus>
<clus scale="  140.170">  1  6  2 -1</clus>
<clus scale="  152.306">  2  3  1 -1</clus>
</clustering>
</event>
<event>
 6    0  0.1361744E+002  0.1145493E+03  0.7546771E-02  0.1252370E+00
         21   -1    0    0  504  502  0.00000000000E+00  0.00000000000E+00  0.74817325252E+02  0.74817325252E+02  0.00000000000E+00 0. -1.
         -2   -1    0    0    0  501 -0.00000000000E+00 -0.00000000000E+00 -0.10583806536E+04  0.10583806536E+04  0.00000000000E+00 0. -1.
         21    1    1    2  503  502  0.50473534172E+02  0.12293161790E+02 -0.20612401049E+02  0.55888912636E+02  0.00000000000E+00 0. -1.
         21    1    1    2  504  505 -0.64176561889E+02  0.11671842937E+03 -0.40543062921E+02  0.13923204660E+03  0.00000000000E+00 0. -1.
         21    1    1    2  505  501  0.20117823873E+02 -0.81223686431E+02 -0.24384047845E+03  0.25779874516E+03  0.00000000000E+00 0.  1.
         -2    1    1    2    0  503 -0.64147961562E+01 -0.47787904728E+02 -0.67856738595E+03  0.68027827448E+03  0.00000000000E+00 0. -1.
<scales pt_clust_3="50.38284" pt_clust_4="114.54930" pt_clust_5="14000.00000" pt_clust_6="48.21653"></scales>
<clustering>
<clus scale="   48.217">  2  6  1 -1</clus>
<clus scale="   50.383">  1  3  2 -1</clus>
<clus scale="  114.549">  1  4  2 -1</clus>
<clus scale="   50.383">  1  3  2 -1</clus>
</clustering>
</event>
<event>
 6    0  0.1361744E+002  0.1500195E+03  0.7546771E-02  0.1200449E+00
          2   -1    0    0  505    0 -0.00000000000E+00  0.00000000000E+00  0.79279764682E+03  0.79279764682E+03  0.00000000000E+00 0. -1.
         21   -1    0    0  501  502  0.00000000000E+00 -0.00000000000E+00 -0.18386628283E+03  0.18386628283E+03  0.00000000000E+00 0. -1.
         21    1    1    2  503  504 -0.71041547900E+02  0.86504786820E+02 -0.65081245131E+02  0.12948184482E+03  0.00000000000E+00 0. -1.
         21    1    1    2  504  502 -0.47900495246E+02  0.12152525155E+02 -0.59214397001E+02  0.77126429482E+02  0.00000000000E+00 0. -1.
         21    1    1    2  505  503  0.27317942620E+02 -0.89757660891E+02  0.13272143972E+03  0.16253519077E+03  0.00000000000E+00 0. -1.
          2    1    1    2  501    0  0.91624100526E+02 -0.88996510836E+01  0.60050556640E+03  0.60752046457E+03  0.00000000000E+00 0. -1.
<scales pt_clust_3="38.49790" pt_clust_4="38.49790" pt_clust_5="138.37899" pt_clust_6="92.05531"></scales>
<clustering>
<clus scale="   38.498">  3  4 -1 -1</clus>
<clus scale="   92.055">  1  6  2 -1</clus>
<clus scale="  138.379">  1  5  2 -1</clus>
<clus scale="  150.019">  2  3  1 -1</clus>
</clustering>
</event>
<event>
 6    0  0.1361744E+002  0.1443622E+03  0.7546771E-02  0.1207577E+00
         21   -1    0    0  504  502  0.00000000000E+00  0.00000000000E+00  0.15646830034E+03  0.15646830034E+03  0.00000000000E+00 0. -1.
          2   -1    0    0  503    0 -0.00000000000E+00 -0.00000000000E+00 -0.10924518418E+04  0.10924518418E+04  0.00000000000E+00 0.  1.
         21    1    1    2  503  505  0.18119298167E+02 -0.10455036348E+03 -0.76199189596E+03  0.76934435527E+03  0.00000000000E+00 0.  1.
         21    1    1    2  504  501  0.58383146242E+02  0.53029441749E+02 -0.69699760271E+02  0.10525573637E+03  0.00000000000E+00 0.  1.
         21    1    1    2  505  502 -0.12565973105E+03  0.84733287282E+02  0.86507946951E+02  0.17450995062E+03  0.00000000000E+00 0. -1.
          2    1    1    2  501    0  0.49157286637E+02 -0.33212365553E+02 -0.19079983216E+03  0.19981009986E+03  0.00000000000E+00 0.  1.
<scales pt_clust_3="14000.00000" pt_clust_4="80.43874" pt_clust_5="144.36220" pt_clust_6="59.32537"></scales>
<clustering>
<clus scale="   59.325">  2  6  1 -1</clus>
<clus scale="   80.439">  1  4  2 -1</clus>
<clus scale="  144.362">  1  5  2 -1</clus>
<clus scale="   80.439">  1  3  2 -1</clus>
</clustering>
</event>
<event>
 6    0  0.1361744E+002  0.6678830E+02  0.7546771E-02  0.1371368E+00
          1   -1    0    0  503    0 -0.00000000000E+00  0.00000000000E+00  0.19965179427E+04  0.19965179427E+04  0.00000000000E+00 0.  1.
         21   -1    0    0  504  502  0.00000000000E+00 -0.00000000000E+00 -0.59873485940E+02  0.59873485940E+02  0.00000000000E+00 0. -1.
         21    1    1    2  503  505 -0.32583595574E+02 -0.17466865852E+02  0.10514270327E+03  0.11145299527E+03  0.00000000000E+00 0. -1.
         21    1    1    2  504  501  0.11664619544E+02  0.43190831715E+02 -0.71134435630E+01  0.45300246938E+02  0.00000000000E+00 0. -1.
         21    1    1    2  505  502 -0.54447359820E+02 -0.85943676527E+02  0.59400820430E+02  0.11781039001E+03  0.00000000000E+00 0. -1.
          1    1    1    2  501    0  0.75366335850E+02  0.60219710665E+02  0.17792143766E+04  0.17818277964E+04  0.00000000000E+00 0.  1.
<scales pt_clust_3="36.97002" pt_clust_4="44.48267" pt_clust_5="66.78830" pt_clust_6="14000.00000"></scales>
<clustering>
<clus scale="   36.970">  1  3  2 -1</clus>
<clus scale="   44.483">  2  4  1 -1</clus>
<clus scale="   66.788">  2  5  1 -1</clus>
<clus scale="   44.483">  2  3  1 -1</clus>
</clustering>
</event>
<event>
 6    0  0.1361744E+002  0.1151302E+03  0.7546771E-02  0.1251354E+00
          2   -1    0    0  504    0 -0.00000000000E+00  0.00000000000E+00  0.98297754871E+03  0.98297754871E+03  0.00000000000E+00 0. -1.
         21   -1    0    0  505  502  0.00000000000E+00 -0.00000000000E+00 -0.88811890472E+02  0.88811890472E+02  0.00000000000E+00 0. -1.
         21    1    1    2  503  502  0.12293612139E+01 -0.11200884406E+03  0.10843595537E+03  0.15590333189E+03  0.00000000000E+00 0. -1.
         21    1    1    2  504  503  0.60582785835E+01 -0.34851091043E+02  0.20583688634E+03  0.20885431541E+03  0.00000000000E+00 0. -1.
         21    1    1    2  505  501  0.53592660473E+02  0.10785885711E+03 -0.22061087690E+01  0.12045984074E+03  0.00000000000E+00 0. -1.
          2    1    1    2  501    0 -0.60880300270E+02  0.39001077990E+02  0.58209892529E+03  0.58657195115E+03  0.00000000000E+00 0. -1.
<scales pt_clust_3="115.13017" pt_clust_4="35.37374" pt_clust_5="14000.00000" pt_clust_6="57.74045"></scales>
<clustering>
<clus scale="   35.374">  1  4  2 -1</clus>
<clus scale="   57.740">  1  6  2 -1</clus>
<clus scale="  115.130">  1  3  2 -1</clus>
<clus scale="  115.130">  2  3  1 -1</clus>
</clustering>
</event>
<event>
 6    0  0.1361744E+002  0.1424908E+03  0.7546771E-02  0.1210016E+00
         21   -1    0    0  505  502  0.00000000000E+00  0.00000000000E+00  0.97825303914E+02  0.97825303914E+02  0.00000000000E+00 0.  1.
          2   -1    0    0  504    0 -0.00000000000E+00 -0.00000000000E+00 -0.11399872791E+04  0.11399872791E+04  0.00000000000E+00 0.  1.
         21    1    1    2  503  501  0.76400210602E+02 -0.52094102324E+02 -0.95731653555E+01  0.92964687769E+02  0.00000000000E+00 0.  1.
         21    1    1    2  504  502  0.26974551434E+02 -0.14124435488E+02 -0.43904212535E+02  0.53429448633E+02  0.00000000000E+00 0.  1.
         21    1    1    2  505  503  0.42849763934E+02  0.33394949631E+02  0.29803120513E+02  0.61964109954E+02  0.00000000000E+00 0.  1.
          2    1    1    2  501    0 -0.14622452597E+03  0.32823588181E+02 -0.10184877178E+04  0.10294543367E+04  0.00000000000E+00 0.  1.
<scales pt_clust_3="14000.00000" pt_clust_4="30.44875" pt_clust_5="62.05919" pt_clust_6="142.49075"></scales>
<clustering>
<clus scale="   30.449">  1  4  2 -1</clus>
<clus scale="   62.059">  1  5  2 -1</clus>
<clus scale="  142.491">  2  6  1 -1</clus>
<clus scale="   30.449">  1  3  2 -1</clus>
</clustering>
</event>
<event>
 6    0  0.1361744E+002  0.1252689E+03  0.7546771E-02  0.1234650E+00
          1   -1    0    0  504    0 -0.00000000000E+00  0.00000000000E+00  0.27970632502E+03  0.27970632502E+03  0.00000000000E+00 0.  1.
         21   -1    0    0  505  502  0.00000000000E+00 -0.00000000000E+00 -0.11223576985E+03  0.11223576985E+03  0.00000000000E+00 0. -1.
         21    1    1    2  503  502  0.32532124833E+02  0.56064482298E+02 -0.35219650873E+02  0.73769838885E+02  0.00000000000E+00 0. -1.
         21    1    1    2  504  503  0.47816240721E+02  0.41070697132E+02 -0.89412634795E+01  0.63664285374E+02  0.00000000000E+00 0. -1.
         21    1    1    2  505  501 -0.82732696183E+02 -0.61314842698E+02  0.17609579133E+03  0.20399494277E+03  0.00000000000E+00 0.  1.
          1    1    1    2  501    0  0.23843306289E+01 -0.35820336732E+02  0.35535678198E+02  0.50513027836E+02  0.00000000000E+00 0.  1.
<scales pt_clust_3="31.90614" pt_clust_4="31.90614" pt_clust_5="121.01838" pt_clust_6="35.89960"></scales>
<clustering>
<clus scale="   31.906">  3  4 -1 -1</clus>
<clus scale="   35.900">  1  6  2 -1</clus>
<clus scale="  121.018">  1  5  2 -1</clus>
<clus scale="  125.269">  2  3  1 -1</clus>
</clustering>
</event>
<event>
 6    0  0.1361744E+002  0.1253048E+03  0.7546771E-02  0.1234594E+00
         21   -1    0    0  503  502  0.00000000000E+00  0.00000000000E+00  0.12984958194E+03  0.12984958194E+03  0.00000000000E+00 0. -1.
         -4   -1    0    0    0  501 -0.00000000000E+00 -0.00000000000E+00 -0.10363660124E+04  0.10363660124E+04  0.00000000000E+00 0. -1.
         21    1    1    2  503  501  0.10236721882E+02  0.39305848459E+02 -0.20771130945E+01  0.40670070037E+02  0.00000000000E+00 0. -1.
         21    1    1    2  504  502 -0.80912411286E+02  0.68673926724E+02  0.76519155043E+02  0.13083618613E+03  0.00000000000E+00 0. -1.
         21    1    1    2  505  504  0.25378408472E+02 -0.11194399447E+03 -0.58550917988E+03  0.59665444039E+03  0.00000000000E+00 0. -1.
         -4    1    1    2    0  505  0.45297280932E+02  0.39642192860E+01 -0.39544929250E+03  0.39805489777E+03  0.00000000000E+00 0. -1.
<scales pt_clust_3="40.61699" pt_clust_4="125.30477" pt_clust_5="14000.00000" pt_clust_6="45.63320"></scales>
<clustering>
<clus scale="   40.617">  1  3  2 -1</clus>
<clus scale="   45.633">  2  6  1 -1</clus>
<clus scale="  125.305">  1  4  2 -1</clus>
<clus scale="   40.617">  1  3  2 -1</clus>
</clustering>
</event>
<event>
 6    0  0.1361744E+002  0.6891919E+02  0.7546771E-02  0.1363807E+00
         21   -1    0    0  503  502  0.00000000000E+00  0.00000000000E+00  0.75164976192E+03  0.75164976192E+03  0.00000000000E+00 0.  1.
          2   -1    0    0  505    0 -0.00000000000E+00 -0.00000000000E+00 -0.10653984450E+04  0.10653984450E+04  0.00000000000E+00 0.  1.
         21    1    1    2  503  501 -0.76021320042E+02  0.44747687211E+02  0.61014062384E+03  0.61648453141E+03  0.00000000000E+00 0.  1.
         21    1    1    2  504  502  0.10298786474E+02 -0.65667258477E+02  0.12167241510E+03  0.13864497984E+03  0.00000000000E+00 0.  1.
         21    1    1    2  505  504 -0.14982175775E+02  0.27808145478E+02 -0.31439041138E+02  0.44566488010E+02  0.00000000000E+00 0.  1.
          2    1    1    2  501    0  0.80704709343E+02 -0.68885742127E+01 -0.10141226808E+04  0.10173522076E+04  0.00000000000E+00 0.  1.
<scales pt_clust_3="14000.00000" pt_clust_4="66.22391" pt_clust_5="31.58732" pt_clust_6="68.91919"></scales>
<clustering>
<clus scale="   31.587">  2  5  1 -1</clus>
<clus scale="   66.224">  1  4  2 -1</clus>
<clus scale="   68.919">  2  6  1 -1</clus>
<clus scale="   66.224">  1  3  2 -1</clus>
</clustering>
</event>
<event>
 6    0  0.1361744E+002  0.8643601E+02  0.7546771E-02  0.1311719E+00
         -4   -1    0    0    0  501 -0.00000000000E+00  0.00000000000E+00  0.36527945906E+03  0.36527945906E+03  0.00000000000E+00 0. -1.
         21   -1    0    0  504  502  0.00000000000E+00 -0.00000000000E+00 -0.12307981181E+04  0.12307981181E+04  0.00000000000E+00 0. -1.
         21    1    1    2  503  501  0.20857497592E+02 -0.35650223418E+02 -0.16460307304E+02  0.44462516259E+02  0.00000000000E+00 0. -1.
         21    1    1    2  504  503  0.22095647274E+02 -0.41843385004E+02 -0.60657119492E+03  0.60841408679E+03  0.00000000000E+00 0. -1.
         21    1    1    2  505  502  0.64062499386E+02  0.24060360828E+02 -0.58056639804E+03  0.58458553465E+03  0.00000000000E+00 0. -1.
         -4    1    1    2    0  505 -0.10701564425E+03  0.53433247594E+02  0.33807924123E+03  0.35861543945E+03  0.00000000000E+00 0. -1.
<scales pt_clust_3="41.30343" pt_clust_4="47.42723" pt_clust_5="14000.00000" pt_clust_6="86.43601"></scales>
<clustering>
<clus scale="   41.303">  1  3  2 -1</clus>
<clus scale="   47.427">  2  4  1 -1</clus>
<clus scale="   86.436">  1  6  2 -1</clus>
<clus scale="   47.427">  2  3  1 -1</clus>
</clustering>
</event>
<event>
 6    0  0.1361744E+002  0.1332906E+03  0.7546771E-02  0.1222653E+00
         -3   -1    0    0    0  501 -0.00000000000E+00  0.00000000000E+00  0.23539509113E+02  0.23539509113E+02  0.00000000000E+00 0. -1.
         21   -1    0    0  503  502  0.00000000000E+00 -0.00000000000E+00 -0.77211640438E+03  0.77211640438E+03  0.00000000000E+00 0. -1.
         21    1    1    2  503  505 -0.49160278332E+02 -0.16244572589E+02 -0.21616138298E+03  0.22227542059E+03  0.00000000000E+00 0.  1.
         21    1    1    2  504  502  0.65302843818E+02 -0.37695974520E+02 -0.15656175822E+03  0.17377293242E+03  0.00000000000E+00 0. -1.
         21    1    1    2  505  501 -0.69109182743E+02  0.40579466465E+02 -0.24622323004E+03  0.25893754315E+03  0.00000000000E+00 0. -1.
         -3    1    1    2    0  504  0.52966617257E+02  0.13361080644E+02 -0.12963052402E+03  0.14067001734E+03  0.00000000000E+00 0. -1.
<scales pt_clust_3="45.37195" pt_clust_4="41.59776" pt_clust_5="45.37195" pt_clust_6="130.26260"></scales>
<clustering>
<clus scale="   41.598">  4  6 -1 -1</clus>
<clus scale="   45.372">  3  5 -1 -1</clus>
<clus scale="  130.263">  1  4  2 -1</clus>
<clus scale="  133.291">  2  3  1 -1</clus>
</clustering>
</event>
<event>
 6    0  0.1361744E+002  0.1713206E+03  0.7546771E-02  0.1176478E+00
         21   -1    0    0  505  502  0.00000000000E+00  0.00000000000E+00  0.40601757805E+03  0.40601757805E+03  0.00000000000E+00 0. -1.
          2   -1    0    0  503    0 -0.00000000000E+00 -0.00000000000E+00 -0.90556373832E+03  0.90556373832E+03  0.00000000000E+00 0.  1.
         21    1    1    2  503  504 -0.25685107064E+02 -0.48959643635E+02 -0.14079491779E+03  0.15126129810E+03  0.00000000000E+00 0. -1.
         21    1    1    2  504  502  0.24459154449E+02  0.65048292714E+02  0.97404077555E+02  0.11965402185E+03  0.00000000000E+00 0. -1.
         21    1    1    2  505  501  0.13198328084E+03  0.14712344755E+02  0.27068972650E+03  0.30151113999E+03  0.00000000000E+00 0. -1.
          2    1    1    2  501    0 -0.13075732822E+03 -0.30800993833E+02 -0.72684504653E+03  0.73915485642E+03  0.00000000000E+00 0.  1.
<scales pt_clust_3="55.28808" pt_clust_4="68.69126" pt_clust_5="171.32058" pt_clust_6="14000.00000"></scales>
<clustering>
<clus scale="   55.288">  2  3  1 -1</clus>
<clus scale="   68.691">  1  4  2 -1</clus>
<clus scale="  171.321">  1  5  2 -1</clus>
<clus scale="   68.691">  1  3  2 -1</clus>
</clustering>
</event>
<event>
 6    0  0.1361744E+002  0.1526563E+03  0.7546771E-02  0.1197246E+00
          1   -1    0    0  504    0 -0.00000000000E+00  0.00000000000E+00  0.14012406145E+04  0.14012406145E+04  0.00000000000E+00 0.  1.
         21   -1    0    0  505  502  0.00000000000E+00 -0.00000000000E+00 -0.45612505851E+03  0.45612505851E+03  0.00000000000E+00 0. -1.
         21    1    1    2  503  502 -0.83202502647E+02 -0.36076771981E+02 -0.19195822684E+03  0.21230202725E+03  0.00000000000E+00 0. -1.
         21    1    1    2  504  503 -0.10582859663E+02 -0.90258566936E+02 -0.22229770408E+03  0.24015593906E+03  0.00000000000E+00 0. -1.
         21    1    1    2  505  501  0.52336810549E+02 -0.21835170507E+02  0.25476969737E+02  0.62169063017E+02  0.00000000000E+00 0. -1.
          1    1    1    2  501    0  0.41448551762E+02  0.14817050942E+03  0.13338945172E+04  0.13427386437E+04  0.00000000000E+00 0.  1.
<scales pt_clust_3="74.94032" pt_clust_4="14000.00000" pt_clust_5="56.70905" pt_clust_6="152.65627"></scales>
<clustering>
<clus scale="   56.709">  2  5  1 -1</clus>
<clus scale="   74.940">  2  3  1 -1</clus>
<clus scale="  152.656">  1  6  2 -1</clus>
<clus scale="   56.709">  2  3  1 -1</clus>
</clustering>
</event>
<event>
 6    0  0.1361744E+002  0.8507422E+02  0.7546771E-02  0.1315239E+00
          2   -1    0    0  504    0 -0.00000000000E+00  0.00000000000E+00  0.21482978277E+04  0.21482978277E+04  0.00000000000E+00 0.  1.
         21   -1    0    0  503  502  0.00000000000E+00 -0.00000000000E+00 -0.21425897061E+03  0.21425897061E+03  0.00000000000E+00 0. -1.
         21    1    1    2  503  501 -0.85657666273E+02 -0.85778530674E+02 -0.16478398350E+03  0.20457016726E+03  0.00000000000E+00 0. -1.
         21    1    1    2  504  505  0.15755854285E+02  0.40278635907E+02  0.29842640390E+03  0.30154424882E+03  0.00000000000E+00 0.  1.
         21    1    1    2  505  502  0.74661042823E+02 -0.26139693245E-01  0.22529417135E+02  0.77986195157E+02  0.00000000000E+00 0.  1.
          2    1    1    2  501    0 -0.47592308343E+01  0.45526034460E+02  0.17778670195E+04  0.17784561870E+04  0.00000000000E+00 0.  1.
<scales pt_clust_3="14000.00000" pt_clust_4="43.25061" pt_clust_5="75.09707" pt_clust_6="85.07422"></scales>
<clustering>
<clus scale="   43.251">  1  4  2 -1</clus>
<clus scale="   75.097">  2  5  1 -1</clus>
<clus scale="   85.074">  1  6  2 -1</clus>
<clus scale="   75.097">  2  3  1 -1</clus>
</clustering>
</event>
<event>
 6    0  0.1361744E+002  0.4938095E+03  0.7546771E-02  0.1015407E+00
         21   -1    0    0  501  502  0.00000000000E+00  0.00000000000E+00  0.25820704288E+03  0.25820704288E+03  0.00000000000E+00 0.  1.
          2   -1    0    0  505    0 -0.00000000000E+00 -0.00000000000E+00 -0.18801303887E+04  0.18801303887E+04  0.00000000000E+00 0.  1.
         21    1    1    2  503  502  0.41067198248E+02  0.40024311804E+02 -0.26778859215E+02  0.63289553705E+02  0.00000000000E+00 0.  1.
         21    1    1    2  504  503 -0.44152490279E+03 -0.17066839711E+01 -0.87135483555E+02  0.45004415900E+03  0.00000000000E+00 0.  1.
         21    1    1    2  505  504 -0.77766734294E+02 -0.12048704635E+01 -0.56055018901E+02  0.95871173038E+02  0.00000000000E+00 0.  1.
          2    1    1    2  501    0  0.47822443884E+03 -0.37112757369E+02 -0.14519539841E+04  0.15291325458E+04  0.00000000000E+00 0.  1.
<scales pt_clust_3="57.34510" pt_clust_4="37.18059" pt_clust_5="37.18059" pt_clust_6="485.79840"></scales>
<clustering>
<clus scale="   37.181">  4  5 -1 -1</clus>
<clus scale="   57.345">  1  3  2 -1</clus>
<clus scale="  485.798">  2  6  1 -1</clus>
<clus scale="   57.345">  1  3  2 -1</clus>
</clustering>
</event>
<event>
 6    0  0.1361744E+002  0.1777839E+03  0.7546771E-02  0.1169965E+00
         21   -1    0    0  504  502  0.00000000000E+00  0.00000000000E+00  0.10140063328E+03  0.10140063328E+03  0.00000000000E+00 0. -1.
          2   -1    0    0  503    0 -0.00000000000E+00 -0.00000000000E+00 -0.25013790295E+04  0.25013790295E+04  0.00000000000E+00 0.  1.
         21    1    1    2  503  505  0.30891890193E+02 -0.59555542755E+02 -0.58041380379E+03  0.58427849112E+03  0.00000000000E+00 0.  1.
         21    1    1    2  504  501 -0.28252132938E+02 -0.17840932616E+03 -0.19102560384E+03  0.26290464431E+03  0.00000000000E+00 0. -1.
         21    1    1    2  505  502 -0.10590884718E+03  0.59227620585E+02 -0.76176314078E+01  0.12158381166E+03  0.00000000000E+00 0. -1.
          2    1    1    2  501    0  0.10326908992E+03  0.17873724833E+03 -0.16209213571E+04  0.16340127156E+04  0.00000000000E+00 0.  1.
<scales pt_clust_3="67.09077" pt_clust_4="14000.00000" pt_clust_5="119.46523" pt_clust_6="177.78394"></scales>
<clustering>
<clus scale="   67.091">  2  3  1 -1</clus>
<clus scale="  119.465">  1  5  2 -1</clus>
<clus scale="  177.784">  2  6  1 -1</clus>
<clus scale="  119.465">  1  3  2 -1</clus>
</clustering>
</event>
<event>
 6    0  0.1361744E+002  0.1236701E+03  0.7546771E-02  0.1237162E+00
          2   -1    0    0  505    0 -0.00000000000E+00  0.00000000000E+00  0.22249992343E+04  0.22249992343E+04  0.00000000000E+00 0.  1.
         21   -1    0    0  503  502  0.00000000000E+00 -0.00000000000E+00 -0.17972179721E+02  0.17972179721E+02  0.00000000000E+00 0.  1.
         21    1    1    2  503  504 -0.64072967873E+02  0.38022345273E+01  0.52434685614E+03  0.52826075734E+03  0.00000000000E+00 0.  1.
         21    1    1    2  504  501 -0.32051663398E+02  0.13022253137E+02  0.11187663998E+03  0.11710367534E+03  0.00000000000E+00 0.  1.
         21    1    1    2  505  502  0.11722521651E+03  0.61170703552E+02  0.35018187157E+03  0.37431397187E+03  0.00000000000E+00 0.  1.
          2    1    1    2  501    0 -0.21100585235E+02 -0.77995191217E+02  0.12206216869E+04  0.12232930095E+04  0.00000000000E+00 0.  1.
<scales pt_clust_3="34.37204" pt_clust_4="34.37204" pt_clust_5="114.46566" pt_clust_6="80.79904"></scales>
<clustering>
<clus scale="   34.372">  3  4 -1 -1</clus>
<clus scale="   80.799">  1  6  2 -1</clus>
<clus scale="  114.466">  2  5  1 -1</clus>
<clus scale="  114.466">  2  3  1 -1</clus>
</clustering>
</event>
<event>
 6    0  0.1361744E+002  0.1645297E+03  0.7546771E-02  0.1183676E+00
          1   -1    0    0  505    0 -0.00000000000E+00  0.00000000000E+00  0.93919760570E+03  0.93919760570E+03  0.00000000000E+00 0.  1.
         21   -1    0    0  503  502  0.00000000000E+00 -0.00000000000E+00 -0.36918016651E+03  0.36918016651E+03  0.00000000000E+00 0.  1.
         21    1    1    2  503  504 -0.45138560305E+02  0.12040108679E+01 -0.49019257752E+02  0.66647032186E+02  0.00000000000E+00 0.  1.
         21    1    1    2  504  501 -0.21585744737E+02  0.15244341966E+03 -0.28114295622E+03  0.32054064080E+03  0.00000000000E+00 0.  1.
         21    1    1    2  505  502  0.60863082169E+02 -0.28602454120E+02  0.23984033079E+03  0.24908994245E+03  0.00000000000E+00 0.  1.
          1    1    1    2  501    0  0.58612228730E+01 -0.12504497640E+03  0.66033932238E+03  0.67210015677E+03  0.00000000000E+00 0.  1.
<scales pt_clust_3="45.15462" pt_clust_4="14000.00000" pt_clust_5="66.63501" pt_clust_6="164.52965"></scales>
<clustering>
<clus scale="   45.155">  2  3  1 -1</clus>
<clus scale="   66.635">  1  5  2 -1</clus>
<clus scale="  164.530">  1  6  2 -1</clus>
<clus scale="   45.155">  2  3  1 -1</clus>
</clustering>
</event>
<event>
 6    0  0.1361744E+002  0.1296078E+03  0.7546771E-02  0.1228039E+00
         -1   -1    0    0    0  501 -0.00000000000E+00  0.00000000000E+00  0.72086259516E+03  0.72086259516E+03  0.00000000000E+00 0. -1.
         21   -1    0    0  503  502  0.00000000000E+00 -0.00000000000E+00 -0.37724987412E+02  0.37724987412E+02  0.00000000000E+00 0.  1.
         21    1    1    2  503  504 -0.42457143427E+02 -0.29818166273E+02  0.61175353942E+02  0.80213190921E+02  0.00000000000E+00 0. -1.
         21    1    1    2  504  501 -0.73357620755E+02 -0.15083247627E+02  0.45338532131E+02  0.87546715402E+02  0.00000000000E+00 0.  1.
         21    1    1    2  505  502  0.50306397733E+02  0.36468250422E+02  0.30780987532E+03  0.31401844896E+03  0.00000000000E+00 0. -1.
         -1    1    1    2    0  505  0.65508366450E+02  0.84331634780E+01  0.26881384635E+03  0.27680922728E+03  0.00000000000E+00 0. -1.
<scales pt_clust_3="30.79558" pt_clust_4="30.79558" pt_clust_5="32.93750" pt_clust_6="128.77277"></scales>
<clustering>
<clus scale="   30.796">  3  4 -1 -1</clus>
<clus scale="   32.937">  5  6 -1 -1</clus>
<clus scale="  128.773">  1  5  2 -1</clus>
<clus scale="  129.608">  2  3  1 -1</clus>
</clustering>
</event>
<event>
 6    0  0.1361744E+002  0.1172209E+03  0.7546771E-02  0.1247753E+00
         21   -1    0    0  503  502  0.00000000000E+00  0.00000000000E+00  0.25268420870E+02  0.25268420870E+02  0.00000000000E+00 0.  1.
          2   -1    0    0  505    0 -0.00000000000E+00 -0.00000000000E+00 -0.10346369515E+04  0.10346369515E+04  0.00000000000E+00 0. -1.
         21    1    1    2  503  504  0.62362745520E+02  0.16994801902E+02 -0.10074183004E+03  0.11969482713E+03  0.00000000000E+00 0.  1.
         21    1    1    2  504  501 -0.28113027107E+02  0.41204677692E+02 -0.21215771280E+03  0.21794279722E+03  0.00000000000E+00 0.  1.
         21    1    1    2  505  502  0.43051942346E+02 -0.70201415193E+02 -0.15826515954E+03  0.17840843354E+03  0.00000000000E+00 0.  1.
          2    1    1    2  501    0 -0.77301660760E+02  0.12001935600E+02 -0.53820382827E+03  0.54385931451E+03  0.00000000000E+00 0. -1.
<scales pt_clust_3="64.63695" pt_clust_4="46.26504" pt_clust_5="101.90152" pt_clust_6="46.26504"></scales>
<clustering>
<clus scale="   46.265">  4  6 -1 -1</clus>
<clus scale="   64.637">  1  3  2 -1</clus>
<clus scale="  101.902">  1  5  2 -1</clus>
<clus scale="   64.637">  1  3  2 -1</clus>
</clustering>
</event>
<event>
 6    0  0.1361744E+002  0.1086054E+03  0.7546771E-02  0.1263175E+00
         21   -1    0    0  503  502  0.00000000000E+00  0.00000000000E+00  0.48199850690E+02  0.48199850690E+02  0.00000000000E+00 0. -1.
          1   -1    0    0  504    0 -0.00000000000E+00 -0.00000000000E+00 -0.26054847526E+04  0.26054847526E+04  0.00000000000E+00 0. -1.
         21    1    1    2  503  505  0.14008337214E+02 -0.27792969794E+02 -0.21711930760E+02  0.37948525911E+02  0.00000000000E+00 0. -1.
         21    1    1    2  504  502 -0.38309879542E+02 -0.90672715611E+02 -0.93275741529E+03  0.93793687635E+03  0.00000000000E+00 0. -1.
         21    1    1    2  505  501  0.58151116841E+02 -0.85924728654E+01  0.10004665275E+02  0.59627814877E+02  0.00000000000E+00 0. -1.
          1    1    1    2  501    0 -0.33849574513E+02  0.12705815827E+03 -0.16128202211E+04  0.16181713861E+04  0.00000000000E+00 0. -1.
<scales pt_clust_3="31.12367" pt_clust_4="108.60538" pt_clust_5="77.56506" pt_clust_6="14000.00000"></scales>
<clustering>
<clus scale="   31.124">  1  3  2 -1</clus>
<clus scale="   77.565">  1  5  2 -1</clus>
<clus scale="  108.605">  2  4  1 -1</clus>
<clus scale="   31.124">  1  3  2 -1</clus>
</clustering>
</event>
<event>
 6    0  0.1361744E+002  0.1209087E+03  0.7546771E-02  0.1241606E+00
         21   -1    0    0  503  502  0.00000000000E+00  0.00000000000E+00  0.19303540217E+03  0.19303540217E+03  0.00000000000E+00 0.  1.
          2   -1    0    0  505    0 -0.00000000000E+00 -0.00000000000E+00 -0.11566320617E+04  0.11566320617E+04  0.00000000000E+00 0.  1.
         21    1    1    2  503  501 -0.13493767909E+03  0.41262415283E+01  0.12370860782E+03  0.18310931915E+03  0.00000000000E+00 0.  1.
         21    1    1    2  504  502  0.77388318909E+02 -0.71576443307E+02 -0.38428117080E+02  0.11220008611E+03  0.00000000000E+00 0.  1.
         21    1    1    2  505  504  0.41512540945E+02  0.27667460535E+02 -0.28923039020E+03  0.29350127435E+03  0.00000000000E+00 0.  1.
          2    1    1    2  501    0  0.16036819240E+02  0.39782741243E+02 -0.75964676005E+03  0.76085678424E+03  0.00000000000E+00 0.  1.
<scales pt_clust_3="14000.00000" pt_clust_4="120.90867" pt_clust_5="77.97279" pt_clust_6="42.89343"></scales>
<clustering>
<clus scale="   42.893">  2  6  1 -1</clus>
<clus scale="   77.973">  2  5  1 -1</clus>
<clus scale="  120.909">  2  4  1 -1</clus>
<clus scale="  120.909">  1  3  2 -1</clus>
</clustering>
</event>
<event>
 6    0  0.1361744E+002  0.1019322E+03  0.7546771E-02  0.1276284E+00
          1   -1    0    0  503    0 -0.00000000000E+00  0.00000000000E+00  0.13902735533E+03  0.13902735533E+03  0.00000000000E+00 0.  1.
         21   -1    0    0  504  502  0.00000000000E+00 -0.00000000000E+00 -0.23203516921E+03  0.23203516921E+03  0.00000000000E+00 0. -1.
         21    1    1    2  503  502  0.57068406110E+01  0.62188302353E+02 -0.10050678781E+02  0.63253214331E+02  0.00000000000E+00 0. -1.
         21    1    1    2  504  505 -0.74132191283E+02  0.34651168497E+02 -0.14158566286E+03  0.16353221453E+03  0.00000000000E+00 0. -1.
         21    1    1    2  505  501  0.62539346264E+02 -0.57830676633E+02  0.16876591491E+02  0.86835340336E+02  0.00000000000E+00 0. -1.
          1    1    1    2  501    0  0.58860044087E+01 -0.39008794217E+02  0.41751936271E+02  0.57441755339E+02  0.00000000000E+00 0.  1.
<scales pt_clust_3="62.44960" pt_clust_4="84.09226" pt_clust_5="39.20482" pt_clust_6="39.20482"></scales>
<clustering>
<clus scale="   39.205">  5  6 -1 -1</clus>
<clus scale="   62.450">  1  3  2 -1</clus>
<clus scale="   84.092">  2  4  1 -1</clus>
<clus scale="   84.092">  2  3  1 -1</clus>
</clustering>
</event>
<event>
 6    0  0.1361744E+002  0.2069000E+03  0.7546771E-02  0.1144045E+00
         -4   -1    0    0    0  501 -0.00000000000E+00  0.00000000000E+00  0.11996744833E+04  0.11996744833E+04  0.00000000000E+00 0.  1.
         21   -1    0    0  503  502  0.00000000000E+00 -0.00000000000E+00 -0.15123801198E+04  0.15123801198E+04  0.00000000000E+00 0.  1.
         21    1    1    2  503  505 -0.26594614642E+02  0.57784428220E+02 -0.27510881572E+03  0.28236709114E+03  0.00000000000E+00 0.  1.
         21    1    1    2  504  502 -0.28439229706E+02  0.65718663697E+02 -0.11560276358E+04  0.11582433369E+04  0.00000000000E+00 0.  1.
         21    1    1    2  505  501  0.36795745570E+02  0.83711868173E+02 -0.36110163881E+02  0.98313517385E+02  0.00000000000E+00 0.  1.
         -4    1    1    2    0  504  0.18238098777E+02 -0.20721496009E+03  0.11545409790E+04  0.11731306577E+04  0.00000000000E+00 0.  1.
<scales pt_clust_3="63.61064" pt_clust_4="14000.00000" pt_clust_5="93.77673" pt_clust_6="206.90005"></scales>
<clustering>
<clus scale="   63.611">  2  3  1 -1</clus>
<clus scale="   93.777">  2  5  1 -1</clus>
<clus scale="  206.900">  1  6  2 -1</clus>
<clus scale="   63.611">  2  3  1 -1</clus>
</clustering>
</event>
<event>
 6    0  0.1361744E+002  0.1082058E+03  0.7546771E-02  0.1263929E+00
          2   -1    0    0  503    0 -0.00000000000E+00  0.00000000000E+00  0.25357913819E+04  0.25357913819E+04  0.00000000000E+00 0.  1.
         21   -1    0    0  504  502  0.00000000000E+00 -0.00000000000E+00 -0.63426184125E+02  0.63426184125E+02  0.00000000000E+00 0. -1.
         21    1    1    2  503  505  0.74094407631E+02  0.48091781574E+02  0.70419607315E+03  0.70971466811E+03  0.00000000000E+00 0.  1.
         21    1    1    2  504  501 -0.51009659479E+02 -0.34172357693E+02 -0.10465156726E+02  0.62283664759E+02  0.00000000000E+00 0. -1.
         21    1    1    2  505  502 -0.72251596575E+01 -0.77946127760E+02  0.41063541061E+02  0.88396923982E+02  0.00000000000E+00 0. -1.
          2    1    1    2  501    0 -0.15859588494E+02  0.64026703879E+02  0.17375707403E+04  0.17388223092E+04  0.00000000000E+00 0.  1.
<scales pt_clust_3="14000.00000" pt_clust_4="61.39817" pt_clust_5="108.20577" pt_clust_6="65.49171"></scales>
<clustering>
<clus scale="   61.398">  2  4  1 -1</clus>
<clus scale="   65.492">  1  6  2 -1</clus>
<clus scale="  108.206">  2  5  1 -1</clus>
<clus scale="   61.398">  2  3  1 -1</clus>
</clustering>
</event>
<event>
 6    0  0.1361744E+002  0.2627450E+03  0.7546771E-02  0.1105505E+00
         21   -1    0    0  505  502  0.00000000000E+00  0.00000000000E+00  0.24924164804E+03  0.24924164804E+03  0.00000000000E+00 0.  1.
          1   -1    0    0  502    0 -0.00000000000E+00 -0.00000000000E+00 -0.21979948049E+04  0.21979948049E+04  0.00000000000E+00 0. -1.
         21    1    1    2  503  501  0.88328239940E+02 -0.20172832303E+03 -0.59496849533E+03  0.63441603441E+03  0.00000000000E+00 0.  1.
         21    1    1    2  504  503  0.74620368090E+02 -0.11409770946E+03 -0.31871337236E+02  0.14000810253E+03  0.00000000000E+00 0.  1.
         21    1    1    2  505  504 -0.55134118760E+02  0.42185348028E+02  0.15344777815E+03  0.16842088724E+03  0.00000000000E+00 0.  1.
          1    1    1    2  501    0 -0.10781448927E+03  0.27364068446E+03 -0.14753611024E+04  0.15043914287E+04  0.00000000000E+00 0. -1.
<scales pt_clust_3="262.74502" pt_clust_4="97.26845" pt_clust_5="69.42172" pt_clust_6="14000.00000"></scales>
<clustering>
<clus scale="   69.422">  1  5  2 -1</clus>
<clus scale="   97.268">  1  4  2 -1</clus>
<clus scale="  262.745">  1  3  2 -1</clus>
<clus scale="   69.422">  1  3  2 -1</clus>
</clustering>
</event>
<event>
 6    0  0.1361744E+002  0.1350914E+03  0.7546771E-02  0.1220091E+00
         21   -1    0    0  503  502  0.00000000000E+00  0.00000000000E+00  0.68187520898E+02  0.68187520898E+02  0.00000000000E+00 0.  1.
          2   -1    0    0  505    0 -0.00000000000E+00 -0.00000000000E+00 -0.13336027622E+04  0.13336027622E+04  0.00000000000E+00 0. -1.
         21    1    1    2  503  504 -0.63206213590E+02  0.50483510214E+02  0.75557802598E+01  0.81244692475E+02  0.00000000000E+00 0.  1.
         21    1    1    2  504  501 -0.99376566726E+02 -0.53704179147E+02 -0.30749721024E+03  0.32758872871E+03  0.00000000000E+00 0. -1.
         21    1    1    2  505  502  0.28459517581E+01  0.31503288980E+02 -0.30248993319E+02  0.43767091003E+02  0.00000000000E+00 0.  1.
          2    1    1    2  501    0  0.15973682856E+03 -0.28282620048E+02 -0.93522481802E+03  0.94918977093E+03  0.00000000000E+00 0. -1.
<scales pt_clust_3="95.42202" pt_clust_4="135.09137" pt_clust_5="31.63158" pt_clust_6="14000.00000"></scales>
<clustering>
<clus scale="   31.632">  1  5  2 -1</clus>
<clus scale="   95.422">  1  3  2 -1</clus>
<clus scale="  135.091">  1  4  2 -1</clus>
<clus scale="   31.632">  1  3  2 -1</clus>
</clustering>
</event>
<event>
 6    0  0.1361744E+002  0.1370258E+03  0.7546771E-02  0.1217388E+00
          2   -1    0    0  504    0 -0.00000000000E+00  0.00000000000E+00  0.50671897030E+03  0.50671897030E+03  0.00000000000E+00 0.  1.
         21   -1    0    0  503  502  0.00000000000E+00 -0.00000000000E+00 -0.50614276860E+03  0.50614276860E+03  0.00000000000E+00 0.  1.
         21    1    1    2  503  505  0.12089293021E+03  0.73489218470E+02 -0.44447686838E+03  0.46644983903E+03  0.00000000000E+00 0.  1.
         21    1    1    2  504  502  0.30943464200E+02 -0.40130030946E+02  0.20145624573E+03  0.20773188562E+03  0.00000000000E+00 0.  1.
         21    1    1    2  505  501 -0.83850502186E+02 -0.69160971352E+02  0.31607419790E+02  0.11319529876E+03  0.00000000000E+00 0. -1.
          2    1    1    2  501    0 -0.67985892227E+02  0.35801783828E+02  0.21198940457E+03  0.22548471548E+03  0.00000000000E+00 0.  1.
<scales pt_clust_3="14000.00000" pt_clust_4="50.67462" pt_clust_5="137.02585" pt_clust_6="46.07971"></scales>
<clustering>
<clus scale="   50.675">  1  4  2 -1</clus>
<clus scale="   46.080">  1  6  2 -1</clus>
<clus scale="  137.026">  1  5  2 -1</clus>
<clus scale="  137.026">  2  3  1 -1</clus>
</clustering>
</event>
<event>
 6    0  0.1361744E+002  0.1868641E+03  0.7546771E-02  0.1161320E+00
          1   -1    0    0  502    0 -0.00000000000E+00  0.00000000000E+00  0.13977198948E+04  0.13977198948E+04  0.00000000000E+00 0. -1.
         21   -1    0    0  505  502  0.00000000000E+00 -0.00000000000E+00 -0.67771392176E+03  0.67771392176E+03  0.00000000000E+00 0. -1.
         21    1    1    2  503  501  0.43354926399E+02 -0.54038040158E+02  0.34876181527E+03  0.35557638170E+03  0.00000000000E+00 0.  1.
         21    1    1    2  504  503 -0.80082965049E+02  0.79064205129E+02 -0.35394149889E+03  0.37140141957E+03  0.00000000000E+00 0. -1.
         21    1    1    2  505  504 -0.32708393989E+02  0.59469623150E+02 -0.30501066867E+03  0.31247077162E+03  0.00000000000E+00 0. -1.
          1    1    1    2  501    0  0.69436432639E+02 -0.84495788120E+02  0.10301963253E+04  0.10359852436E+04  0.00000000000E+00 0. -1.
<scales pt_clust_3="43.62780" pt_clust_4="182.92953" pt_clust_5="30.57172" pt_clust_6="43.62780"></scales>
<clustering>
<clus scale="   30.572">  4  5 -1 -1</clus>
<clus scale="   43.628">  3  6 -1 -1</clus>
<clus scale="  182.930">  2  4  1 -1</clus>
<clus scale="  182.930">  2  3  1 -1</clus>
</clustering>
</event>
<event>
 6    0  0.1361744E+002  0.1640412E+03  0.7546771E-02  0.1184208E+00
          1   -1    0    0  505    0 -0.00000000000E+00  0.00000000000E+00  0.23438405845E+04  0.23438405845E+04  0.00000000000E+00 0. -1.
         21   -1    0    0  504  502  0.00000000000E+00 -0.00000000000E+00 -0.65966281904E+02  0.65966281904E+02  0.00000000000E+00 0.  1.
         21    1    1    2  503  502  0.31776581391E+02  0.25775000517E+02  0.56739064964E+02  0.69953007581E+02  0.00000000000E+00 0. -1.
         21    1    1    2  504  501 -0.23282427514E+02 -0.31279843050E+02  0.27151926189E+03  0.27430495729E+03  0.00000000000E+00 0.  1.
         21    1    1    2  505  503  0.49372445058E+02  0.10522670604E+03  0.37749164696E+01  0.11629509013E+03  0.00000000000E+00 0.  1.
          1    1    1    2  501    0 -0.57866598935E+02 -0.99721863508E+02  0.19458410593E+04  0.19492538114E+04  0.00000000000E+00 0. -1.
<scales pt_clust_3="40.91579" pt_clust_4="35.75591" pt_clust_5="152.08326" pt_clust_6="35.75591"></scales>
<clustering>
<clus scale="   35.756">  4  6 -1 -1</clus>
<clus scale="   40.916">  2  3  1 -1</clus>
<clus scale="  152.083">  2  5  1 -1</clus>
<clus scale="   40.916">  2  3  1 -1</clus>
</clustering>
</event>
<event>
 6    0  0.1361744E+002  0.2231453E+03  0.7546771E-02  0.1131560E+00
         21   -1    0    0  503  502  0.00000000000E+00  0.00000000000E+00  0.27644013643E+03  0.27644013643E+03  0.00000000000E+00 0.  1.
          1   -1    0    0  504    0 -0.00000000000E+00 -0.00000000000E+00 -0.53372274134E+03  0.53372274134E+03  0.00000000000E+00 0.  1.
         21    1    1    2  503  501  0.44499358116E+02  0.26741534856E+02 -0.53781198681E+02  0.74751052774E+02  0.00000000000E+00 0. -1.
         21    1    1    2  504  505 -0.25647029459E+02 -0.23790018822E+03  0.11877178459E+03  0.26713480958E+03  0.00000000000E+00 0.  1.
         21    1    1    2  505  502 -0.85616981885E+02  0.60728790938E+02  0.16063283784E+01  0.10498015968E+03  0.00000000000E+00 0.  1.
          1    1    1    2  501    0  0.66764653228E+02  0.15042986243E+03 -0.32387951920E+03  0.36329685573E+03  0.00000000000E+00 0.  1.
<scales pt_clust_3="41.61102" pt_clust_4="210.48721" pt_clust_5="104.96787" pt_clust_6="41.61102"></scales>
<clustering>
<clus scale="   41.611">  3  6 -1 -1</clus>
<clus scale="  104.968">  1  5  2 -1</clus>
<clus scale="  210.487">  1  4  2 -1</clus>
<clus scale="  104.968">  1  3  2 -1</clus>
</clustering>
</event>
<event>
 6    0  0.1361744E+002  0.1017872E+03  0.7546771E-02  0.1276582E+00
          1   -1    0    0  503    0 -0.00000000000E+00  0.00000000000E+00  0.93870822938E+03  0.93870822938E+03  0.00000000000E+00 0. -1.
         21   -1    0    0  501  502  0.00000000000E+00 -0.00000000000E+00 -0.58681954914E+03  0.58681954914E+03  0.00000000000E+00 0.  1.
         21    1    1    2  503  505  0.28379886038E+02 -0.51103008813E+02  0.84036425804E+02  0.10236726187E+03  0.00000000000E+00 0. -1.
         21    1    1    2  504  502 -0.25013547687E+02  0.21859048864E+02 -0.23016816963E+03  0.23255296579E+03  0.00000000000E+00 0.  1.
         21    1    1    2  505  504 -0.77011310835E+02 -0.34176060052E+02 -0.33831270227E+03  0.34864628148E+03  0.00000000000E+00 0.  1.
          1    1    1    2  501    0  0.73644972485E+02  0.63420020001E+02  0.83633312634E+03  0.84196126937E+03  0.00000000000E+00 0. -1.
<scales pt_clust_3="57.64941" pt_clust_4="33.21890" pt_clust_5="14000.00000" pt_clust_6="101.78721"></scales>
<clustering>
<clus scale="   33.219">  2  4  1 -1</clus>
<clus scale="   57.649">  1  3  2 -1</clus>
<clus scale="  101.787">  1  6  2 -1</clus>
<clus scale="   33.219">  2  3  1 -1</clus>
</clustering>
</event>
<event>
 6    0  0.1361744E+002  0.1109865E+03  0.7546771E-02  0.1258754E+00
          4   -1    0    0  503    0 -0.00000000000E+00  0.00000000000E+00  0.10503747174E+04  0.10503747174E+04  0.00000000000E+00 0. -1.
         21   -1    0    0  505  502  0.00000000000E+00 -0.00000000000E+00 -0.65598159770E+02  0.65598159770E+02  0.00000000000E+00 0. -1.
         21    1    1    2  503  502  0.38414124958E+02 -0.31478249540E+02  0.84004936433E+02  0.97587676145E+02  0.00000000000E+00 0.  1.
         21    1    1    2  504  501  0.39391740365E+02  0.41686408863E+02  0.66978498473E+03  0.67223611303E+03  0.00000000000E+00 0. -1.
         21    1    1    2  505  504 -0.97377046014E+02 -0.50985469408E+02 -0.87111911670E+00  0.10992072612E+03  0.00000000000E+00 0. -1.
          4    1    1    2  501    0  0.19571180691E+02  0.40777310085E+02  0.23185775559E+03  0.23622836188E+03  0.00000000000E+00 0. -1.
<scales pt_clust_3="49.66412" pt_clust_4="40.41517" pt_clust_5="101.22655" pt_clust_6="40.41517"></scales>
<clustering>
<clus scale="   40.415">  4  6 -1 -1</clus>
<clus scale="   49.664">  2  3  1 -1</clus>
<clus scale="  101.227">  2  5  1 -1</clus>
<clus scale="   49.664">  2  3  1 -1</clus>
</clustering>
</event>
<event>
 6    0  0.1361744E+002  0.1107969E+03  0.7546771E-02  0.1259101E+00
         21   -1    0    0  505  502  0.00000000000E+00  0.00000000000E+00  0.37757916475E+02  0.37757916475E+02  0.00000000000E+00 0. -1.
          1   -1    0    0  503    0 -0.00000000000E+00 -0.00000000000E+00 -0.12747361895E+04  0.12747361895E+04  0.00000000000E+00 0.  1.
         21    1    1    2  503  504  0.32733604708E+02 -0.56259503523E+00 -0.11140860027E+03  0.11611925596E+03  0.00000000000E+00 0.  1.
         21    1    1    2  504  502 -0.72422291990E+01 -0.33075388536E+02 -0.11717641586E+03  0.12197025721E+03  0.00000000000E+00 0.  1.
         21    1    1    2  505  501  0.34523509235E+02  0.10778855683E+03 -0.74161471915E+02  0.13531507525E+03  0.00000000000E+00 0. -1.
          1    1    1    2  501    0 -0.60014884745E+02 -0.74150573263E+02 -0.93423178500E+03  0.93908951757E+03  0.00000000000E+00 0.  1.
<scales pt_clust_3="32.73844" pt_clust_4="33.35868" pt_clust_5="110.79694" pt_clust_6="14000.00000"></scales>
<clustering>
<clus scale="   32.738">  2  3  1 -1</clus>
<clus scale="   33.359">  2  4  1 -1</clus>
<clus scale="  110.797">  1  5  2 -1</clus>
<clus scale="  110.797">  1  3  2 -1</clus>
</clustering>
</event>
<event>
 6    0  0.1361744E+002  0.8459051E+02  0.7546771E-02  0.1316507E+00
         -4   -1    0    0    0  501 -0.00000000000E+00  0.00000000000E+00  0.13134117157E+04  0.13134117157E+04  0.00000000000E+00 0. -1.
         21   -1    0    0  504  502  0.00000000000E+00 -0.00000000000E+00 -0.25886477958E+02  0.25886477958E+02  0.00000000000E+00 0. -1.
         21    1    1    2  503  502 -0.84116588120E+02  0.48958892593E+01  0.24270112718E+03  0.25691128286E+03  0.00000000000E+00 0. -1.
         21    1    1    2  504  505  0.78124640602E+02 -0.38173951754E+02  0.10781558340E+03  0.13850960287E+03  0.00000000000E+00 0. -1.
         21    1    1    2  505  501  0.41398626951E+02  0.50138489310E+02  0.38278237269E+03  0.38826544949E+03  0.00000000000E+00 0. -1.
         -4    1    1    2    0  503 -0.35406679434E+02 -0.16860426815E+02  0.55422615450E+03  0.55561185847E+03  0.00000000000E+00 0. -1.
<scales pt_clust_3="84.59051" pt_clust_4="14000.00000" pt_clust_5="47.70351" pt_clust_6="39.21616"></scales>
<clustering>
<clus scale="   39.216">  1  6  2 -1</clus>
<clus scale="   47.704">  1  5  2 -1</clus>
<clus scale="   84.591">  1  3  2 -1</clus>
<clus scale="   84.591">  2  3  1 -1</clus>
</clustering>
</event>
<event>
 6    0  0.1361744E+002  0.1287755E+03  0.7546771E-02  0.1229284E+00
         21   -1    0    0  505  502  0.00000000000E+00  0.00000000000E+00  0.89855278917E+03  0.89855278917E+03  0.00000000000E+00 0.  1.
          2   -1    0    0  504    0 -0.00000000000E+00 -0.00000000000E+00 -0.60450355908E+03  0.60450355908E+03  0.00000000000E+00 0. -1.
         21    1    1    2  503  501  0.99992990273E+02 -0.76694531213E+02 -0.25668212001E+03  0.28594817704E+03  0.00000000000E+00 0. -1.
         21    1    1    2  504  502 -0.84207337532E+02  0.15040338085E+03  0.79183079817E+03  0.81037526221E+03  0.00000000000E+00 0.  1.
         21    1    1    2  505  503  0.80475919470E+01 -0.47185887286E+02  0.74812216448E+02  0.88815198164E+02  0.00000000000E+00 0. -1.
          2    1    1    2  501    0 -0.23833244688E+02 -0.26522962348E+02 -0.31591166452E+03  0.31791771084E+03  0.00000000000E+00 0. -1.
<scales pt_clust_3="128.77549" pt_clust_4="14000.00000" pt_clust_5="48.41099" pt_clust_6="35.65797"></scales>
<clustering>
<clus scale="   35.658">  2  6  1 -1</clus>
<clus scale="   48.411">  1  5  2 -1</clus>
<clus scale="  128.775">  2  3  1 -1</clus>
<clus scale="   48.411">  1  3  2 -1</clus>
</clustering>
</event>
<event>
 6    0  0.1361744E+002  0.1527776E+03  0.7546771E-02  0.1197101E+00
         21   -1    0    0  505  502  0.00000000000E+00  0.00000000000E+00  0.35377738636E+02  0.35377738636E+02  0.00000000000E+00 0.  1.
          2   -1    0    0  503    0 -0.00000000000E+00 -0.00000000000E+00 -0.15606673258E+04  0.15606673258E+04  0.00000000000E+00 0. -1.
         21    1    1    2  503  502  0.30232793075E+02  0.49692096316E+02 -0.39385405907E+03  0.39812604293E+03  0.00000000000E+00 0. -1.
         21    1    1    2  504  501  0.50667958012E+02 -0.59724909620E+02 -0.10182019080E+03  0.12845877958E+03  0.00000000000E+00 0. -1.
         21    1    1    2  505  504 -0.13754697997E+02 -0.78788700634E+02 -0.79248489153E+02  0.11259295758E+03  0.00000000000E+00 0.  1.
          2    1    1    2  501    0 -0.67146053090E+02  0.88821513938E+02 -0.95036684818E+03  0.95686728437E+03  0.00000000000E+00 0. -1.
<scales pt_clust_3="58.16637" pt_clust_4="68.55019" pt_clust_5="68.55019" pt_clust_6="136.27009"></scales>
<clustering>
<clus scale="   58.166">  2  3  1 -1</clus>
<clus scale="   68.550">  4  5 -1 -1</clus>
<clus scale="  136.270">  2  6  1 -1</clus>
<clus scale="  152.778">  1  3  2 -1</clus>
</clustering>
</event>
<event>
 6    0  0.1361744E+002  0.1393872E+03  0.7546771E-02  0.1214156E+00
         21   -1    0    0  504  502  0.00000000000E+00  0.00000000000E+00  0.10770190317E+02  0.10770190317E+02  0.00000000000E+00 0.  1.
          2   -1    0    0  503    0 -0.00000000000E+00 -0.00000000000E+00 -0.22763122091E+04  0.22763122091E+04  0.00000000000E+00 0. -1.
         21    1    1    2  503  505  0.61896976608E+02  0.45418486949E+02 -0.32987703207E+03  0.33869297447E+03  0.00000000000E+00 0.  1.
         21    1    1    2  504  501 -0.27963290265E+02 -0.41095069344E+02 -0.35222585779E+03  0.35571590522E+03  0.00000000000E+00 0.  1.
         21    1    1    2  505  502  0.16874315423E+02  0.53133804348E+02 -0.21577736502E+03  0.22286277154E+03  0.00000000000E+00 0.  1.
          2    1    1    2  501    0 -0.50808001766E+02 -0.57457221952E+02 -0.13676617639E+04  0.13698107482E+04  0.00000000000E+00 0. -1.
<scales pt_clust_3="132.68811" pt_clust_4="47.70317" pt_clust_5="35.01757" pt_clust_6="47.70317"></scales>
<clustering>
<clus scale="   35.018">  3  5 -1 -1</clus>
<clus scale="   47.703">  4  6 -1 -1</clus>
<clus scale="  132.688">  1  3  2 -1</clus>
<clus scale="  132.688">  1  3  2 -1</clus>
</clustering>
</event>
<event>
 6    0  0.1361744E+002  0.1837641E+03  0.7546771E-02  0.1164209E+00
         21   -1    0    0  501  502  0.00000000000E+00  0.00000000000E+00  0.99648061562E+02  0.99648061562E+02  0.00000000000E+00 0. -1.
          2   -1    0    0  505    0 -0.00000000000E+00 -0.00000000000E+00 -0.13580576630E+04  0.13580576630E+04  0.00000000000E+00 0. -1.
         21    1    1    2  503  502  0.11167450611E+03 -0.26022135206E+02 -0.67128674182E-01  0.11466626070E+03  0.00000000000E+00 0. -1.
         21    1    1    2  504  503  0.77409146106E+02  0.15275810181E+02 -0.16135401264E+02  0.80534945529E+02  0.00000000000E+00 0. -1.
         21    1    1    2  505  504 -0.93130728488E+02 -0.53592382756E+02 -0.50543929458E+03  0.51673431915E+03  0.00000000000E+00 0. -1.
          2    1    1    2  501    0 -0.95952923729E+02  0.64338707781E+02 -0.73676777689E+03  0.74577019916E+03  0.00000000000E+00 0. -1.
<scales pt_clust_3="36.84481" pt_clust_4="36.84481" pt_clust_5="107.44988" pt_clust_6="178.31532"></scales>
<clustering>
<clus scale="   36.845">  3  4 -1 -1</clus>
<clus scale="  107.450">  2  5  1 -1</clus>
<clus scale="  178.315">  2  6  1 -1</clus>
<clus scale="  183.764">  1  3  2 -1</clus>
</clustering>
</event>
<event>
 6    0  0.1361744E+002  0.1143497E+03  0.7546771E-02  0.1252720E+00
         21   -1    0    0  501  502  0.00000000000E+00  0.00000000000E+00  0.79407282533E+02  0.79407282533E+02  0.00000000000E+00 0. -1.
          2   -1    0    0  505    0 -0.00000000000E+00 -0.00000000000E+00 -0.19510676485E+04  0.19510676485E+04  0.00000000000E+00 0. -1.
         21    1    1    2  503  504 -0.55377810340E+02  0.20967959114E+02 -0.43450545948E+03  0.43852177996E+03  0.00000000000E+00 0. -1.
         21    1    1    2  504  502  0.10119594941E+03 -0.55440529997E+02  0.27929386964E+02  0.11871951482E+03  0.00000000000E+00 0. -1.
         21    1    1    2  505  503  0.31633703092E+02  0.35001245940E+01 -0.87198064033E+02  0.92824804954E+02  0.00000000000E+00 0. -1.
          2    1    1    2  501    0 -0.77451842164E+02  0.30972446289E+02 -0.13778862294E+04  0.13804088313E+04  0.00000000000E+00 0. -1.
<scales pt_clust_3="52.67574" pt_clust_4="14000.00000" pt_clust_5="31.82675" pt_clust_6="114.34973"></scales>
<clustering>
<clus scale="   31.827">  2  5  1 -1</clus>
<clus scale="   52.676">  2  3  1 -1</clus>
<clus scale="  114.350">  2  6  1 -1</clus>
<clus scale="  114.350">  1  3  2 -1</clus>
</clustering>
</event>
<event>
 6    0  0.1361744E+002  0.1145389E+03  0.7546771E-02  0.1252388E+00
         21   -1    0    0  505  502  0.00000000000E+00  0.00000000000E+00  0.16614611479E+04  0.16614611479E+04  0.00000000000E+00 0. -1.
         -4   -1    0    0    0  501 -0.00000000000E+00 -0.00000000000E+00 -0.19586129556E+03  0.19586129556E+03  0.00000000000E+00 0. -1.
         21    1    1    2  503  501  0.96649449475E+02 -0.46500039790E+02 -0.10422575481E+03  0.14955392924E+03  0.00000000000E+00 0.  1.
         21    1    1    2  504  502 -0.28739788787E+02 -0.54967452595E+02  0.14843041358E+04  0.14855995974E+04  0.00000000000E+00 0. -1.
         21    1    1    2  505  503  0.40066244034E+02  0.88900256499E+00  0.60394921493E+02  0.72482003136E+02  0.00000000000E+00 0.  1.
         -4    1    1    2    0  504 -0.10797590472E+03  0.10057848982E+03  0.25126549863E+02  0.14968691367E+03  0.00000000000E+00 0. -1.
<scales pt_clust_3="114.53890" pt_clust_4="54.81257" pt_clust_5="40.07611" pt_clust_6="14000.00000"></scales>
<clustering>
<clus scale="   40.076">  1  5  2 -1</clus>
<clus scale="   54.813">  1  4  2 -1</clus>
<clus scale="  114.539">  2  3  1 -1</clus>
<clus scale="   40.076">  1  3  2 -1</clus>
</clustering>
</event>
<event>
 6    0  0.1361744E+002  0.3083729E+03  0.7546771E-02  0.1081128E+00
         21   -1    0    0  505  502  0.00000000000E+00  0.00000000000E+00  0.41141024266E+03  0.41141024266E+03  0.00000000000E+00 0. -1.
          2   -1    0    0  504    0 -0.00000000000E+00 -0.00000000000E+00 -0.33807370588E+04  0.33807370588E+04  0.00000000000E+00 0. -1.
         21    1    1    2  503  502 -0.21823636617E+03  0.18790965855E+03  0.33276234388E+03  0.44007718505E+03  0.00000000000E+00 0. -1.
         21    1    1    2  504  503  0.74610194718E+02 -0.14623055679E+03 -0.77263114416E+03  0.78987906784E+03  0.00000000000E+00 0. -1.
         21    1    1    2  505  501 -0.32189536175E+02  0.12426754542E+01 -0.66410135274E+01  0.32890934042E+02  0.00000000000E+00 0. -1.
          2    1    1    2  501    0  0.17581570763E+03 -0.42921777210E+02 -0.25228170024E+04  0.25293001145E+04  0.00000000000E+00 0. -1.
<scales pt_clust_3="14000.00000" pt_clust_4="163.82512" pt_clust_5="32.21351" pt_clust_6="308.37288"></scales>
<clustering>
<clus scale="   32.214">  1  5  2 -1</clus>
<clus scale="  163.825">  2  4  1 -1</clus>
<clus scale="  308.373">  2  6  1 -1</clus>
<clus scale="   32.214">  1  3  2 -1</clus>
</clustering>
</event>
<event>
 6    0  0.1361744E+002  0.1167673E+03  0.7546771E-02  0.1248527E+00
         21   -1    0    0  505  502  0.00000000000E+00  0.00000000000E+00  0.34417902464E+02  0.34417902464E+02  0.00000000000E+00 0. -1.
          1   -1    0    0  504    0 -0.00000000000E+00 -0.00000000000E+00 -0.18893719927E+04  0.18893719927E+04  0.00000000000E+00 0. -1.
         21    1    1    2  503  501  0.13291476393E+02  0.56723346430E+02 -0.51554991036E+02  0.77795362816E+02  0.00000000000E+00 0. -1.
         21    1    1    2  504  502 -0.30782684640E+02 -0.14684918389E+02 -0.84233683237E+03  0.84302702190E+03  0.00000000000E+00 0. -1.
         21    1    1    2  505  503 -0.27657825007E+02  0.50887820574E+02 -0.28230483769E+02  0.64432024496E+02  0.00000000000E+00 0. -1.
          1    1    1    2  501    0  0.45149033254E+02 -0.92926248615E+02 -0.93283178304E+03  0.93853548592E+03  0.00000000000E+00 0. -1.
<scales pt_clust_3="45.15228" pt_clust_4="34.10602" pt_clust_5="45.15228" pt_clust_6="107.50931"></scales>
<clustering>
<clus scale="   34.106">  2  4  1 -1</clus>
<clus scale="   45.152">  3  5 -1 -1</clus>
<clus scale="  107.509">  2  6  1 -1</clus>
<clus scale="  116.767">  1  3  2 -1</clus>
</clustering>
</event>
<event>
 6    0  0.1361744E+002  0.3218949E+03  0.7546771E-02  0.1074781E+00
          2   -1    0    0  504    0 -0.00000000000E+00  0.00000000000E+00  0.30646262534E+04  0.30646262534E+04  0.00000000000E+00 0. -1.
         21   -1    0    0  505  502  0.00000000000E+00 -0.00000000000E+00 -0.76279048528E+02  0.76279048528E+02  0.00000000000E+00 0.  1.
         21    1    1    2  503  501  0.45364749839E+02 -0.56303516941E+02  0.48805014481E+03  0.49337712796E+03  0.00000000000E+00 0. -1.
         21    1    1    2  504  502 -0.27226075307E+03  0.93576979808E+02  0.32079500144E+03  0.43103596342E+03  0.00000000000E+00 0.  1.
         21    1    1    2  505  503  0.20132952216E+01  0.85006195129E+02  0.16335482206E+03  0.18415999690E+03  0.00000000000E+00 0.  1.
          2    1    1    2  501    0  0.22488270801E+03 -0.12227965800E+03  0.20161472366E+04  0.20323322137E+04  0.00000000000E+00 0. -1.
<scales pt_clust_3="30.42679" pt_clust_4="316.76301" pt_clust_5="85.03003" pt_clust_6="30.42679"></scales>
<clustering>
<clus scale="   30.427">  3  6 -1 -1</clus>
<clus scale="   85.030">  2  5  1 -1</clus>
<clus scale="  316.763">  2  4  1 -1</clus>
<clus scale="   85.030">  2  3  1 -1</clus>
</clustering>
</event>
<event>
 6    0  0.1361744E+002  0.1259964E+03  0.7546771E-02  0.1233520E+00
         21   -1    0    0  505  502  0.00000000000E+00  0.00000000000E+00  0.15096377032E+03  0.15096377032E+03  0.00000000000E+00 0.  1.
          2   -1    0    0  504    0 -0.00000000000E+00 -0.00000000000E+00 -0.28783581544E+04  0.28783581544E+04  0.00000000000E+00 0.  1.
         21    1    1    2  503  502  0.38638649150E+02 -0.19744390097E+01  0.10306358956E+03  0.11008608954E+03  0.00000000000E+00 0.  1.
         21    1    1    2  504  503  0.48657187102E+02  0.32943348221E+02  0.97031125995E+01  0.59556162089E+02  0.00000000000E+00 0.  1.
         21    1    1    2  505  501  0.10672848044E+01  0.63040466991E+02 -0.11245368480E+03  0.12892273190E+03  0.00000000000E+00 0.  1.
          2    1    1    2  501    0 -0.88363121056E+02 -0.94009376202E+02 -0.27277074014E+04  0.27307569412E+04  0.00000000000E+00 0.  1.
<scales pt_clust_3="38.68906" pt_clust_4="125.99636" pt_clust_5="63.21290" pt_clust_6="14000.00000"></scales>
<clustering>
<clus scale="   38.689">  1  3  2 -1</clus>
<clus scale="   63.213">  1  5  2 -1</clus>
<clus scale="  125.996">  1  4  2 -1</clus>
<clus scale="   38.689">  1  3  2 -1</clus>
</clustering>
</event>
<event>
 6    0  0.1361744E+002  0.1428161E+03  0.7546771E-02  0.1209589E+00
          2   -1    0    0  503    0 -0.00000000000E+00  0.00000000000E+00  0.15488981357E+04  0.15488981357E+04  0.00000000000E+00 0. -1.
         21   -1    0    0  505  502  0.00000000000E+00 -0.00000000000E+00 -0.26997647145E+03  0.26997647145E+03  0.00000000000E+00 0.  1.
         21    1    1    2  503  504 -0.19061131448E+02  0.72033913042E+02  0.10867325539E+03  0.13176527538E+03  0.00000000000E+00 0. -1.
         21    1    1    2  504  502 -0.15102674060E+03 -0.57339108750E+02 -0.13691737063E+03  0.21176216883E+03  0.00000000000E+00 0.  1.
         21    1    1    2  505  501  0.49404996239E+02 -0.44112978655E+02 -0.67799827036E+02  0.94781987135E+02  0.00000000000E+00 0.  1.
          2    1    1    2  501    0  0.12068287581E+03  0.29418174363E+02  0.13749656066E+04  0.13805651758E+04  0.00000000000E+00 0. -1.
<scales pt_clust_3="71.16528" pt_clust_4="14000.00000" pt_clust_5="66.23299" pt_clust_6="142.81607"></scales>
<clustering>
<clus scale="   66.233">  2  5  1 -1</clus>
<clus scale="   71.165">  1  3  2 -1</clus>
<clus scale="  142.816">  1  6  2 -1</clus>
<clus scale="   66.233">  2  3  1 -1</clus>
</clustering>
</event>
<event>
 6    0  0.1361744E+002  0.1096552E+03  0.7546771E-02  0.1261210E+00
         -1   -1    0    0    0  501 -0.00000000000E+00  0.00000000000E+00  0.22500259712E+03  0.22500259712E+03  0.00000000000E+00 0. -1.
         21   -1    0    0  505  502  0.00000000000E+00 -0.00000000000E+00 -0.20031546545E+03  0.20031546545E+03  0.00000000000E+00 0. -1.
         21    1    1    2  503  502 -0.39599262279E+02 -0.28450797669E+02 -0.28663411555E+02  0.56560946094E+02  0.00000000000E+00 0. -1.
         21    1    1    2  504  501 -0.24208380720E+01  0.10878812866E+03  0.53549201064E+01  0.10894674187E+03  0.00000000000E+00 0. -1.
         21    1    1    2  505  504 -0.38062316444E+02  0.75466710736E+01 -0.77662541018E+02  0.86816832785E+02  0.00000000000E+00 0. -1.
         -1    1    1    2    0  503  0.80082416795E+02 -0.87884002070E+02  0.12565816413E+03  0.17299354182E+03  0.00000000000E+00 0. -1.
<scales pt_clust_3="59.21630" pt_clust_4="14000.00000" pt_clust_5="38.80325" pt_clust_6="109.65520"></scales>
<clustering>
<clus scale="   38.803">  2  5  1 -1</clus>
<clus scale="   59.216">  2  3  1 -1</clus>
<clus scale="  109.655">  1  6  2 -1</clus>
<clus scale="   38.803">  2  3  1 -1</clus>
</clustering>
</event>
<event>
 6    0  0.1361744E+002  0.2169356E+03  0.7546771E-02  0.1136189E+00
         21   -1    0    0  501  502  0.00000000000E+00  0.00000000000E+00  0.80710168419E+02  0.80710168419E+02  0.00000000000E+00 0. -1.
         -1   -1    0    0    0  501 -0.00000000000E+00 -0.00000000000E+00 -0.57858969841E+03  0.57858969841E+03  0.00000000000E+00 0. -1.
         21    1    1    2  503  504 -0.13912431325E+02 -0.15182024848E+03 -0.21237574948E+03  0.26143144906E+03  0.00000000000E+00 0. -1.
         21    1    1    2  504  505 -0.30809711799E+02  0.93665822369E+02 -0.73114522759E+02  0.12275283320E+03  0.00000000000E+00 0. -1.
         21    1    1    2  505  502  0.12439545685E+01  0.10130605211E+03 -0.79480623327E+02  0.12876969015E+03  0.00000000000E+00 0. -1.
         -1    1    1    2    0  503  0.43478188556E+02 -0.43151626001E+02 -0.13290863443E+03  0.14634589442E+03  0.00000000000E+00 0. -1.
<scales pt_clust_3="57.30504" pt_clust_4="32.57249" pt_clust_5="199.94575" pt_clust_6="57.30504"></scales>
<clustering>
<clus scale="   32.572">  4  5 -1 -1</clus>
<clus scale="   57.305">  3  6 -1 -1</clus>
<clus scale="  199.946">  1  4  2 -1</clus>
<clus scale="  199.946">  1  3  2 -1</clus>
</clustering>
</event>
<event>
 6    0  0.1361744E+002  0.1118582E+03  0.7546771E-02  0.1257167E+00
          2   -1    0    0  505    0 -0.00000000000E+00  0.00000000000E+00  0.19526484617E+04  0.19526484617E+04  0.00000000000E+00 0. -1.
         21   -1    0    0  504  502  0.00000000000E+00 -0.00000000000E+00 -0.15401745250E+03  0.15401745250E+03  0.00000000000E+00 0. -1.
         21    1    1    2  503  502  0.25451987463E+02  0.37609078311E+02  0.28481390530E+02  0.53604440523E+02  0.00000000000E+00 0. -1.
         21    1    1    2  504  501  0.30403852615E+02  0.60186863252E+02 -0.12472338825E+03  0.14178425984E+03  0.00000000000E+00 0. -1.
         21    1    1    2  505  503  0.29860597053E+02  0.40414579137E+02  0.13748529764E+03  0.14638032836E+03  0.00000000000E+00 0.  1.
          2    1    1    2  501    0 -0.85716437132E+02 -0.13821052070E+03  0.17573877093E+04  0.17648968855E+04  0.00000000000E+00 0. -1.
<scales pt_clust_3="45.41196" pt_clust_4="14000.00000" pt_clust_5="51.67592" pt_clust_6="111.85824"></scales>
<clustering>
<clus scale="   45.412">  2  3  1 -1</clus>
<clus scale="   51.676">  1  5  2 -1</clus>
<clus scale="  111.858">  1  6  2 -1</clus>
<clus scale="   45.412">  2  3  1 -1</clus>
</clustering>
</event>
<event>
 6    0  0.1361744E+002  0.4796744E+03  0.7546771E-02  0.1019225E+00
         21   -1    0    0  501  502  0.00000000000E+00  0.00000000000E+00  0.22035602757E+03  0.22035602757E+03  0.00000000000E+00 0.  1.
          2   -1    0    0  504    0 -0.00000000000E+00 -0.00000000000E+00 -0.15000370884E+04  0.15000370884E+04  0.00000000000E+00 0. -1.
         21    1    1    2  503  505  0.77203532989E+02 -0.24387009727E+03 -0.69588490845E+02  0.26509539397E+03  0.00000000000E+00 0. -1.
         21    1    1    2  504  503  0.11444103481E+03 -0.11089534264E+03 -0.24555589794E+02  0.16123741643E+03  0.00000000000E+00 0.  1.
         21    1    1    2  505  502  0.34153117480E+02 -0.39383511294E+02 -0.55497612650E+02  0.76141193879E+02  0.00000000000E+00 0. -1.
          2    1    1    2  501    0 -0.22579768528E+03  0.39414895120E+03 -0.11300393675E+04  0.12179191117E+04  0.00000000000E+00 0. -1.
<scales pt_clust_3="75.24145" pt_clust_4="75.24145" pt_clust_5="40.78655" pt_clust_6="454.24442"></scales>
<clustering>
<clus scale="   40.787">  3  5 -1 -1</clus>
<clus scale="   75.241">  3  4 -1 -1</clus>
<clus scale="  454.244">  2  6  1 -1</clus>
<clus scale="  479.674">  1  3  2 -1</clus>
</clustering>
</event>
<event>
 6    0  0.1361744E+002  0.7283917E+02  0.7546771E-02  0.1350696E+00
         -3   -1    0    0    0  501 -0.00000000000E+00  0.00000000000E+00  0.40858070769E+04  0.40858070769E+04  0.00000000000E+00 0.  1.
         21   -1    0    0  503  502  0.00000000000E+00 -0.00000000000E+00 -0.20595808132E+03  0.20595808132E+03  0.00000000000E+00 0. -1.
         21    1    1    2  503  505 -0.25918235380E+02  0.90254787404E+02 -0.16724426624E+03  0.19180283148E+03  0.00000000000E+00 0. -1.
         21    1    1    2  504  502 -0.14612600696E+02 -0.30227191138E+02 -0.86844494504E+01  0.34678968345E+02  0.00000000000E+00 0.  1.
         21    1    1    2  505  501 -0.45222636619E+02 -0.35937019147E+02  0.19251629005E+03  0.20099521921E+03  0.00000000000E+00 0.  1.
         -3    1    1    2    0  504  0.85753472695E+02 -0.24090577118E+02  0.38632614212E+04  0.38642881391E+04  0.00000000000E+00 0.  1.
<scales pt_clust_3="72.83917" pt_clust_4="33.57397" pt_clust_5="58.45973" pt_clust_6="14000.00000"></scales>
<clustering>
<clus scale="   33.574">  2  4  1 -1</clus>
<clus scale="   58.460">  1  5  2 -1</clus>
<clus scale="   72.839">  2  3  1 -1</clus>
<clus scale="   33.574">  2  3  1 -1</clus>
</clustering>
</event>
<event>
 6    0  0.1361744E+002  0.1512657E+03  0.7546771E-02  0.1198926E+00
         21   -1    0    0  501  502  0.00000000000E+00  0.00000000000E+00  0.53920260327E+03  0.53920260327E+03  0.00000000000E+00 0.  1.
          2   -1    0    0  504    0 -0.00000000000E+00 -0.00000000000E+00 -0.44900615577E+03  0.44900615577E+03  0.00000000000E+00 0.  1.
         21    1    1    2  503  502 -0.70195159620E+02  0.12931183436E+03  0.41737501649E+03  0.44255035344E+03  0.00000000000E+00 0.  1.
         21    1    1    2  504  505  0.34056685455E+02  0.24319467522E+02 -0.82036566761E+01  0.42644979864E+02  0.00000000000E+00 0.  1.
         21    1    1    2  505  503  0.94331903807E+02 -0.24641165849E+03 -0.28490937214E+03  0.38831760693E+03  0.00000000000E+00 0.  1.
          2    1    1    2  501    0 -0.58193429641E+02  0.92780356606E+02 -0.34065540168E+02  0.11469581881E+03  0.00000000000E+00 0.  1.
<scales pt_clust_3="151.26569" pt_clust_4="41.84847" pt_clust_5="14000.00000" pt_clust_6="110.20469"></scales>
<clustering>
<clus scale="   41.848">  2  4  1 -1</clus>
<clus scale="  110.205">  2  6  1 -1</clus>
<clus scale="  151.266">  1  3  2 -1</clus>
<clus scale="  151.266">  1  3  2 -1</clus>
</clustering>
</event>
<event>
 6    0  0.1361744E+002  0.1359305E+03  0.7546771E-02  0.1218912E+00
          2   -1    0    0  503    0 -0.00000000000E+00  0.00000000000E+00  0.14120460108E+04  0.14120460108E+04  0.00000000000E+00 0.  1.
         21   -1    0    0  501  502  0.00000000000E+00 -0.00000000000E+00 -0.67615086058E+02  0.67615086058E+02  0.00000000000E+00 0. -1.
         21    1    1    2  503  504 -0.16506038888E+01 -0.49092206995E+02  0.29353507853E+03  0.29761655130E+03  0.00000000000E+00 0.  1.
         21    1    1    2  504  505 -0.40817960890E+02  0.43130087304E+02  0.60575246011E+01  0.59690903548E+02  0.00000000000E+00 0. -1.
         21    1    1    2  505  502 -0.75419209063E+02  0.19675990995E+02  0.75618387582E+01  0.78309534047E+02  0.00000000000E+00 0. -1.
          2    1    1    2  501    0  0.11788777384E+03 -0.13713871304E+02  0.10372764829E+04  0.10440441080E+04  0.00000000000E+00 0.  1.
<scales pt_clust_3="49.11995" pt_clust_4="32.69348" pt_clust_5="32.69348" pt_clust_6="130.66807"></scales>
<clustering>
<clus scale="   32.693">  4  5 -1 -1</clus>
<clus scale="   49.120">  1  3  2 -1</clus>
<clus scale="  130.668">  1  6  2 -1</clus>
<clus scale="  135.930">  2  3  1 -1</clus>
</clustering>
</event>
<event>
 6    0  0.1361744E+002  0.7098131E+02  0.7546771E-02  0.1356788E+00
         21   -1    0    0  503  502  0.00000000000E+00  0.00000000000E+00  0.27850474736E+03  0.27850474736E+03  0.00000000000E+00 0.  1.
          4   -1    0    0  505    0 -0.00000000000E+00 -0.00000000000E+00 -0.10594853002E+03  0.10594853002E+03  0.00000000000E+00 0.  1.
         21    1    1    2  503  504  0.23552046348E+02 -0.37292059708E+02  0.86797268382E+02  0.97360990150E+02  0.00000000000E+00 0.  1.
         21    1    1    2  504  501  0.57657085507E+02  0.16002067514E+02  0.16477861725E+02  0.62063883224E+02  0.00000000000E+00 0. -1.
         21    1    1    2  505  502 -0.17525094486E+02  0.68283201705E+02  0.11406455303E+03  0.13409118849E+03  0.00000000000E+00 0.  1.
          4    1    1    2  501    0 -0.63684037369E+02 -0.46993209510E+02 -0.44783465808E+02  0.90937215514E+02  0.00000000000E+00 0.  1.
<scales pt_clust_3="44.10665" pt_clust_4="14000.00000" pt_clust_5="43.50235" pt_clust_6="70.98131"></scales>
<clustering>
<clus scale="   44.107">  1  3  2 -1</clus>
<clus scale="   43.502">  1  5  2 -1</clus>
<clus scale="   70.981">  2  6  1 -1</clus>
<clus scale="   44.107">  1  3  2 -1</clus>
</clustering>
</event>
<event>
 6    0  0.1361744E+002  0.9140950E+02  0.7546771E-02  0.1299474E+00
         21   -1    0    0  505  502  0.00000000000E+00  0.00000000000E+00  0.19518165613E+04  0.19518165613E+04  0.00000000000E+00 0. -1.
          1   -1    0    0  503    0 -0.00000000000E+00 -0.00000000000E+00 -0.13731858941E+04  0.13731858941E+04  0.00000000000E+00 0. -1.
         21    1    1    2  503  504  0.48469858794E+02  0.49635653559E+02 -0.23593988209E+03  0.24592814657E+03  0.00000000000E+00 0. -1.
         21    1    1    2  504  502 -0.52215039733E+02  0.49925154806E+02  0.18121954898E+04  0.18136348653E+04  0.00000000000E+00 0. -1.
         21    1    1    2  505  501 -0.34050316208E+02 -0.19086905184E+02  0.12927392004E+03  0.13503881066E+03  0.00000000000E+00 0. -1.
          1    1    1    2  501    0  0.37795497147E+02 -0.80473903181E+02 -0.11268988605E+04  0.11304006328E+04  0.00000000000E+00 0. -1.
<scales pt_clust_3="69.27321" pt_clust_4="91.40950" pt_clust_5="39.03504" pt_clust_6="14000.00000"></scales>
<clustering>
<clus scale="   39.035">  1  5  2 -1</clus>
<clus scale="   69.273">  2  3  1 -1</clus>
<clus scale="   91.410">  1  4  2 -1</clus>
<clus scale="   39.035">  1  3  2 -1</clus>
</clustering>
</event>
<event>
 6    0  0.1361744E+002  0.2952527E+03  0.7546771E-02  0.1087638E+00
         21   -1    0    0  501  502  0.00000000000E+00  0.00000000000E+00  0.12400700925E+04  0.12400700925E+04  0.00000000000E+00 0.  1.
         -3   -1    0    0    0  501 -0.00000000000E+00 -0.00000000000E+00 -0.18117195112E+03  0.18117195112E+03  0.00000000000E+00 0.  1.
         21    1    1    2  503  505  0.25215660225E+03 -0.19573827321E+01  0.66296355819E+03  0.70930068581E+03  0.00000000000E+00 0.  1.
         21    1    1    2  504  503 -0.38072187311E+02  0.17580203271E+02 -0.27998123541E+02  0.50422712298E+02  0.00000000000E+00 0.  1.
         21    1    1    2  505  502  0.34863008814E+02  0.12140787955E+02  0.40891506691E+03  0.41057808035E+03  0.00000000000E+00 0.  1.
         -3    1    1    2    0  504 -0.24894742375E+03 -0.27763608494E+02  0.15017639849E+02  0.25094056519E+03  0.00000000000E+00 0.  1.
<scales pt_clust_3="281.08143" pt_clust_4="37.25024" pt_clust_5="36.91650" pt_clust_6="37.25024"></scales>
<clustering>
<clus scale="   36.917">  1  5  2 -1</clus>
<clus scale="   37.250">  4  6 -1 -1</clus>
<clus scale="  281.081">  1  3  2 -1</clus>
<clus scale="   36.917">  1  3  2 -1</clus>
</clustering>
</event>
<event>
 6    0  0.1361744E+002  0.1202963E+03  0.7546771E-02  0.1242609E+00
         21   -1    0    0  505  502  0.00000000000E+00  0.00000000000E+00  0.31182630061E+02  0.31182630061E+02  0.00000000000E+00 0.  1.
          2   -1    0    0  503    0 -0.00000000000E+00 -0.00000000000E+00 -0.21167720963E+04  0.21167720963E+04  0.00000000000E+00 0.  1.
         21    1    1    2  503  502  0.11448639074E+03  0.41716240253E+02 -0.12828858454E+03  0.17693314921E+03  0.00000000000E+00 0.  1.
         21    1    1    2  504  501 -0.75556290875E+02 -0.30814951780E+02 -0.69515271120E+03  0.69992542905E+03  0.00000000000E+00 0. -1.
         21    1    1    2  505  504  0.21025543630E+02 -0.22802956992E+02 -0.61366510255E+02  0.68759704140E+02  0.00000000000E+00 0.  1.
          2    1    1    2  501    0 -0.59955643496E+02  0.11901668519E+02 -0.12007816602E+04  0.12023364440E+04  0.00000000000E+00 0.  1.
<scales pt_clust_3="120.29635" pt_clust_4="14000.00000" pt_clust_5="31.01690" pt_clust_6="60.41887"></scales>
<clustering>
<clus scale="   31.017">  1  5  2 -1</clus>
<clus scale="   60.419">  2  6  1 -1</clus>
<clus scale="  120.296">  1  3  2 -1</clus>
<clus scale="   31.017">  1  3  2 -1</clus>
</clustering>
</event>
<event>
 6    0  0.1361744E+002  0.1403933E+03  0.7546771E-02  0.1212801E+00
         -1   -1    0    0    0  501 -0.00000000000E+00  0.00000000000E+00  0.67353772663E+03  0.67353772663E+03  0.00000000000E+00 0.  1.
         21   -1    0    0  505  502  0.00000000000E+00 -0.00000000000E+00 -0.69289898150E+03  0.69289898150E+03  0.00000000000E+00 0. -1.
         21    1    1    2  503  504 -0.21079257657E+02 -0.55199784750E+02  0.36908433084E+03  0.37378415511E+03  0.00000000000E+00 0.  1.
         21    1    1    2  504  502 -0.20853739513E+01  0.12704622954E+03 -0.66767325282E+03  0.67965628501E+03  0.00000000000E+00 0. -1.
         21    1    1    2  505  501 -0.13161884784E+02 -0.28034254911E+02  0.31690158074E+01  0.31131934098E+02  0.00000000000E+00 0.  1.
         -1    1    1    2    0  503  0.36326516392E+02 -0.43812189874E+02  0.27605865131E+03  0.28186433392E+03  0.00000000000E+00 0.  1.
<scales pt_clust_3="54.92216" pt_clust_4="126.80951" pt_clust_5="30.97022" pt_clust_6="54.92216"></scales>
<clustering>
<clus scale="   30.970">  1  5  2 -1</clus>
<clus scale="   54.922">  3  6 -1 -1</clus>
<clus scale="  126.810">  2  4  1 -1</clus>
<clus scale="  126.810">  2  3  1 -1</clus>
</clustering>
</event>
<event>
 6    0  0.1361744E+002  0.1327518E+03  0.7546771E-02  0.1223429E+00
          2   -1    0    0  503    0 -0.00000000000E+00  0.00000000000E+00  0.36320299055E+04  0.36320299055E+04  0.00000000000E+00 0. -1.
         21   -1    0    0  504  502  0.00000000000E+00 -0.00000000000E+00 -0.17822698530E+02  0.17822698530E+02  0.00000000000E+00 0.  1.
         21    1    1    2  503  505 -0.11066050409E+02 -0.40582420106E+02  0.69899257262E+03  0.70025710055E+03  0.00000000000E+00 0. -1.
         21    1    1    2  504  501 -0.58539047712E+02  0.12929523892E+03  0.31474387116E+03  0.34526480178E+03  0.00000000000E+00 0.  1.
         21    1    1    2  505  502  0.30943301269E+02 -0.29815734250E+02  0.33239994028E+03  0.33516590847E+03  0.00000000000E+00 0. -1.
          2    1    1    2  501    0  0.38661796852E+02 -0.58897084561E+02  0.22680708230E+04  0.22691647933E+04  0.00000000000E+00 0. -1.
<scales pt_clust_3="42.06412" pt_clust_4="132.75180" pt_clust_5="45.46312" pt_clust_6="14000.00000"></scales>
<clustering>
<clus scale="   42.064">  1  3  2 -1</clus>
<clus scale="   45.463">  1  5  2 -1</clus>
<clus scale="  132.752">  2  4  1 -1</clus>
<clus scale="  132.752">  2  3  1 -1</clus>
</clustering>
</event>
<event>
 6    0  0.1361744E+002  0.1026342E+03  0.7546771E-02  0.1274852E+00
         21   -1    0    0  501  502  0.00000000000E+00  0.00000000000E+00  0.44308193612E+03  0.44308193612E+03  0.00000000000E+00 0.  1.
          2   -1    0    0  504    0 -0.00000000000E+00 -0.00000000000E+00 -0.55765959839E+04  0.55765959839E+04  0.00000000000E+00 0.  1.
         21    1    1    2  503  505 -0.27501686641E+02 -0.53094512038E+02  0.24351501282E+03  0.25074874167E+03  0.00000000000E+00 0.  1.
         21    1    1    2  504  503 -0.42876644558E+02 -0.26651333305E+02 -0.25878317888E+03  0.26366158971E+03  0.00000000000E+00 0. -1.
         21    1    1    2  505  502  0.14281410573E+02 -0.40252280596E+02  0.19031782941E+03  0.19505148288E+03  0.00000000000E+00 0.  1.
          2    1    1    2  501    0  0.56096920625E+02  0.11999812594E+03 -0.53085637111E+04  0.53102161057E+04  0.00000000000E+00 0.  1.
<scales pt_clust_3="34.21071" pt_clust_4="50.48465" pt_clust_5="34.21071" pt_clust_6="94.31479"></scales>
<clustering>
<clus scale="   34.211">  3  5 -1 -1</clus>
<clus scale="   50.485">  2  4  1 -1</clus>
<clus scale="   94.315">  2  6  1 -1</clus>
<clus scale="  102.634">  1  3  2 -1</clus>
</clustering>
</event>
<event>
 6    0  0.1361744E+002  0.2067378E+03  0.7546771E-02  0.1144176E+00
          2   -1    0    0  505    0 -0.00000000000E+00  0.00000000000E+00  0.13198217601E+03  0.13198217601E+03  0.00000000000E+00 0.  1.
         21   -1    0    0  503  502  0.00000000000E+00 -0.00000000000E+00 -0.51440361589E+03  0.51440361589E+03  0.00000000000E+00 0. -1.
         21    1    1    2  503  504 -0.64209948613E+00 -0.95480844592E+02 -0.83878295935E+02  0.12709277125E+03  0.00000000000E+00 0. -1.
         21    1    1    2  504  501  0.54785455302E+02 -0.11289524853E+03 -0.54711563642E+02  0.13689462535E+03  0.00000000000E+00 0. -1.
         21    1    1    2  505  502 -0.96155229535E+02  0.22362903628E+02 -0.11834974785E+03  0.15411875435E+03  0.00000000000E+00 0.  1.
          2    1    1    2  501    0  0.42011873720E+02  0.18601318949E+03 -0.12548183245E+03  0.22827964095E+03  0.00000000000E+00 0.  1.
<scales pt_clust_3="56.05898" pt_clust_4="56.05898" pt_clust_5="98.72146" pt_clust_6="196.49530"></scales>
<clustering>
<clus scale="   56.059">  3  4 -1 -1</clus>
<clus scale="   98.721">  2  5  1 -1</clus>
<clus scale="  196.495">  1  6  2 -1</clus>
<clus scale="   98.721">  2  3  1 -1</clus>
</clustering>
</event>
<event>
 6    0  0.1361744E+002  0.1344086E+03  0.7546771E-02  0.1221057E+00
         21   -1    0    0  501  502  0.00000000000E+00  0.00000000000E+00  0.26879439100E+02  0.26879439100E+02  0.00000000000E+00 0.  1.
          2   -1    0    0  505    0 -0.00000000000E+00 -0.00000000000E+00 -0.22246409959E+04  0.22246409959E+04  0.00000000000E+00 0. -1.
         21    1    1    2  503  504  0.61925602511E+02 -0.33540905568E+02 -0.99031952899E+02  0.12151995839E+03  0.00000000000E+00 0.  1.
         21    1    1    2  504  502  0.38964048506E+02 -0.54760552732E+02 -0.79156135876E+02  0.10383934254E+03  0.00000000000E+00 0.  1.
         21    1    1    2  505  503 -0.39230134856E+02  0.10871237195E+02 -0.21160349533E+03  0.21548370360E+03  0.00000000000E+00 0. -1.
          2    1    1    2  501    0 -0.61659516161E+02  0.77430221105E+02 -0.18079699727E+04  0.18106774305E+04  0.00000000000E+00 0. -1.
<scales pt_clust_3="31.80444" pt_clust_4="31.80444" pt_clust_5="40.70857" pt_clust_6="130.40602"></scales>
<clustering>
<clus scale="   31.804">  3  4 -1 -1</clus>
<clus scale="   40.709">  2  5  1 -1</clus>
<clus scale="  130.406">  2  6  1 -1</clus>
<clus scale="  134.409">  1  3  2 -1</clus>
</clustering>
</event>
<event>
 6    0  0.1361744E+002  0.1684704E+03  0.7546771E-02  0.1179452E+00
         21   -1    0    0  503  502  0.00000000000E+00  0.00000000000E+00  0.14086009490E+03  0.14086009490E+03  0.00000000000E+00 0.  1.
          2   -1    0    0  505    0 -0.00000000000E+00 -0.00000000000E+00 -0.20361256639E+04  0.20361256639E+04  0.00000000000E+00 0.  1.
         21    1    1    2  503  504 -0.71390977392E+02  0.18618667966E+02 -0.88612472497E+02  0.11530610015E+03  0.00000000000E+00 0.  1.
         21    1    1    2  504  501  0.82029069425E+02 -0.10652673152E+02 -0.11788622281E+04  0.11817607205E+04  0.00000000000E+00 0.  1.
         21    1    1    2  505  502 -0.93646289342E+02 -0.37072560768E+01  0.10596892493E+03  0.14146654836E+03  0.00000000000E+00 0.  1.
          2    1    1    2  501    0  0.83008197309E+02 -0.42587387365E+01 -0.73375979331E+03  0.73845238977E+03  0.00000000000E+00 0.  1.
<scales pt_clust_3="73.77890" pt_clust_4="40.34700" pt_clust_5="163.54367" pt_clust_6="40.34700"></scales>
<clustering>
<clus scale="   40.347">  4  6 -1 -1</clus>
<clus scale="   73.779">  1  3  2 -1</clus>
<clus scale="  163.544">  1  5  2 -1</clus>
<clus scale="   73.779">  1  3  2 -1</clus>
</clustering>
</event>
<event>
 6    0  0.1361744E+002  0.1599755E+03  0.7546771E-02  0.1188724E+00
         21   -1    0    0  501  502  0.00000000000E+00  0.00000000000E+00  0.16293275881E+02  0.16293275881E+02  0.00000000000E+00 0. -1.
          2   -1    0    0  504    0 -0.00000000000E+00 -0.00000000000E+00 -0.51110716177E+04  0.51110716177E+04  0.00000000000E+00 0. -1.
         21    1    1    2  503  502 -0.48635685792E+02  0.25128553031E+02 -0.11913713319E+03  0.13111266382E+03  0.00000000000E+00 0. -1.
         21    1    1    2  504  505  0.54231145373E+02  0.28238421011E+02 -0.11451772641E+04  0.11468083501E+04  0.00000000000E+00 0. -1.
         21    1    1    2  505  503 -0.38829480468E+02  0.96012807925E+02 -0.33528219088E+03  0.35091357249E+03  0.00000000000E+00 0. -1.
          2    1    1    2  501    0  0.33234020886E+02 -0.14937978197E+03 -0.34951817536E+04  0.34985303072E+04  0.00000000000E+00 0. -1.
<scales pt_clust_3="43.17751" pt_clust_4="61.14267" pt_clust_5="43.17751" pt_clust_6="148.54352"></scales>
<clustering>
<clus scale="   43.178">  3  5 -1 -1</clus>
<clus scale="   61.143">  2  4  1 -1</clus>
<clus scale="  148.544">  2  6  1 -1</clus>
<clus scale="  159.976">  1  3  2 -1</clus>
</clustering>
</event>
<event>
 6    0  0.1361744E+002  0.7942999E+02  0.7546771E-02  0.1330677E+00
         21   -1    0    0  503  502  0.00000000000E+00  0.00000000000E+00  0.32136528981E+03  0.32136528981E+03  0.00000000000E+00 0.  1.
          2   -1    0    0  505    0 -0.00000000000E+00 -0.00000000000E+00 -0.94781803500E+02  0.94781803500E+02  0.00000000000E+00 0.  1.
         21    1    1    2  503  501 -0.72300999093E+02 -0.16838642811E+02  0.76366127929E+02  0.10650239367E+03  0.00000000000E+00 0.  1.
         21    1    1    2  504  502 -0.41424483003E+02  0.18931916246E+02  0.16608201178E+03  0.17221393637E+03  0.00000000000E+00 0.  1.
         21    1    1    2  505  504  0.55063265361E+02 -0.38728613681E+02 -0.63683223944E+01  0.67619703046E+02  0.00000000000E+00 0. -1.
          2    1    1    2  501    0  0.58662216735E+02  0.36635340246E+02 -0.94963310025E+01  0.69811060225E+02  0.00000000000E+00 0.  1.
<scales pt_clust_3="14000.00000" pt_clust_4="45.54564" pt_clust_5="58.33485" pt_clust_6="79.42999"></scales>
<clustering>
<clus scale="   45.546">  1  4  2 -1</clus>
<clus scale="   58.335">  2  5  1 -1</clus>
<clus scale="   79.430">  2  6  1 -1</clus>
<clus scale="   45.546">  1  3  2 -1</clus>
</clustering>
</event>
<event>
 6    0  0.1361744E+002  0.2040704E+03  0.7546771E-02  0.1146350E+00
         21   -1    0    0  505  502  0.00000000000E+00  0.00000000000E+00  0.24871885896E+03  0.24871885896E+03  0.00000000000E+00 0. -1.
         -1   -1    0    0    0  501 -0.00000000000E+00 -0.00000000000E+00 -0.43834437484E+03  0.43834437484E+03  0.00000000000E+00 0.  1.
         21    1    1    2  503  501  0.15488712684E+03  0.15493293234E+02  0.12018833362E+03  0.19666036645E+03  0.00000000000E+00 0. -1.
         21    1    1    2  504  502 -0.11701781436E+03 -0.38191347458E+02 -0.15802583882E+03  0.20030954454E+03  0.00000000000E+00 0. -1.
         21    1    1    2  505  503  0.29038877431E+02  0.33825249336E+02  0.55963808790E+02  0.71549645627E+02  0.00000000000E+00 0. -1.
         -1    1    1    2    0  504 -0.66908189912E+02 -0.11127195112E+02 -0.20775181946E+03  0.21854367719E+03  0.00000000000E+00 0.  1.
<scales pt_clust_3="202.25487" pt_clust_4="54.46578" pt_clust_5="36.47705" pt_clust_6="54.46578"></scales>
<clustering>
<clus scale="   36.477">  3  5 -1 -1</clus>
<clus scale="   54.466">  4  6 -1 -1</clus>
<clus scale="  202.255">  1  3  2 -1</clus>
<clus scale="  202.255">  1  3  2 -1</clus>
</clustering>
</event>
<event>
 6    0  0.1361744E+002  0.1024765E+03  0.7546771E-02  0.1275173E+00
          1   -1    0    0  504    0 -0.00000000000E+00  0.00000000000E+00  0.44694066387E+03  0.44694066387E+03  0.00000000000E+00 0. -1.
         21   -1    0    0  503  502  0.00000000000E+00 -0.00000000000E+00 -0.32156928823E+03  0.32156928823E+03  0.00000000000E+00 0. -1.
         21    1    1    2  503  501 -0.31804577548E+02  0.43196215412E+01 -0.70292541486E+02  0.77273745035E+02  0.00000000000E+00 0. -1.
         21    1    1    2  504  505 -0.56534815083E+01  0.10140506906E+03  0.14053912722E+03  0.17339606733E+03  0.00000000000E+00 0. -1.
         21    1    1    2  505  502 -0.24976832883E+02 -0.93076357340E+02 -0.21748842994E+03  0.23788288639E+03  0.00000000000E+00 0. -1.
          1    1    1    2  501    0  0.62434891939E+02 -0.12648333265E+02  0.27261321986E+03  0.27995725336E+03  0.00000000000E+00 0. -1.
<scales pt_clust_3="32.09658" pt_clust_4="102.47646" pt_clust_5="14000.00000" pt_clust_6="63.22855"></scales>
<clustering>
<clus scale="   32.097">  2  3  1 -1</clus>
<clus scale="   63.229">  1  6  2 -1</clus>
<clus scale="  102.476">  1  4  2 -1</clus>
<clus scale="   32.097">  2  3  1 -1</clus>
</clustering>
</event>
<event>
 6    0  0.1361744E+002  0.1355466E+03  0.7546771E-02  0.1219450E+00
          2   -1    0    0  504    0 -0.00000000000E+00  0.00000000000E+00  0.22775595752E+04  0.22775595752E+04  0.00000000000E+00 0.  1.
         21   -1    0    0  503  502  0.00000000000E+00 -0.00000000000E+00 -0.28426119490E+02  0.28426119490E+02  0.00000000000E+00 0. -1.
         21    1    1    2  503  505 -0.78309290107E+02  0.44389687899E+02  0.75580941815E+02  0.11753836852E+03  0.00000000000E+00 0. -1.
         21    1    1    2  504  502  0.64717634297E+02 -0.94995432685E+01  0.69688692303E+03  0.69994999607E+03  0.00000000000E+00 0.  1.
         21    1    1    2  505  501 -0.23386022892E+02  0.36521280053E+02  0.94293277792E+02  0.10378791934E+03  0.00000000000E+00 0.  1.
          2    1    1    2  501    0  0.36977678702E+02 -0.71411424684E+02  0.13823723131E+04  0.13847094108E+04  0.00000000000E+00 0.  1.
<scales pt_clust_3="39.50612" pt_clust_4="65.41111" pt_clust_5="39.50612" pt_clust_6="123.01759"></scales>
<clustering>
<clus scale="   39.506">  3  5 -1 -1</clus>
<clus scale="   65.411">  1  4  2 -1</clus>
<clus scale="  123.018">  1  6  2 -1</clus>
<clus scale="  135.547">  2  3  1 -1</clus>
</clustering>
</event>
<event>
 6    0  0.1361744E+002  0.7922692E+02  0.7546771E-02  0.1331260E+00
          1   -1    0    0  504    0 -0.00000000000E+00  0.00000000000E+00  0.39406908986E+03  0.39406908986E+03  0.00000000000E+00 0. -1.
         21   -1    0    0  505  502  0.00000000000E+00 -0.00000000000E+00 -0.11743810612E+04  0.11743810612E+04  0.00000000000E+00 0. -1.
         21    1    1    2  503  502  0.86755688736E+01 -0.64768133142E+02 -0.99032931956E+03  0.99248291559E+03  0.00000000000E+00 0. -1.
         21    1    1    2  504  503  0.71854449347E+02  0.84577362777E+02  0.66575927898E+02  0.12941694773E+03  0.00000000000E+00 0.  1.
         21    1    1    2  505  501 -0.43921407725E+02 -0.53883306804E+01 -0.14696917454E+03  0.15348635910E+03  0.00000000000E+00 0. -1.
          1    1    1    2  501    0 -0.36608610496E+02 -0.14420898955E+02  0.29041059484E+03  0.29306392866E+03  0.00000000000E+00 0. -1.
<scales pt_clust_3="14000.00000" pt_clust_4="79.22692" pt_clust_5="45.46476" pt_clust_6="39.34657"></scales>
<clustering>
<clus scale="   39.347">  1  6  2 -1</clus>
<clus scale="   45.465">  2  5  1 -1</clus>
<clus scale="   79.227">  1  4  2 -1</clus>
<clus scale="   45.465">  2  3  1 -1</clus>
</clustering>
</event>
<event>
 6    0  0.1361744E+002  0.7188341E+02  0.7546771E-02  0.1353803E+00
          1   -1    0    0  503    0 -0.00000000000E+00  0.00000000000E+00  0.27137202941E+03  0.27137202941E+03  0.00000000000E+00 0.  1.
         21   -1    0    0  505  502  0.00000000000E+00 -0.00000000000E+00 -0.13314736204E+04  0.13314736204E+04  0.00000000000E+00 0.  1.
         21    1    1    2  503  502  0.33175828434E+02  0.18737701443E+01 -0.37215091670E+01  0.33436450729E+02  0.00000000000E+00 0.  1.
         21    1    1    2  504  501  0.97535443318E+02  0.30441216767E+02 -0.25764687451E+03  0.27716735437E+03  0.00000000000E+00 0.  1.
         21    1    1    2  505  504 -0.68060293968E+02 -0.81723495144E+01 -0.10397706430E+04  0.10420278216E+04  0.00000000000E+00 0.  1.
          1    1    1    2  501    0 -0.62650977784E+02 -0.24142637397E+02  0.24103743570E+03  0.25021402312E+03  0.00000000000E+00 0.  1.
<scales pt_clust_3="33.22870" pt_clust_4="14000.00000" pt_clust_5="71.88341" pt_clust_6="38.12136"></scales>
<clustering>
<clus scale="   33.229">  1  3  2 -1</clus>
<clus scale="   38.121">  1  6  2 -1</clus>
<clus scale="   71.883">  2  5  1 -1</clus>
<clus scale="   71.883">  2  3  1 -1</clus>
</clustering>
</event>
<event>
 6    0  0.1361744E+002  0.1273648E+03  0.7546771E-02  0.1231419E+00
         21   -1    0    0  505  502  0.00000000000E+00  0.00000000000E+00  0.47893266962E+03  0.47893266962E+03  0.00000000000E+00 0.  1.
          2   -1    0    0  504    0 -0.00000000000E+00 -0.00000000000E+00 -0.13668667844E+04  0.13668667844E+04  0.00000000000E+00 0. -1.
         21    1    1    2  503  501 -0.43798310454E+02  0.63959209123E+02  0.21811849790E+03  0.23148380409E+03  0.00000000000E+00 0.  1.
         21    1    1    2  504  502  0.29084353664E+02  0.45150439844E+02 -0.78603417621E+02  0.95199575145E+02  0.00000000000E+00 0.  1.
         21    1    1    2  505  503 -0.34260052787E+02  0.27515756323E+02  0.23969373910E+03  0.24368823654E+03  0.00000000000E+00 0.  1.
          2    1    1    2  501    0  0.48974009576E+02 -0.13662540529E+03 -0.12671429341E+04  0.12754278382E+04  0.00000000000E+00 0. -1.
<scales pt_clust_3="31.36656" pt_clust_4="53.70719" pt_clust_5="31.36656" pt_clust_6="120.35836"></scales>
<clustering>
<clus scale="   31.367">  3  5 -1 -1</clus>
<clus scale="   53.707">  2  4  1 -1</clus>
<clus scale="  120.358">  2  6  1 -1</clus>
<clus scale="  127.365">  1  3  2 -1</clus>
</clustering>
</event>
<event>
 6    0  0.1361744E+002  0.7646338E+02  0.7546771E-02  0.1339398E+00
         21   -1    0    0  505  502  0.00000000000E+00  0.00000000000E+00  0.62258714645E+02  0.62258714645E+02  0.00000000000E+00 0.  1.
          2   -1    0    0  503    0 -0.00000000000E+00 -0.00000000000E+00 -0.11773083567E+04  0.11773083567E+04  0.00000000000E+00 0. -1.
         21    1    1    2  503  504  0.14648999376E+02  0.28772631622E+02 -0.14128148921E+03  0.14492383071E+03  0.00000000000E+00 0.  1.
         21    1    1    2  504  502  0.84566714489E+02  0.12328329015E+02 -0.35542593403E+01  0.85534493950E+02  0.00000000000E+00 0.  1.
         21    1    1    2  505  501 -0.23901167633E+02  0.30916511544E+02 -0.63049082803E+01  0.39583435534E+02  0.00000000000E+00 0.  1.
          2    1    1    2  501    0 -0.75314546232E+02 -0.72017472181E+02 -0.96390898523E+03  0.96952531116E+03  0.00000000000E+00 0. -1.
<scales pt_clust_3="32.28711" pt_clust_4="14000.00000" pt_clust_5="39.38964" pt_clust_6="76.46338"></scales>
<clustering>
<clus scale="   32.287">  2  3  1 -1</clus>
<clus scale="   39.390">  1  5  2 -1</clus>
<clus scale="   76.463">  2  6  1 -1</clus>
<clus scale="   39.390">  1  3  2 -1</clus>
</clustering>
</event>
<event>
 6    0  0.1361744E+002  0.1526446E+03  0.7546771E-02  0.1197260E+00
          2   -1    0    0  505    0 -0.00000000000E+00  0.00000000000E+00  0.38215743929E+03  0.38215743929E+03  0.00000000000E+00 0.  1.
         21   -1    0    0  501  502  0.00000000000E+00 -0.00000000000E+00 -0.21426817722E+03  0.21426817722E+03  0.00000000000E+00 0.  1.
         21    1    1    2  503  504 -0.23826290442E+02 -0.60073836230E+02 -0.64418511830E+02  0.91248575781E+02  0.00000000000E+00 0.  1.
         21    1    1    2  504  502 -0.42501420101E+02  0.81427941027E+01 -0.54659952211E+02  0.69716469948E+02  0.00000000000E+00 0.  1.
         21    1    1    2  505  503 -0.85602168705E+02  0.12493057642E+03  0.18250722564E+03  0.23715873929E+03  0.00000000000E+00 0.  1.
          2    1    1    2  501    0  0.15192987925E+03 -0.72999534294E+02  0.10446050047E+03  0.19830183149E+03  0.00000000000E+00 0.  1.
<scales pt_clust_3="72.13115" pt_clust_4="43.27442" pt_clust_5="14000.00000" pt_clust_6="152.64462"></scales>
<clustering>
<clus scale="   43.274">  2  4  1 -1</clus>
<clus scale="   72.131">  2  3  1 -1</clus>
<clus scale="  152.645">  2  6  1 -1</clus>
<clus scale="   43.274">  2  3  1 -1</clus>
</clustering>
</event>
<event>
 6    0  0.1361744E+002  0.7083332E+02  0.7546771E-02  0.1357282E+00
         21   -1    0    0  505  502  0.00000000000E+00  0.00000000000E+00  0.67327161070E+03  0.67327161070E+03  0.00000000000E+00 0. -1.
          2   -1    0    0  503    0 -0.00000000000E+00 -0.00000000000E+00 -0.55456416859E+03  0.55456416859E+03  0.00000000000E+00 0.  1.
         21    1    1    2  503  504  0.15731866467E+02  0.10039900059E+03 -0.22685973030E+03  0.24858155236E+03  0.00000000000E+00 0.  1.
         21    1    1    2  504  502 -0.26942780599E+02  0.13293046896E+02  0.23757224884E+03  0.23946438554E+03  0.00000000000E+00 0. -1.
         21    1    1    2  505  501  0.40560244791E+02 -0.81807989152E+02  0.41744766299E+03  0.42731748370E+03  0.00000000000E+00 0. -1.
          2    1    1    2  501    0 -0.29349330659E+02 -0.31884058334E+02 -0.30945273941E+03  0.31247235768E+03  0.00000000000E+00 0.  1.
<scales pt_clust_3="70.83332" pt_clust_4="30.04361" pt_clust_5="14000.00000" pt_clust_6="43.36514"></scales>
<clustering>
<clus scale="   30.044">  1  4  2 -1</clus>
<clus scale="   43.365">  2  6  1 -1</clus>
<clus scale="   70.833">  2  3  1 -1</clus>
<clus scale="   30.044">  1  3  2 -1</clus>
</clustering>
</event>
<event>
 6    0  0.1361744E+002  0.1113406E+03  0.7546771E-02  0.1258107E+00
         21   -1    0    0  501  502  0.00000000000E+00  0.00000000000E+00  0.35092745645E+03  0.35092745645E+03  0.00000000000E+00 0.  1.
          2   -1    0    0  503    0 -0.00000000000E+00 -0.00000000000E+00 -0.32738889992E+03  0.32738889992E+03  0.00000000000E+00 0.  1.
         21    1    1    2  503  504  0.92644232800E+02  0.69291282333E+02 -0.12925741320E+03  0.17346963580E+03  0.00000000000E+00 0.  1.
         21    1    1    2  504  505 -0.38900235183E+02  0.10572301794E+02  0.14765071165E+03  0.15305467818E+03  0.00000000000E+00 0.  1.
         21    1    1    2  505  502 -0.54739496849E+02 -0.41436221761E+02  0.16956621913E+03  0.18293735447E+03  0.00000000000E+00 0.  1.
          2    1    1    2  501    0  0.99549923215E+00 -0.38427362366E+02 -0.16442096106E+03  0.16885468792E+03  0.00000000000E+00 0.  1.
<scales pt_clust_3="99.26558" pt_clust_4="38.29309" pt_clust_5="38.29309" pt_clust_6="38.44025"></scales>
<clustering>
<clus scale="   38.440">  2  6  1 -1</clus>
<clus scale="   38.293">  4  5 -1 -1</clus>
<clus scale="   99.266">  2  3  1 -1</clus>
<clus scale="  111.341">  1  3  2 -1</clus>
</clustering>
</event>
<event>
 6    0  0.1361744E+002  0.3947650E+03  0.7546771E-02  0.1045608E+00
         21   -1    0    0  501  502  0.00000000000E+00  0.00000000000E+00  0.18171596902E+03  0.18171596902E+03  0.00000000000E+00 0. -1.
          2   -1    0    0  504    0 -0.00000000000E+00 -0.00000000000E+00 -0.93708898096E+03  0.93708898096E+03  0.00000000000E+00 0.  1.
         21    1    1    2  503  505  0.72809622432E+02 -0.31775594965E+03 -0.28373219850E+03  0.43217362845E+03  0.00000000000E+00 0. -1.
         21    1    1    2  504  503  0.34367479960E+02 -0.11151526310E+02 -0.47088907628E+02  0.59353562988E+02  0.00000000000E+00 0.  1.
         21    1    1    2  505  502  0.26081783462E+02 -0.46236551653E+02 -0.12942261375E+02  0.54640463641E+02  0.00000000000E+00 0. -1.
          2    1    1    2  501    0 -0.13325888585E+03  0.37514402762E+03 -0.41160964444E+03  0.57263729490E+03  0.00000000000E+00 0.  1.
<scales pt_clust_3="33.03645" pt_clust_4="36.13143" pt_clust_5="33.03645" pt_clust_6="386.18294"></scales>
<clustering>
<clus scale="   33.036">  3  5 -1 -1</clus>
<clus scale="   36.131">  2  4  1 -1</clus>
<clus scale="  386.183">  2  6  1 -1</clus>
<clus scale="  394.765">  1  3  2 -1</clus>
</clustering>
</event>
<event>
 6    0  0.1361744E+002  0.1195295E+03  0.7546771E-02  0.1243875E+00
          1   -1    0    0  505    0 -0.00000000000E+00  0.00000000000E+00  0.42110265153E+04  0.42110265153E+04  0.00000000000E+00 0. -1.
         21   -1    0    0  503  502  0.00000000000E+00 -0.00000000000E+00 -0.12047749907E+04  0.12047749907E+04  0.00000000000E+00 0.  1.
         21    1    1    2  503  501  0.46803717120E+02 -0.74263892620E+02 -0.11508387755E+04  0.11541817885E+04  0.00000000000E+00 0.  1.
         21    1    1    2  504  502  0.52118250983E+02  0.66576013832E+01 -0.36430145868E+02  0.63935837131E+02  0.00000000000E+00 0.  1.
         21    1    1    2  505  504 -0.64753434197E+02 -0.18904193797E+02  0.78452565229E+03  0.78742039272E+03  0.00000000000E+00 0.  1.
          1    1    1    2  501    0 -0.34168533906E+02  0.86510485034E+02  0.34089947936E+04  0.34102634877E+04  0.00000000000E+00 0. -1.
<scales pt_clust_3="119.52948" pt_clust_4="52.54175" pt_clust_5="67.39142" pt_clust_6="14000.00000"></scales>
<clustering>
<clus scale="   52.542">  2  4  1 -1</clus>
<clus scale="   67.391">  1  5  2 -1</clus>
<clus scale="  119.529">  2  3  1 -1</clus>
<clus scale="   52.542">  2  3  1 -1</clus>
</clustering>
</event>
<event>
 6    0  0.1361744E+002  0.1267831E+03  0.7546771E-02  0.1232309E+00
         21   -1    0    0  504  502  0.00000000000E+00  0.00000000000E+00  0.57131899567E+03  0.57131899567E+03  0.00000000000E+00 0.  1.
          1   -1    0    0  503    0 -0.00000000000E+00 -0.00000000000E+00 -0.13315283863E+04  0.13315283863E+04  0.00000000000E+00 0.  1.
         21    1    1    2  503  505 -0.36331118587E+02 -0.10528332835E+03 -0.20494201655E+03  0.23325042241E+03  0.00000000000E+00 0.  1.
         21    1    1    2  504  501 -0.26832938270E+02  0.22177249018E+02  0.72858255839E+02  0.80747522526E+02  0.00000000000E+00 0.  1.
         21    1    1    2  505  502 -0.23756059497E+02  0.97965593016E+02  0.47329175589E+03  0.48390773291E+03  0.00000000000E+00 0.  1.
          1    1    1    2  501    0  0.86920116354E+02 -0.14859513680E+02 -0.11014173858E+04  0.11049417041E+04  0.00000000000E+00 0.  1.
<scales pt_clust_3="126.78311" pt_clust_4="34.81145" pt_clust_5="14000.00000" pt_clust_6="88.07359"></scales>
<clustering>
<clus scale="   34.811">  1  4  2 -1</clus>
<clus scale="   88.074">  2  6  1 -1</clus>
<clus scale="  126.783">  2  3  1 -1</clus>
<clus scale="   34.811">  1  3  2 -1</clus>
</clustering>
</event>
<event>
 6    0  0.1361744E+002  0.7706650E+02  0.7546771E-02  0.1337589E+00
         21   -1    0    0  505  502  0.00000000000E+00  0.00000000000E+00  0.27318635213E+02  0.27318635213E+02  0.00000000000E+00 0.  1.
          2   -1    0    0  503    0 -0.00000000000E+00 -0.00000000000E+00 -0.19928271857E+04  0.19928271857E+04  0.00000000000E+00 0.  1.
         21    1    1    2  503  502 -0.34318283552E+02 -0.53561841461E+02 -0.10374998506E+04  0.10394481975E+04  0.00000000000E+00 0. -1.
         21    1    1    2  504  501  0.72962615854E+02 -0.51228408123E+02 -0.34340175836E+03  0.35478537281E+03  0.00000000000E+00 0.  1.
         21    1    1    2  505  504 -0.11694382950E+02  0.78606814104E+02 -0.59036887220E+02  0.99000726607E+02  0.00000000000E+00 0.  1.
          2    1    1    2  501    0 -0.26949949353E+02  0.26183435480E+02 -0.52557005430E+03  0.52691152392E+03  0.00000000000E+00 0.  1.
<scales pt_clust_3="63.86085" pt_clust_4="14000.00000" pt_clust_5="77.06650" pt_clust_6="37.57489"></scales>
<clustering>
<clus scale="   37.575">  2  6  1 -1</clus>
<clus scale="   63.861">  2  3  1 -1</clus>
<clus scale="   77.067">  1  5  2 -1</clus>
<clus scale="   77.067">  1  3  2 -1</clus>
</clustering>
</event>
<event>
 6    0  0.1361744E+002  0.2678647E+03  0.7546771E-02  0.1102508E+00
         21   -1    0    0  503  502  0.00000000000E+00  0.00000000000E+00  0.33081868325E+02  0.33081868325E+02  0.00000000000E+00 0.  1.
          2   -1    0    0  504    0 -0.00000000000E+00 -0.00000000000E+00 -0.23024816645E+04  0.23024816645E+04  0.00000000000E+00 0.  1.
         21    1    1    2  503  501 -0.62454893307E+02 -0.17496406061E+02 -0.27788713533E+03  0.28535591444E+03  0.00000000000E+00 0.  1.
         21    1    1    2  504  505  0.13086218579E+03  0.99845132878E+02 -0.45503992042E+03  0.48389595101E+03  0.00000000000E+00 0.  1.
         21    1    1    2  505  502  0.91621957228E+02  0.38793497340E+02 -0.39573138248E+03  0.40804760208E+03  0.00000000000E+00 0.  1.
          2    1    1    2  501    0 -0.16002924971E+03 -0.12114222416E+03 -0.11407413580E+04  0.11582640653E+04  0.00000000000E+00 0.  1.
<scales pt_clust_3="30.14444" pt_clust_4="42.80785" pt_clust_5="42.80785" pt_clust_6="267.45438"></scales>
<clustering>
<clus scale="   30.144">  3  6 -1 -1</clus>
<clus scale="   42.808">  4  5 -1 -1</clus>
<clus scale="  267.454">  2  3  1 -1</clus>
<clus scale="  267.865">  1  3  2 -1</clus>
</clustering>
</event>
<event>
 6    0  0.1361744E+002  0.2403006E+03  0.7546771E-02  0.1119593E+00
         21   -1    0    0  504  502  0.00000000000E+00  0.00000000000E+00  0.16215968203E+03  0.16215968203E+03  0.00000000000E+00 0.  1.
          2   -1    0    0  505    0 -0.00000000000E+00 -0.00000000000E+00 -0.13399387180E+04  0.13399387180E+04  0.00000000000E+00 0. -1.
         21    1    1    2  503  501 -0.63308545336E+02 -0.55700679754E+02 -0.37144140189E+03  0.38089270494E+03  0.00000000000E+00 0. -1.
         21    1    1    2  504  503 -0.10049956596E+02 -0.31023788659E+02  0.27401175020E+02  0.42594618004E+02  0.00000000000E+00 0.  1.
         21    1    1    2  505  502  0.21539731160E+03  0.14350649396E+03 -0.30129243636E+02  0.26057222986E+03  0.00000000000E+00 0.  1.
          2    1    1    2  501    0 -0.14203880966E+03 -0.56782025546E+02 -0.80360956546E+03  0.81803884722E+03  0.00000000000E+00 0. -1.
<scales pt_clust_3="32.12557" pt_clust_4="32.61100" pt_clust_5="236.37296" pt_clust_6="32.12557"></scales>
<clustering>
<clus scale="   32.126">  3  6 -1 -1</clus>
<clus scale="   32.611">  1  4  2 -1</clus>
<clus scale="  236.373">  1  5  2 -1</clus>
<clus scale="   32.611">  1  3  2 -1</clus>
</clustering>
</event>
<event>
 6    0  0.1361744E+002  0.3050607E+03  0.7546771E-02  0.1082738E+00
          2   -1    0    0  504    0 -0.00000000000E+00  0.00000000000E+00  0.79967368711E+03  0.79967368711E+03  0.00000000000E+00 0. -1.
         21   -1    0    0  503  502  0.00000000000E+00 -0.00000000000E+00 -0.27342476503E+03  0.27342476503E+03  0.00000000000E+00 0. -1.
         21    1    1    2  503  501 -0.54870852570E+02  0.14545274200E+02  0.28920248016E+02  0.63708368435E+02  0.00000000000E+00 0.  1.
         21    1    1    2  504  505  0.21369757792E+03 -0.59721648053E+02  0.14642340038E+03  0.26584420670E+03  0.00000000000E+00 0. -1.
         21    1    1    2  505  502  0.10705529065E+03 -0.97044626689E+02 -0.11766340537E+03  0.18634154606E+03  0.00000000000E+00 0.  1.
          2    1    1    2  501    0 -0.26588201600E+03  0.14222100054E+03  0.46856867905E+03  0.55720433094E+03  0.00000000000E+00 0. -1.
<scales pt_clust_3="44.62797" pt_clust_4="287.19815" pt_clust_5="144.49393" pt_clust_6="44.62797"></scales>
<clustering>
<clus scale="   44.628">  3  6 -1 -1</clus>
<clus scale="  144.494">  2  5  1 -1</clus>
<clus scale="  287.198">  2  4  1 -1</clus>
<clus scale="  144.494">  2  3  1 -1</clus>
</clustering>
</event>
<event>
 6    0  0.1361744E+002  0.9146746E+02  0.7546771E-02  0.1299336E+00
         -4   -1    0    0    0  501 -0.00000000000E+00  0.00000000000E+00  0.50048780593E+03  0.50048780593E+03  0.00000000000E+00 0. -1.
         21   -1    0    0  504  502  0.00000000000E+00 -0.00000000000E+00 -0.33161094762E+03  0.33161094762E+03  0.00000000000E+00 0. -1.
         21    1    1    2  503  505  0.43730155779E+02  0.39802730923E+02 -0.17993717185E+01  0.59159290496E+02  0.00000000000E+00 0.  1.
         21    1    1    2  504  503 -0.95952998062E+02 -0.37792393250E+02 -0.27363804855E+03  0.29242610082E+03  0.00000000000E+00 0. -1.
         21    1    1    2  505  501  0.13769946903E+02 -0.38527424377E+02  0.88863092604E+01  0.41868130590E+02  0.00000000000E+00 0. -1.
         -4    1    1    2    0  502  0.38452895380E+02  0.36517086705E+02  0.43542796932E+03  0.43864523165E+03  0.00000000000E+00 0. -1.
<scales pt_clust_3="91.46746" pt_clust_4="14000.00000" pt_clust_5="40.91423" pt_clust_6="51.13071"></scales>
<clustering>
<clus scale="   40.914">  1  5  2 -1</clus>
<clus scale="   51.131">  1  6  2 -1</clus>
<clus scale="   91.467">  1  3  2 -1</clus>
<clus scale="   91.467">  2  3  1 -1</clus>
</clustering>
</event>
<event>
 6    0  0.1361744E+002  0.1588120E+03  0.7546771E-02  0.1190045E+00
         21   -1    0    0  505  502  0.00000000000E+00  0.00000000000E+00  0.84823080013E+02  0.84823080013E+02  0.00000000000E+00 0. -1.
          1   -1    0    0  504    0 -0.00000000000E+00 -0.00000000000E+00 -0.15929887373E+04  0.15929887373E+04  0.00000000000E+00 0.  1.
         21    1    1    2  503  502 -0.37391604521E+02 -0.91348432297E+01  0.42056352280E+02  0.57011527050E+02  0.00000000000E+00 0. -1.
         21    1    1    2  504  503 -0.11468784457E+03 -0.76798229450E+02 -0.71185112974E+03  0.72510916464E+03  0.00000000000E+00 0.  1.
         21    1    1    2  505  501 -0.29030557310E+02  0.10447233099E+02  0.36894474929E+01  0.31072977971E+02  0.00000000000E+00 0. -1.
          1    1    1    2  501    0  0.18111000640E+03  0.75485839580E+02 -0.84206032730E+03  0.86461814763E+03  0.00000000000E+00 0.  1.
<scales pt_clust_3="58.73183" pt_clust_4="14000.00000" pt_clust_5="30.85317" pt_clust_6="158.81198"></scales>
<clustering>
<clus scale="   30.853">  1  5  2 -1</clus>
<clus scale="   58.732">  1  3  2 -1</clus>
<clus scale="  158.812">  1  6  2 -1</clus>
<clus scale="   30.853">  1  3  2 -1</clus>
</clustering>
</event>
<event>
 6    0  0.1361744E+002  0.1840834E+03  0.7546771E-02  0.1163909E+00
         21   -1    0    0  505  502  0.00000000000E+00  0.00000000000E+00  0.14109069573E+03  0.14109069573E+03  0.00000000000E+00 0. -1.
          1   -1    0    0  503    0 -0.00000000000E+00 -0.00000000000E+00 -0.16875262817E+04  0.16875262817E+04  0.00000000000E+00 0.  1.
         21    1    1    2  503  504 -0.79159754393E+02  0.71394726981E+02  0.33461146895E+02  0.11172789315E+03  0.00000000000E+00 0. -1.
         21    1    1    2  504  502 -0.10813146828E+02  0.75878742250E+02  0.40182204662E+02  0.86539685933E+02  0.00000000000E+00 0. -1.
         21    1    1    2  505  501  0.21079814857E+02 -0.66874906085E+02 -0.44260280155E+03  0.44812258546E+03  0.00000000000E+00 0. -1.
          1    1    1    2  501    0  0.68893086363E+02 -0.80398563146E+02 -0.11774761360E+04  0.11822268129E+04  0.00000000000E+00 0.  1.
<scales pt_clust_3="54.30850" pt_clust_4="54.30850" pt_clust_5="48.81936" pt_clust_6="182.71124"></scales>
<clustering>
<clus scale="   48.819">  5  6 -1 -1</clus>
<clus scale="   54.308">  3  4 -1 -1</clus>
<clus scale="  182.711">  2  5  1 -1</clus>
<clus scale="  184.083">  1  3  2 -1</clus>
</clustering>
</event>
<event>
 6    0  0.1361744E+002  0.3134109E+03  0.7546771E-02  0.1078722E+00
         21   -1    0    0  505  502  0.00000000000E+00  0.00000000000E+00  0.12772801788E+03  0.12772801788E+03  0.00000000000E+00 0. -1.
          2   -1    0    0  504    0 -0.00000000000E+00 -0.00000000000E+00 -0.15736008427E+04  0.15736008427E+04  0.00000000000E+00 0.  1.
         21    1    1    2  503  502 -0.21547296216E+02  0.11808473056E+03 -0.21870486116E+02  0.12201068695E+03  0.00000000000E+00 0. -1.
         21    1    1    2  504  503  0.52607897842E+01  0.18777196155E+03 -0.88711551988E+02  0.20773956029E+03  0.00000000000E+00 0. -1.
         21    1    1    2  505  501  0.26815888585E+02 -0.21517085366E+03 -0.81571198297E+03  0.84404006262E+03  0.00000000000E+00 0. -1.
          2    1    1    2  501    0 -0.10529382153E+02 -0.90685838456E+02 -0.51957880373E+03  0.52753855070E+03  0.00000000000E+00 0.  1.
<scales pt_clust_3="41.48515" pt_clust_4="310.65550" pt_clust_5="43.10401" pt_clust_6="43.10401"></scales>
<clustering>
<clus scale="   41.485">  3  4 -1 -1</clus>
<clus scale="   43.104">  5  6 -1 -1</clus>
<clus scale="  310.655">  1  3  2 -1</clus>
<clus scale="  310.655">  1  3  2 -1</clus>
</clustering>
</event>
<event>
 6    0  0.1361744E+002  0.1876814E+03  0.7546771E-02  0.1160569E+00
          2   -1    0    0  505    0 -0.00000000000E+00  0.00000000000E+00  0.12477590844E+04  0.12477590844E+04  0.00000000000E+00 0. -1.
         21   -1    0    0  504  502  0.00000000000E+00 -0.00000000000E+00 -0.20180115410E+03  0.20180115410E+03  0.00000000000E+00 0.  1.
         21    1    1    2  503  501  0.10367716278E+03  0.30707401454E+02  0.59904202366E+03  0.60872263363E+03  0.00000000000E+00 0. -1.
         21    1    1    2  504  503 -0.11730968038E+03 -0.81728007411E+02 -0.15174750186E+03  0.20849060561E+03  0.00000000000E+00 0.  1.
         21    1    1    2  505  502 -0.52540492604E+02  0.58651540488E+01  0.35885672045E+02  0.63895890739E+02  0.00000000000E+00 0.  1.
          2    1    1    2  501    0  0.66173010206E+02  0.45155451908E+02  0.56277773645E+03  0.56845110850E+03  0.00000000000E+00 0. -1.
<scales pt_clust_3="31.13737" pt_clust_4="184.16212" pt_clust_5="52.86685" pt_clust_6="31.13737"></scales>
<clustering>
<clus scale="   31.137">  3  6 -1 -1</clus>
<clus scale="   52.867">  2  5  1 -1</clus>
<clus scale="  184.162">  2  4  1 -1</clus>
<clus scale="   52.867">  2  3  1 -1</clus>
</clustering>
</event>
<event>
 6    0  0.1361744E+002  0.1516240E+03  0.7546771E-02  0.1198492E+00
          2   -1    0    0  505    0 -0.00000000000E+00  0.00000000000E+00  0.30011569506E+04  0.30011569506E+04  0.00000000000E+00 0. -1.
         21   -1    0    0  504  502  0.00000000000E+00 -0.00000000000E+00 -0.39443753967E+02  0.39443753967E+02  0.00000000000E+00 0. -1.
         21    1    1    2  503  501 -0.20813863254E+03 -0.65658691658E+02  0.11645593246E+04  0.11848338173E+04  0.00000000000E+00 0. -1.
         21    1    1    2  504  503  0.20664689775E+02 -0.22335730392E+02  0.66075306449E+02  0.72745174259E+02  0.00000000000E+00 0. -1.
         21    1    1    2  505  502  0.12281599107E+03  0.34884628423E+02  0.13896666809E+03  0.18871258517E+03  0.00000000000E+00 0. -1.
          2    1    1    2  501    0  0.64657951697E+02  0.53109793627E+02  0.15921118975E+04  0.15943091278E+04  0.00000000000E+00 0. -1.
<scales pt_clust_3="14000.00000" pt_clust_4="30.42884" pt_clust_5="151.62397" pt_clust_6="83.73338"></scales>
<clustering>
<clus scale="   30.429">  2  4  1 -1</clus>
<clus scale="   83.733">  1  6  2 -1</clus>
<clus scale="  151.624">  2  5  1 -1</clus>
<clus scale="   30.429">  2  3  1 -1</clus>
</clustering>
</event>
<event>
 6    0  0.1361744E+002  0.8495749E+02  0.7546771E-02  0.1315544E+00
         21   -1    0    0  504  502  0.00000000000E+00  0.00000000000E+00  0.22423927500E+02  0.22423927500E+02  0.00000000000E+00 0. -1.
          2   -1    0    0  505    0 -0.00000000000E+00 -0.00000000000E+00 -0.16070375494E+04  0.16070375494E+04  0.00000000000E+00 0. -1.
         21    1    1    2  503  502  0.69206437755E+02  0.11434004660E+02 -0.94503568318E+02  0.11769108681E+03  0.00000000000E+00 0. -1.
         21    1    1    2  504  501  0.30525077613E+02 -0.54654679670E+02 -0.12861531052E+03  0.14304129639E+03  0.00000000000E+00 0. -1.
         21    1    1    2  505  503 -0.40602543726E+02  0.63245022440E+02 -0.88014587533E+03  0.88334888990E+03  0.00000000000E+00 0. -1.
          2    1    1    2  501    0 -0.59128971642E+02 -0.20024347431E+02 -0.48134886769E+03  0.48538020376E+03  0.00000000000E+00 0. -1.
<scales pt_clust_3="14000.00000" pt_clust_4="61.67732" pt_clust_5="84.95749" pt_clust_6="62.42764"></scales>
<clustering>
<clus scale="   62.428">  2  6  1 -1</clus>
<clus scale="   61.677">  1  4  2 -1</clus>
<clus scale="   84.957">  2  5  1 -1</clus>
<clus scale="   61.677">  1  3  2 -1</clus>
</clustering>
</event>
<event>
 6    0  0.1361744E+002  0.1033687E+03  0.7546771E-02  0.1273367E+00
          3   -1    0    0  504    0 -0.00000000000E+00  0.00000000000E+00  0.40211186241E+03  0.40211186241E+03  0.00000000000E+00 0. -1.
         21   -1    0    0  501  502  0.00000000000E+00 -0.00000000000E+00 -0.21610185956E+03  0.21610185956E+03  0.00000000000E+00 0. -1.
         21    1    1    2  503  505  0.58885252092E+02 -0.52126736160E+01 -0.97239676093E+02  0.11379894326E+03  0.00000000000E+00 0. -1.
         21    1    1    2  504  503  0.33545004476E+02  0.28410712406E+02  0.32501180965E+02  0.54669577178E+02  0.00000000000E+00 0. -1.
         21    1    1    2  505  502  0.33695889269E+02  0.26205994945E+02 -0.80916177991E+02  0.91485490573E+02  0.00000000000E+00 0. -1.
          3    1    1    2  501    0 -0.12612614584E+03 -0.49404033735E+02  0.33166467597E+03  0.35825971096E+03  0.00000000000E+00 0. -1.
<scales pt_clust_3="31.68367" pt_clust_4="43.95948" pt_clust_5="31.68367" pt_clust_6="96.40994"></scales>
<clustering>
<clus scale="   31.684">  3  5 -1 -1</clus>
<clus scale="   43.959">  1  4  2 -1</clus>
<clus scale="   96.410">  1  6  2 -1</clus>
<clus scale="  103.369">  2  3  1 -1</clus>
</clustering>
</event>
<event>
 6    0  0.1361744E+002  0.1756185E+03  0.7546771E-02  0.1172112E+00
         21   -1    0    0  505  502  0.00000000000E+00  0.00000000000E+00  0.21498251888E+03  0.21498251888E+03  0.00000000000E+00 0. -1.
          2   -1    0    0  502    0 -0.00000000000E+00 -0.00000000000E+00 -0.26154692663E+03  0.26154692663E+03  0.00000000000E+00 0. -1.
         21    1    1    2  503  504 -0.11119277118E+02  0.79579336860E+02  0.46348758507E+02  0.92761611639E+02  0.00000000000E+00 0. -1.
         21    1    1    2  504  501  0.19128935812E+01 -0.58363171602E+02 -0.61009332825E+02  0.84451510661E+02  0.00000000000E+00 0.  1.
         21    1    1    2  505  503 -0.52311250739E+02  0.76994516270E+02  0.91152463425E+02  0.13028197910E+03  0.00000000000E+00 0. -1.
          2    1    1    2  501    0  0.61517634276E+02 -0.98210681528E+02 -0.12305629685E+03  0.16903434411E+03  0.00000000000E+00 0. -1.
<scales pt_clust_3="44.58760" pt_clust_4="30.41721" pt_clust_5="44.58760" pt_clust_6="174.28403"></scales>
<clustering>
<clus scale="   30.417">  4  6 -1 -1</clus>
<clus scale="   44.588">  3  5 -1 -1</clus>
<clus scale="  174.284">  2  4  1 -1</clus>
<clus scale="  175.618">  1  3  2 -1</clus>
</clustering>
</event>
<event>
 6    0  0.1361744E+002  0.1918607E+03  0.7546771E-02  0.1156794E+00
          2   -1    0    0  503    0 -0.00000000000E+00  0.00000000000E+00  0.14555570731E+04  0.14555570731E+04  0.00000000000E+00 0.  1.
         21   -1    0    0  504  502  0.00000000000E+00 -0.00000000000E+00 -0.39990442078E+02  0.39990442078E+02  0.00000000000E+00 0. -1.
         21    1    1    2  503  502  0.15239074559E+03  0.42083150947E+02  0.19091107415E+03  0.24787288913E+03  0.00000000000E+00 0. -1.
         21    1    1    2  504  505  0.30691097257E+01  0.30632755188E+02  0.66985351734E+02  0.73721248442E+02  0.00000000000E+00 0.  1.
         21    1    1    2  505  501 -0.96948948089E+02 -0.96682658404E+00  0.72757414473E+03  0.73400556494E+03  0.00000000000E+00 0. -1.
          2    1    1    2  501    0 -0.58510907228E+02 -0.71749079551E+02  0.43009606041E+03  0.43994781266E+03  0.00000000000E+00 0.  1.
<scales pt_clust_3="168.22509" pt_clust_4="30.78612" pt_clust_5="88.58576" pt_clust_6="88.58576"></scales>
<clustering>
<clus scale="   30.786">  2  4  1 -1</clus>
<clus scale="   88.586">  5  6 -1 -1</clus>
<clus scale="  168.225">  2  3  1 -1</clus>
<clus scale="   30.786">  2  3  1 -1</clus>
</clustering>
</event>
<event>
 6    0  0.1361744E+002  0.1622095E+03  0.7546771E-02  0.1186225E+00
          1   -1    0    0  503    0 -0.00000000000E+00  0.00000000000E+00  0.94711927811E+03  0.94711927811E+03  0.00000000000E+00 0. -1.
         21   -1    0    0  505  502  0.00000000000E+00 -0.00000000000E+00 -0.19602742593E+03  0.19602742593E+03  0.00000000000E+00 0. -1.
         21    1    1    2  503  504  0.37586607876E+02 -0.10670586039E+03  0.13620616032E+03  0.17706216943E+03  0.00000000000E+00 0. -1.
         21    1    1    2  504  502 -0.37171208378E+02 -0.88186570159E+02 -0.13480797719E+03  0.16532320044E+03  0.00000000000E+00 0. -1.
         21    1    1    2  505  501  0.29987557098E+02  0.49774699261E+01  0.39960048733E+01  0.30659367940E+02  0.00000000000E+00 0.  1.
          1    1    1    2  501    0 -0.30402956596E+02  0.18991496062E+03  0.74569766418E+03  0.77010196623E+03  0.00000000000E+00 0. -1.
<scales pt_clust_3="162.20948" pt_clust_4="85.02782" pt_clust_5="30.39784" pt_clust_6="14000.00000"></scales>
<clustering>
<clus scale="   30.398">  2  5  1 -1</clus>
<clus scale="   85.028">  2  4  1 -1</clus>
<clus scale="  162.209">  2  3  1 -1</clus>
<clus scale="   30.398">  2  3  1 -1</clus>
</clustering>
</event>
<event>
 6    0  0.1361744E+002  0.1134694E+03  0.7546771E-02  0.1254277E+00
          2   -1    0    0  504    0 -0.00000000000E+00  0.00000000000E+00  0.15786797687E+04  0.15786797687E+04  0.00000000000E+00 0.  1.
         21   -1    0    0  503  502  0.00000000000E+00 -0.00000000000E+00 -0.14292704376E+03  0.14292704376E+03  0.00000000000E+00 0.  1.
         21    1    1    2  503  505 -0.42504606635E+02 -0.27630048722E+02 -0.39163634835E+02  0.64061310250E+02  0.00000000000E+00 0.  1.
         21    1    1    2  504  502  0.41947790015E-01  0.43850650963E+02  0.19473450856E+03  0.19961064644E+03  0.00000000000E+00 0.  1.
         21    1    1    2  505  501 -0.62926139787E+02  0.72353999090E+02 -0.58412409524E+02  0.11228005094E+03  0.00000000000E+00 0.  1.
          2    1    1    2  501    0  0.10538879863E+03 -0.88574601330E+02  0.13385942607E+04  0.13456548048E+04  0.00000000000E+00 0.  1.
<scales pt_clust_3="50.48118" pt_clust_4="43.85067" pt_clust_5="113.46944" pt_clust_6="14000.00000"></scales>
<clustering>
<clus scale="   43.851">  1  4  2 -1</clus>
<clus scale="   50.481">  2  3  1 -1</clus>
<clus scale="  113.469">  2  5  1 -1</clus>
<clus scale="   50.481">  2  3  1 -1</clus>
</clustering>
</event>
<event>
 6    0  0.1361744E+002  0.1340730E+03  0.7546771E-02  0.1221534E+00
          2   -1    0    0  505    0 -0.00000000000E+00  0.00000000000E+00  0.13618461705E+04  0.13618461705E+04  0.00000000000E+00 0.  1.
         21   -1    0    0  503  502  0.00000000000E+00 -0.00000000000E+00 -0.90167598859E+02  0.90167598859E+02  0.00000000000E+00 0.  1.
         21    1    1    2  503  501  0.46408331059E+02 -0.29758298350E+02  0.41812806557E+03  0.42174680642E+03  0.00000000000E+00 0.  1.
         21    1    1    2  504  502 -0.19175681428E+02  0.30199006597E+02 -0.64206271902E+02  0.73499198017E+02  0.00000000000E+00 0.  1.
         21    1    1    2  505  504 -0.31812563780E+02  0.83040883370E+02  0.96342550244E+02  0.13110955157E+03  0.00000000000E+00 0. -1.
          2    1    1    2  501    0  0.45799141488E+01 -0.83481591617E+02  0.82141422770E+03  0.82565821332E+03  0.00000000000E+00 0.  1.
<scales pt_clust_3="51.84572" pt_clust_4="35.77271" pt_clust_5="117.66244" pt_clust_6="51.84572"></scales>
<clustering>
<clus scale="   35.773">  2  4  1 -1</clus>
<clus scale="   51.846">  3  6 -1 -1</clus>
<clus scale="  117.662">  2  5  1 -1</clus>
<clus scale="   35.773">  2  3  1 -1</clus>
</clustering>
</event>
<event>
 6    0  0.1361744E+002  0.8086661E+02  0.7546771E-02  0.1326610E+00
          1   -1    0    0  503    0 -0.00000000000E+00  0.00000000000E+00  0.31705200149E+04  0.31705200149E+04  0.00000000000E+00 0.  1.
         21   -1    0    0  505  502  0.00000000000E+00 -0.00000000000E+00 -0.23957214278E+02  0.23957214278E+02  0.00000000000E+00 0.  1.
         21    1    1    2  503  504 -0.34190705471E+02  0.36097777835E+02  0.14934841547E+04  0.14943115386E+04  0.00000000000E+00 0.  1.
         21    1    1    2  504  502  0.41358797296E+02 -0.31803477467E+01  0.39606953313E+02  0.57353077305E+02  0.00000000000E+00 0.  1.
         21    1    1    2  505  501 -0.74770096282E+02 -0.70792788176E+02  0.18093599305E+03  0.20818265955E+03  0.00000000000E+00 0.  1.
          1    1    1    2  501    0  0.67602004457E+02  0.37875358088E+02  0.14325356995E+04  0.14346299538E+04  0.00000000000E+00 0.  1.
<scales pt_clust_3="48.88238" pt_clust_4="41.48090" pt_clust_5="14000.00000" pt_clust_6="80.86661"></scales>
<clustering>
<clus scale="   41.481">  2  4  1 -1</clus>
<clus scale="   48.882">  1  3  2 -1</clus>
<clus scale="   80.867">  1  6  2 -1</clus>
<clus scale="   41.481">  2  3  1 -1</clus>
</clustering>
</event>
<event>
 6    0  0.1361744E+002  0.9091370E+02  0.7546771E-02  0.1300654E+00
          1   -1    0    0  504    0 -0.00000000000E+00  0.00000000000E+00  0.12004695915E+04  0.12004695915E+04  0.00000000000E+00 0. -1.
         21   -1    0    0  503  502  0.00000000000E+00 -0.00000000000E+00 -0.58320650382E+02  0.58320650382E+02  0.00000000000E+00 0. -1.
         21    1    1    2  503  505  0.22298897553E+02  0.22928123535E+02  0.11887688381E+02  0.34121207716E+02  0.00000000000E+00 0. -1.
         21    1    1    2  504  502 -0.11311524131E+03  0.11213627100E+02  0.29847358787E+02  0.11752305338E+03  0.00000000000E+00 0. -1.
         21    1    1    2  505  501  0.46439590523E+02 -0.40906333272E+02  0.35288964366E+03  0.35827512371E+03  0.00000000000E+00 0. -1.
          1    1    1    2  501    0  0.44376753231E+02  0.67645826371E+01  0.74752425034E+03  0.74887085712E+03  0.00000000000E+00 0. -1.
<scales pt_clust_3="31.98343" pt_clust_4="14000.00000" pt_clust_5="90.91370" pt_clust_6="45.25393"></scales>
<clustering>
<clus scale="   31.983">  2  3  1 -1</clus>
<clus scale="   45.254">  1  6  2 -1</clus>
<clus scale="   90.914">  1  5  2 -1</clus>
<clus scale="   31.983">  2  3  1 -1</clus>
</clustering>
</event>
<event>
 6    0  0.1361744E+002  0.7721276E+02  0.7546771E-02  0.1337153E+00
         21   -1    0    0  503  502  0.00000000000E+00  0.00000000000E+00  0.89357038924E+02  0.89357038924E+02  0.00000000000E+00 0. -1.
          2   -1    0    0  504    0 -0.00000000000E+00 -0.00000000000E+00 -0.12536364849E+04  0.12536364849E+04  0.00000000000E+00 0. -1.
         21    1    1    2  503  501 -0.16512933533E+02 -0.11180907944E+03 -0.95630376128E+01  0.11342574182E+03  0.00000000000E+00 0. -1.
         21    1    1    2  504  505 -0.33505956174E+02 -0.80370588905E+01 -0.15642375279E+03  0.16017376143E+03  0.00000000000E+00 0.  1.
         21    1    1    2  505  502 -0.19877483731E+02  0.47910941652E+02  0.12728640321E+02  0.53409652441E+02  0.00000000000E+00 0. -1.
          2    1    1    2  501    0  0.69896373438E+02  0.71935196675E+02 -0.10110212959E+04  0.10159843681E+04  0.00000000000E+00 0. -1.
<scales pt_clust_3="14000.00000" pt_clust_4="34.45640" pt_clust_5="51.97515" pt_clust_6="77.21276"></scales>
<clustering>
<clus scale="   34.456">  2  4  1 -1</clus>
<clus scale="   51.975">  1  5  2 -1</clus>
<clus scale="   77.213">  2  6  1 -1</clus>
<clus scale="   51.975">  1  3  2 -1</clus>
</clustering>
</event>
<event>
 6    0  0.1361744E+002  0.1684180E+03  0.7546771E-02  0.1179508E+00
         21   -1    0    0  505  502  0.00000000000E+00  0.00000000000E+00  0.11064676260E+04  0.11064676260E+04  0.00000000000E+00 0.  1.
          2   -1    0    0  503    0 -0.00000000000E+00 -0.00000000000E+00 -0.16117802322E+04  0.16117802322E+04  0.00000000000E+00 0. -1.
         21    1    1    2  503  504  0.80121584673E+02 -0.76639836117E+02 -0.10252684387E+03  0.15101286874E+03  0.00000000000E+00 0.  1.
         21    1    1    2  504  502  0.78477230538E+02  0.48505189152E+02  0.87961817860E+03  0.88444308422E+03  0.00000000000E+00 0.  1.
         21    1    1    2  505  501  0.15841646267E+02 -0.30936025019E+02  0.19291554963E+03  0.19602143936E+03  0.00000000000E+00 0. -1.
          2    1    1    2  501    0 -0.17444046148E+03  0.59070671984E+02 -0.14753194906E+04  0.14867704659E+04  0.00000000000E+00 0. -1.
<scales pt_clust_3="14000.00000" pt_clust_4="95.62193" pt_clust_5="34.75623" pt_clust_6="168.41804"></scales>
<clustering>
<clus scale="   34.756">  1  5  2 -1</clus>
<clus scale="   95.622">  1  4  2 -1</clus>
<clus scale="  168.418">  2  6  1 -1</clus>
<clus scale="   34.756">  1  3  2 -1</clus>
</clustering>
</event>
<event>
 6    0  0.1361744E+002  0.1553328E+03  0.7546771E-02  0.1194069E+00
         21   -1    0    0  505  502  0.00000000000E+00  0.00000000000E+00  0.95666326211E+02  0.95666326211E+02  0.00000000000E+00 0. -1.
          2   -1    0    0  503    0 -0.00000000000E+00 -0.00000000000E+00 -0.16342142920E+04  0.16342142920E+04  0.00000000000E+00 0.  1.
         21    1    1    2  503  504 -0.12813961084E+03  0.50247149604E+02 -0.63056052517E+02  0.15139551403E+03  0.00000000000E+00 0. -1.
         21    1    1    2  504  502 -0.38865370970E+02  0.53984504161E+02  0.15914648140E+02  0.68396781909E+02  0.00000000000E+00 0. -1.
         21    1    1    2  505  501  0.30447177460E+02 -0.26347459981E+02 -0.76263090120E+02  0.86239655480E+02  0.00000000000E+00 0. -1.
          2    1    1    2  501    0  0.13655780435E+03 -0.77884193785E+02 -0.14151434713E+04  0.14238486668E+04  0.00000000000E+00 0.  1.
<scales pt_clust_3="155.33283" pt_clust_4="48.50244" pt_clust_5="40.26437" pt_clust_6="14000.00000"></scales>
<clustering>
<clus scale="   40.264">  1  5  2 -1</clus>
<clus scale="   48.502">  1  4  2 -1</clus>
<clus scale="  155.333">  1  3  2 -1</clus>
<clus scale="   40.264">  1  3  2 -1</clus>
</clustering>
</event>
<event>
 6    0  0.1361744E+002  0.1484738E+03  0.7546771E-02  0.1202361E+00
          2   -1    0    0  503    0 -0.00000000000E+00  0.00000000000E+00  0.14251544410E+04  0.14251544410E+04  0.00000000000E+00 0.  1.
         21   -1    0    0  505  502  0.00000000000E+00 -0.00000000000E+00 -0.41424692701E+02  0.41424692701E+02  0.00000000000E+00 0. -1.
         21    1    1    2  503  502  0.27267852685E+02 -0.18445200805E+02  0.18459478618E+03  0.18750732334E+03  0.00000000000E+00 0.  1.
         21    1    1    2  504  501  0.20025699048E+02  0.48202927746E+02  0.58232090273E+02  0.78201836316E+02  0.00000000000E+00 0. -1.
         21    1    1    2  505  504 -0.16314535641E+02  0.94874091664E+02  0.62341259736E+02  0.11468953748E+03  0.00000000000E+00 0. -1.
          2    1    1    2  501    0 -0.30979016092E+02 -0.12463181861E+03  0.10785616121E+04  0.10861804366E+04  0.00000000000E+00 0.  1.
<scales pt_clust_3="32.92053" pt_clust_4="34.59661" pt_clust_5="34.59661" pt_clust_6="140.92593"></scales>
<clustering>
<clus scale="   32.921">  1  3  2 -1</clus>
<clus scale="   34.597">  4  5 -1 -1</clus>
<clus scale="  140.926">  1  6  2 -1</clus>
<clus scale="  148.474">  2  3  1 -1</clus>
</clustering>
</event>
<event>
 6    0  0.1361744E+002  0.8671705E+02  0.7546771E-02  0.1311002E+00
          3   -1    0    0  503    0 -0.00000000000E+00  0.00000000000E+00  0.46959949565E+03  0.46959949565E+03  0.00000000000E+00 0. -1.
         21   -1    0    0  505  502  0.00000000000E+00 -0.00000000000E+00 -0.22816776068E+03  0.22816776068E+03  0.00000000000E+00 0.  1.
         21    1    1    2  503  504  0.51184775418E+02  0.11393081671E+01  0.29538014754E+03  0.29978427380E+03  0.00000000000E+00 0. -1.
         21    1    1    2  504  502  0.23503596602E+02  0.30696346376E+02 -0.50283556485E+01  0.38986781024E+02  0.00000000000E+00 0.  1.
         21    1    1    2  505  501 -0.14984199353E+01  0.54817950071E+02 -0.17853018783E+03  0.18676263245E+03  0.00000000000E+00 0.  1.
          3    1    1    2  501    0 -0.73189952084E+02 -0.86653604615E+02  0.12961013091E+03  0.17223356906E+03  0.00000000000E+00 0. -1.
<scales pt_clust_3="51.45675" pt_clust_4="38.66115" pt_clust_5="86.71705" pt_clust_6="14000.00000"></scales>
<clustering>
<clus scale="   38.661">  2  4  1 -1</clus>
<clus scale="   51.457">  1  3  2 -1</clus>
<clus scale="   86.717">  2  5  1 -1</clus>
<clus scale="   38.661">  2  3  1 -1</clus>
</clustering>
</event>
<event>
 6    0  0.1361744E+002  0.1016213E+03  0.7546771E-02  0.1276923E+00
         21   -1    0    0  505  502  0.00000000000E+00  0.00000000000E+00  0.15679985122E+03  0.15679985122E+03  0.00000000000E+00 0.  1.
          3   -1    0    0  504    0 -0.00000000000E+00 -0.00000000000E+00 -0.24553671103E+04  0.24553671103E+04  0.00000000000E+00 0. -1.
         21    1    1    2  503  502 -0.62228834232E+02  0.30142013968E+02  0.38989133120E+02  0.79379602653E+02  0.00000000000E+00 0.  1.
         21    1    1    2  504  503  0.76019111139E+02 -0.68467361343E+02 -0.22673806127E+04  0.22696875396E+04  0.00000000000E+00 0. -1.
         21    1    1    2  505  501  0.46544245174E+02  0.37637842195E+02  0.80774980790E+02  0.10053641850E+03  0.00000000000E+00 0.  1.
          3    1    1    2  501    0 -0.60334522082E+02  0.68750518116E+00 -0.15095076027E+03  0.16256340070E+03  0.00000000000E+00 0. -1.
<scales pt_clust_3="14000.00000" pt_clust_4="101.62128" pt_clust_5="59.85795" pt_clust_6="56.39018"></scales>
<clustering>
<clus scale="   59.858">  1  5  2 -1</clus>
<clus scale="   56.390">  1  6  2 -1</clus>
<clus scale="  101.621">  2  4  1 -1</clus>
<clus scale="   59.858">  1  3  2 -1</clus>
</clustering>
</event>
<event>
 6    0  0.1361744E+002  0.8644178E+02  0.7546771E-02  0.1311705E+00
         21   -1    0    0  504  502  0.00000000000E+00  0.00000000000E+00  0.68094864417E+02  0.68094864417E+02  0.00000000000E+00 0. -1.
         -3   -1    0    0    0  501 -0.00000000000E+00 -0.00000000000E+00 -0.65674832049E+03  0.65674832049E+03  0.00000000000E+00 0.  1.
         21    1    1    2  503  502 -0.85177254494E+01  0.47921728557E+02 -0.16015901182E+02  0.51240148374E+02  0.00000000000E+00 0. -1.
         21    1    1    2  504  505 -0.88080525161E+02 -0.57783578575E+02 -0.17023489660E+02  0.10670951254E+03  0.00000000000E+00 0. -1.
         21    1    1    2  505  501  0.42732168990E+02  0.32656503402E+02 -0.24734332028E+03  0.25312290210E+03  0.00000000000E+00 0.  1.
         -3    1    1    2    0  503  0.53866081621E+02 -0.22794653385E+02 -0.30827074495E+03  0.31377062190E+03  0.00000000000E+00 0.  1.
<scales pt_clust_3="48.67282" pt_clust_4="14000.00000" pt_clust_5="55.11573" pt_clust_6="86.44178"></scales>
<clustering>
<clus scale="   48.673">  1  3  2 -1</clus>
<clus scale="   55.116">  2  5  1 -1</clus>
<clus scale="   86.442">  2  6  1 -1</clus>
<clus scale="   48.673">  1  3  2 -1</clus>
</clustering>
</event>
<event>
 6    0  0.1361744E+002  0.1445412E+03  0.7546771E-02  0.1207346E+00
          2   -1    0    0  505    0 -0.00000000000E+00  0.00000000000E+00  0.30395886031E+04  0.30395886031E+04  0.00000000000E+00 0.  1.
         21   -1    0    0  501  502  0.00000000000E+00 -0.00000000000E+00 -0.21873960471E+02  0.21873960471E+02  0.00000000000E+00 0.  1.
         21    1    1    2  503  504  0.27208916962E+02  0.26310125142E+02  0.15246284777E+03  0.15709063562E+03  0.00000000000E+00 0.  1.
         21    1    1    2  504  502  0.83709947595E+02 -0.40823598035E+01  0.21977535387E+03  0.23521315260E+03  0.00000000000E+00 0.  1.
         21    1    1    2  505  503  0.18927668116E+02 -0.14244313480E+03  0.17792641401E+04  0.17850571934E+04  0.00000000000E+00 0.  1.
          2    1    1    2  501    0 -0.12984653267E+03  0.12021536946E+03  0.86621230083E+03  0.88410158195E+03  0.00000000000E+00 0.  1.
<scales pt_clust_3="33.89473" pt_clust_4="123.85872" pt_clust_5="14000.00000" pt_clust_6="144.54115"></scales>
<clustering>
<clus scale="   33.895">  3  4 -1 -1</clus>
<clus scale="  123.859">  2  3  1 -1</clus>
<clus scale="  144.541">  2  6  1 -1</clus>
<clus scale="  123.859">  2  3  1 -1</clus>
</clustering>
</event>
<event>
 6    0  0.1361744E+002  0.1129762E+03  0.7546771E-02  0.1255156E+00
         21   -1    0    0  505  502  0.00000000000E+00  0.00000000000E+00  0.30175771358E+03  0.30175771358E+03  0.00000000000E+00 0.  1.
          1   -1    0    0  503    0 -0.00000000000E+00 -0.00000000000E+00 -0.21300426624E+03  0.21300426624E+03  0.00000000000E+00 0.  1.
         21    1    1    2  503  502  0.39754211004E+02  0.18680062926E+02  0.48390664614E+02  0.65352876488E+02  0.00000000000E+00 0.  1.
         21    1    1    2  504  501  0.20391026289E+02  0.41912763361E+02 -0.55689129891E+02  0.72620609152E+02  0.00000000000E+00 0. -1.
         21    1    1    2  505  504 -0.50164603725E+02 -0.12325452264E+03  0.20869063750E+03  0.24750746857E+03  0.00000000000E+00 0.  1.
          1    1    1    2  501    0 -0.99806335678E+01  0.62661696355E+02 -0.11263872489E+03  0.12928102560E+03  0.00000000000E+00 0.  1.
<scales pt_clust_3="43.92428" pt_clust_4="31.90577" pt_clust_5="106.66686" pt_clust_6="31.90577"></scales>
<clustering>
<clus scale="   31.906">  4  6 -1 -1</clus>
<clus scale="   43.924">  1  3  2 -1</clus>
<clus scale="  106.667">  1  5  2 -1</clus>
<clus scale="   43.924">  1  3  2 -1</clus>
</clustering>
</event>
<event>
 6    0  0.1361744E+002  0.7087092E+02  0.7546771E-02  0.1357156E+00
          2   -1    0    0  502    0 -0.00000000000E+00  0.00000000000E+00  0.73514152059E+03  0.73514152059E+03  0.00000000000E+00 0. -1.
         21   -1    0    0  505  502  0.00000000000E+00 -0.00000000000E+00 -0.20338739530E+03  0.20338739530E+03  0.00000000000E+00 0. -1.
         21    1    1    2  503  501  0.56446535635E+02  0.40482494446E+02  0.12244103465E+03  0.14077233645E+03  0.00000000000E+00 0. -1.
         21    1    1    2  504  503  0.47470503637E+02 -0.61553540442E+02  0.27979566352E+03  0.29039266586E+03  0.00000000000E+00 0. -1.
         21    1    1    2  505  504 -0.55268792391E+02  0.44185846967E+02 -0.17988841771E+03  0.19330512489E+03  0.00000000000E+00 0. -1.
          2    1    1    2  501    0 -0.48648246881E+02 -0.23114800971E+02  0.30940584482E+03  0.31405878869E+03  0.00000000000E+00 0. -1.
<scales pt_clust_3="53.07100" pt_clust_4="70.87092" pt_clust_5="14000.00000" pt_clust_6="53.86043"></scales>
<clustering>
<clus scale="   53.860">  1  6  2 -1</clus>
<clus scale="   53.071">  1  3  2 -1</clus>
<clus scale="   70.871">  1  4  2 -1</clus>
<clus scale="   70.871">  2  3  1 -1</clus>
</clustering>
</event>
<event>
 6    0  0.1361744E+002  0.1399223E+03  0.7546771E-02  0.1213434E+00
         -4   -1    0    0    0  501 -0.00000000000E+00  0.00000000000E+00  0.54042896598E+03  0.54042896598E+03  0.00000000000E+00 0.  1.
         21   -1    0    0  504  502  0.00000000000E+00 -0.00000000000E+00 -0.21546682481E+03  0.21546682481E+03  0.00000000000E+00 0. -1.
         21    1    1    2  503  502  0.34783350673E+01  0.10234845488E+03  0.10465995794E+03  0.14642749683E+03  0.00000000000E+00 0.  1.
         21    1    1    2  504  505 -0.39728344842E+02 -0.31031522305E+02 -0.44370927674E+02  0.67157099276E+02  0.00000000000E+00 0. -1.
         21    1    1    2  505  501  0.28955410507E+02 -0.13345247368E+03 -0.10193228375E+03  0.17040589485E+03  0.00000000000E+00 0. -1.
         -4    1    1    2    0  503  0.72945992681E+01  0.62135541109E+02  0.36660539466E+03  0.37190529983E+03  0.00000000000E+00 0.  1.
<scales pt_clust_3="139.92227" pt_clust_4="50.41128" pt_clust_5="14000.00000" pt_clust_6="61.97686"></scales>
<clustering>
<clus scale="   50.411">  2  4  1 -1</clus>
<clus scale="   61.977">  1  6  2 -1</clus>
<clus scale="  139.922">  1  3  2 -1</clus>
<clus scale="   50.411">  2  3  1 -1</clus>
</clustering>
</event>
<event>
 6    0  0.1361744E+002  0.8403743E+02  0.7546771E-02  0.1317969E+00
          2   -1    0    0  504    0 -0.00000000000E+00  0.00000000000E+00  0.53369821904E+03  0.53369821904E+03  0.00000000000E+00 0.  1.
         21   -1    0    0  505  502  0.00000000000E+00 -0.00000000000E+00 -0.68124072344E+02  0.68124072344E+02  0.00000000000E+00 0. -1.
         21    1    1    2  503  501 -0.39246986408E+01  0.36854153145E+02  0.10314840598E+02  0.38471129435E+02  0.00000000000E+00 0. -1.
         21    1    1    2  504  502  0.83068278563E+01  0.58046848512E+02  0.29810986318E+03  0.30382220218E+03  0.00000000000E+00 0. -1.
         21    1    1    2  505  503 -0.11674987442E+01  0.31913215542E+02 -0.22887499495E+02  0.39289362589E+02  0.00000000000E+00 0. -1.
          2    1    1    2  501    0 -0.32146304713E+01 -0.12681421720E+03  0.18003694241E+03  0.22023959718E+03  0.00000000000E+00 0.  1.
<scales pt_clust_3="31.25502" pt_clust_4="58.63821" pt_clust_5="31.25502" pt_clust_6="76.99707"></scales>
<clustering>
<clus scale="   31.255">  3  5 -1 -1</clus>
<clus scale="   58.638">  1  4  2 -1</clus>
<clus scale="   76.997">  1  6  2 -1</clus>
<clus scale="   84.037">  2  3  1 -1</clus>
</clustering>
</event>
<event>
 6    0  0.1361744E+002  0.2995801E+03  0.7546771E-02  0.1085451E+00
          1   -1    0    0  505    0 -0.00000000000E+00  0.00000000000E+00  0.92882065272E+03  0.92882065272E+03  0.00000000000E+00 0.  1.
         21   -1    0    0  503  502  0.00000000000E+00 -0.00000000000E+00 -0.19591626889E+03  0.19591626889E+03  0.00000000000E+00 0. -1.
         21    1    1    2  503  501 -0.13564990515E+03 -0.58813965847E+02  0.29933037340E+03  0.33385423733E+03  0.00000000000E+00 0.  1.
         21    1    1    2  504  502  0.26546564079E+03  0.11673619558E+03 -0.82208800527E+01  0.29011537130E+03  0.00000000000E+00 0. -1.
         21    1    1    2  505  504  0.41943591454E+02  0.91515802008E+01  0.14622929375E+03  0.15240086166E+03  0.00000000000E+00 0. -1.
          1    1    1    2  501    0 -0.17175932709E+03 -0.67073809930E+02  0.29556559674E+03  0.34836645131E+03  0.00000000000E+00 0.  1.
<scales pt_clust_3="30.70348" pt_clust_4="297.61144" pt_clust_5="42.93037" pt_clust_6="30.70348"></scales>
<clustering>
<clus scale="   30.703">  3  6 -1 -1</clus>
<clus scale="   42.930">  1  5  2 -1</clus>
<clus scale="  297.611">  2  4  1 -1</clus>
<clus scale="  297.611">  2  3  1 -1</clus>
</clustering>
</event>
<event>
 6    0  0.1361744E+002  0.1221581E+03  0.7546771E-02  0.1239579E+00
          2   -1    0    0  504    0 -0.00000000000E+00  0.00000000000E+00  0.31109123810E+03  0.31109123810E+03  0.00000000000E+00 0.  1.
         21   -1    0    0  503  502  0.00000000000E+00 -0.00000000000E+00 -0.24253049853E+03  0.24253049853E+03  0.00000000000E+00 0. -1.
         21    1    1    2  503  501  0.50722017255E+02 -0.41496921880E+02 -0.35896506447E+02  0.74721327176E+02  0.00000000000E+00 0. -1.
         21    1    1    2  504  505 -0.42268813840E+02  0.14981696618E+02  0.60067500920E+01  0.45245827472E+02  0.00000000000E+00 0.  1.
         21    1    1    2  505  502  0.63396506829E+02 -0.35869423230E+02 -0.15046649055E+03  0.16717026464E+03  0.00000000000E+00 0. -1.
          2    1    1    2  501    0 -0.71849710244E+02  0.62384648491E+02  0.24891698648E+03  0.26648431734E+03  0.00000000000E+00 0.  1.
<scales pt_clust_3="62.67275" pt_clust_4="44.84533" pt_clust_5="122.15805" pt_clust_6="14000.00000"></scales>
<clustering>
<clus scale="   44.845">  1  4  2 -1</clus>
<clus scale="   62.673">  2  3  1 -1</clus>
<clus scale="  122.158">  2  5  1 -1</clus>
<clus scale="   62.673">  2  3  1 -1</clus>
</clustering>
</event>
<event>
 6    0  0.1361744E+002  0.1857927E+03  0.7546771E-02  0.1162312E+00
          3   -1    0    0  503    0 -0.00000000000E+00  0.00000000000E+00  0.91577467708E+03  0.91577467708E+03  0.00000000000E+00 0.  1.
         21   -1    0    0  504  502  0.00000000000E+00 -0.00000000000E+00 -0.50227291980E+03  0.50227291980E+03  0.00000000000E+00 0.  1.
         21    1    1    2  503  502 -0.70612128840E+01  0.16700527339E+03 -0.36451027345E+03  0.40100917885E+03  0.00000000000E+00 0.  1.
         21    1    1    2  504  505 -0.45756586733E+02 -0.94486448091E+01 -0.10486337310E+03  0.11480099797E+03  0.00000000000E+00 0.  1.
         21    1    1    2  505  501  0.61758962025E+02 -0.55658128202E+02  0.36372890992E+03  0.37310952351E+03  0.00000000000E+00 0.  1.
          3    1    1    2  501    0 -0.89411624081E+01 -0.10189850038E+03  0.51914649390E+03  0.52912789654E+03  0.00000000000E+00 0.  1.
<scales pt_clust_3="166.04021" pt_clust_4="46.72197" pt_clust_5="74.94386" pt_clust_6="74.94386"></scales>
<clustering>
<clus scale="   46.722">  2  4  1 -1</clus>
<clus scale="   74.944">  5  6 -1 -1</clus>
<clus scale="  166.040">  2  3  1 -1</clus>
<clus scale="   46.722">  2  3  1 -1</clus>
</clustering>
</event>
<event>
 6    0  0.1361744E+002  0.1072513E+03  0.7546771E-02  0.1265746E+00
         -2   -1    0    0    0  501 -0.00000000000E+00  0.00000000000E+00  0.80379536945E+03  0.80379536945E+03  0.00000000000E+00 0. -1.
         21   -1    0    0  503  502  0.00000000000E+00 -0.00000000000E+00 -0.26471154038E+03  0.26471154038E+03  0.00000000000E+00 0.  1.
         21    1    1    2  503  505  0.11153625108E+03 -0.19504777095E+02 -0.23779996602E+03  0.26338108413E+03  0.00000000000E+00 0.  1.
         21    1    1    2  504  502 -0.24619642212E+01  0.31130830434E+02  0.17448259786E+02  0.35771939294E+02  0.00000000000E+00 0.  1.
         21    1    1    2  505  501 -0.41808772780E+02  0.10328469518E+01  0.13902611492E+03  0.14518023585E+03  0.00000000000E+00 0. -1.
         -2    1    1    2    0  504 -0.67265514084E+02 -0.12658900290E+02  0.62040942039E+03  0.62417365056E+03  0.00000000000E+00 0. -1.
<scales pt_clust_3="107.25131" pt_clust_4="31.22803" pt_clust_5="41.86209" pt_clust_6="14000.00000"></scales>
<clustering>
<clus scale="   31.228">  2  4  1 -1</clus>
<clus scale="   41.862">  1  5  2 -1</clus>
<clus scale="  107.251">  2  3  1 -1</clus>
<clus scale="   31.228">  2  3  1 -1</clus>
</clustering>
</event>
<event>
 6    0  0.1361744E+002  0.1203472E+03  0.7546771E-02  0.1242525E+00
          2   -1    0    0  504    0 -0.00000000000E+00  0.00000000000E+00  0.96015348845E+03  0.96015348845E+03  0.00000000000E+00 0. -1.
         21   -1    0    0  503  502  0.00000000000E+00 -0.00000000000E+00 -0.84539479850E+03  0.84539479850E+03  0.00000000000E+00 0.  1.
         21    1    1    2  503  501 -0.44959534398E+02  0.10587489981E+01 -0.39524838473E+01  0.45145352045E+02  0.00000000000E+00 0.  1.
         21    1    1    2  504  505  0.45511388908E+02 -0.86109930581E+02 -0.31754660308E+03  0.33214763554E+03  0.00000000000E+00 0.  1.
         21    1    1    2  505  502  0.15566606670E+01 -0.35679441864E+02 -0.49143810640E+03  0.49273406437E+03  0.00000000000E+00 0.  1.
          2    1    1    2  501    0 -0.21085151772E+01  0.12073062345E+03  0.92769588329E+03  0.93552123500E+03  0.00000000000E+00 0. -1.
<scales pt_clust_3="44.87386" pt_clust_4="14000.00000" pt_clust_5="35.71338" pt_clust_6="120.34722"></scales>
<clustering>
<clus scale="   35.713">  2  5  1 -1</clus>
<clus scale="   44.874">  2  3  1 -1</clus>
<clus scale="  120.347">  1  6  2 -1</clus>
<clus scale="   35.713">  2  3  1 -1</clus>
</clustering>
</event>
<event>
 6    0  0.1361744E+002  0.2196659E+03  0.7546771E-02  0.1134132E+00
         21   -1    0    0  504  502  0.00000000000E+00  0.00000000000E+00  0.46147180963E+02  0.46147180963E+02  0.00000000000E+00 0. -1.
          1   -1    0    0  505    0 -0.00000000000E+00 -0.00000000000E+00 -0.12562279923E+04  0.12562279923E+04  0.00000000000E+00 0.  1.
         21    1    1    2  503  502  0.58922786571E+02 -0.14602578852E+03 -0.19357594139E+03  0.24953370669E+03  0.00000000000E+00 0. -1.
         21    1    1    2  504  501 -0.57615571507E+01  0.83801964172E+02 -0.39521601942E+03  0.40404413960E+03  0.00000000000E+00 0. -1.
         21    1    1    2  505  503 -0.26849008227E+01 -0.55252986215E+02 -0.13300535848E+03  0.14405043062E+03  0.00000000000E+00 0.  1.
          1    1    1    2  501    0 -0.50476328598E+02  0.11747681056E+03 -0.48828349206E+03  0.50474689636E+03  0.00000000000E+00 0.  1.
<scales pt_clust_3="40.10005" pt_clust_4="32.96288" pt_clust_5="40.10005" pt_clust_6="212.90787"></scales>
<clustering>
<clus scale="   32.963">  4  6 -1 -1</clus>
<clus scale="   40.100">  3  5 -1 -1</clus>
<clus scale="  212.908">  2  4  1 -1</clus>
<clus scale="  219.666">  1  3  2 -1</clus>
</clustering>
</event>
<event>
 6    0  0.1361744E+002  0.1378676E+03  0.7546771E-02  0.1216227E+00
         21   -1    0    0  501  502  0.00000000000E+00  0.00000000000E+00  0.23294988956E+03  0.23294988956E+03  0.00000000000E+00 0.  1.
          2   -1    0    0  504    0 -0.00000000000E+00 -0.00000000000E+00 -0.69816876416E+03  0.69816876416E+03  0.00000000000E+00 0.  1.
         21    1    1    2  503  502  0.32235071753E+02  0.61796209529E+02  0.61036537893E+02  0.92646264475E+02  0.00000000000E+00 0.  1.
         21    1    1    2  504  505 -0.23365198289E+01  0.30798405980E+02 -0.61428140957E+03  0.61505743739E+03  0.00000000000E+00 0.  1.
         21    1    1    2  505  503 -0.17492193353E+02  0.54153201714E+02  0.35416430444E+02  0.67028871612E+02  0.00000000000E+00 0.  1.
          2    1    1    2  501    0 -0.12406358570E+02 -0.14674781722E+03  0.52609566634E+02  0.15638608024E+03  0.00000000000E+00 0.  1.
<scales pt_clust_3="46.05228" pt_clust_4="30.88691" pt_clust_5="46.05228" pt_clust_6="128.35934"></scales>
<clustering>
<clus scale="   30.887">  2  4  1 -1</clus>
<clus scale="   46.052">  3  5 -1 -1</clus>
<clus scale="  128.359">  2  6  1 -1</clus>
<clus scale="  137.868">  1  3  2 -1</clus>
</clustering>
</event>
<event>
 6    0  0.1361744E+002  0.9125329E+02  0.7546771E-02  0.1299845E+00
          2   -1    0    0  503    0 -0.00000000000E+00  0.00000000000E+00  0.35539668005E+04  0.35539668005E+04  0.00000000000E+00 0.  1.
         21   -1    0    0  505  502  0.00000000000E+00 -0.00000000000E+00 -0.39703377198E+02  0.39703377198E+02  0.00000000000E+00 0.  1.
         21    1    1    2  503  502 -0.37324950404E+02 -0.20491938014E+02  0.58982802957E+03  0.59136298152E+03  0.00000000000E+00 0.  1.
         21    1    1    2  504  501 -0.69117218793E+02  0.12586787215E+02  0.10085315414E+03  0.12291043831E+03  0.00000000000E+00 0.  1.
         21    1    1    2  505  504 -0.18715254769E+02 -0.44330431101E+02 -0.42572111395E+01  0.48307056724E+02  0.00000000000E+00 0.  1.
          2    1    1    2  501    0  0.12515742397E+03  0.52235581899E+02  0.28278394508E+04  0.28310897012E+04  0.00000000000E+00 0.  1.
<scales pt_clust_3="42.58018" pt_clust_4="14000.00000" pt_clust_5="48.36771" pt_clust_6="91.25329"></scales>
<clustering>
<clus scale="   42.580">  1  3  2 -1</clus>
<clus scale="   48.368">  2  5  1 -1</clus>
<clus scale="   91.253">  1  6  2 -1</clus>
<clus scale="   48.368">  2  3  1 -1</clus>
</clustering>
</event>
<event>
 6    0  0.1361744E+002  0.1175109E+03  0.7546771E-02  0.1247261E+00
         21   -1    0    0  505  502  0.00000000000E+00  0.00000000000E+00  0.12371645487E+02  0.12371645487E+02  0.00000000000E+00 0. -1.
          2   -1    0    0  504    0 -0.00000000000E+00 -0.00000000000E+00 -0.41120394128E+04  0.41120394128E+04  0.00000000000E+00 0.  1.
         21    1    1    2  503  501 -0.50589203048E+02 -0.81995867024E+02 -0.35654598615E+03  0.36933403568E+03  0.00000000000E+00 0. -1.
         21    1    1    2  504  502  0.27666719311E+02  0.66719340452E+02 -0.74325979604E+03  0.74676103417E+03  0.00000000000E+00 0. -1.
         21    1    1    2  505  503  0.35102273611E+02 -0.72327321904E+02 -0.46409509298E+03  0.47100707684E+03  0.00000000000E+00 0. -1.
          2    1    1    2  501    0 -0.12179789874E+02  0.87603848477E+02 -0.25357668921E+04  0.25373089116E+04  0.00000000000E+00 0.  1.
<scales pt_clust_3="14000.00000" pt_clust_4="72.22823" pt_clust_5="74.11836" pt_clust_6="117.51095"></scales>
<clustering>
<clus scale="   72.228">  2  4  1 -1</clus>
<clus scale="   74.118">  1  5  2 -1</clus>
<clus scale="  117.511">  2  6  1 -1</clus>
<clus scale="   74.118">  1  3  2 -1</clus>
</clustering>
</event>
<event>
 6    0  0.1361744E+002  0.1380526E+03  0.7546771E-02  0.1215974E+00
          2   -1    0    0  504    0 -0.00000000000E+00  0.00000000000E+00  0.77743978877E+03  0.77743978877E+03  0.00000000000E+00 0. -1.
         21   -1    0    0  503  502  0.00000000000E+00 -0.00000000000E+00 -0.75951693119E+03  0.75951693119E+03  0.00000000000E+00 0. -1.
         21    1    1    2  503  501 -0.89699232564E+02 -0.22466554690E+02 -0.61524414362E+03  0.62215436562E+03  0.00000000000E+00 0. -1.
         21    1    1    2  504  505 -0.30876306989E+02  0.89886149828E+02  0.63916860361E+01  0.95256075474E+02  0.00000000000E+00 0. -1.
         21    1    1    2  505  502 -0.15864012487E+02 -0.42850849859E+02 -0.83867516283E+02  0.95507185664E+02  0.00000000000E+00 0. -1.
          2    1    1    2  501    0  0.13643955204E+03 -0.24568745278E+02  0.71064283145E+03  0.72403909321E+03  0.00000000000E+00 0. -1.
<scales pt_clust_3="138.05261" pt_clust_4="92.71485" pt_clust_5="45.69313" pt_clust_6="14000.00000"></scales>
<clustering>
<clus scale="   45.693">  2  5  1 -1</clus>
<clus scale="   92.715">  2  4  1 -1</clus>
<clus scale="  138.053">  2  3  1 -1</clus>
<clus scale="   45.693">  2  3  1 -1</clus>
</clustering>
</event>
<event>
 6    0  0.1361744E+002  0.1506911E+03  0.7546771E-02  0.1199626E+00
         21   -1    0    0  505  502  0.00000000000E+00  0.00000000000E+00  0.47654285711E+02  0.47654285711E+02  0.00000000000E+00 0.  1.
          1   -1    0    0  503    0 -0.00000000000E+00 -0.00000000000E+00 -0.19545908268E+04  0.19545908268E+04  0.00000000000E+00 0. -1.
         21    1    1    2  503  504 -0.15546664549E+02 -0.69091379733E+02 -0.77621318378E+02  0.10507324397E+03  0.00000000000E+00 0. -1.
         21    1    1    2  504  502 -0.41110904251E+02 -0.63834913919E+02 -0.17416057246E+02  0.77899433460E+02  0.00000000000E+00 0.  1.
         21    1    1    2  505  501  0.18667140326E+02  0.10064995852E+03 -0.86036927529E+03  0.86643762969E+03  0.00000000000E+00 0. -1.
          1    1    1    2  501    0  0.37990428473E+02  0.32276335130E+02 -0.95152989020E+03  0.95283480542E+03  0.00000000000E+00 0. -1.
<scales pt_clust_3="57.06670" pt_clust_4="57.06670" pt_clust_5="138.34884" pt_clust_6="49.85012"></scales>
<clustering>
<clus scale="   49.850">  2  6  1 -1</clus>
<clus scale="   57.067">  3  4 -1 -1</clus>
<clus scale="  138.349">  2  5  1 -1</clus>
<clus scale="  150.691">  1  3  2 -1</clus>
</clustering>
</event>
<event>
 6    0  0.1361744E+002  0.1481820E+03  0.7546771E-02  0.1202725E+00
          1   -1    0    0  505    0 -0.00000000000E+00  0.00000000000E+00  0.19975662543E+04  0.19975662543E+04  0.00000000000E+00 0. -1.
         21   -1    0    0  501  502  0.00000000000E+00 -0.00000000000E+00 -0.29261722865E+03  0.29261722865E+03  0.00000000000E+00 0.  1.
         21    1    1    2  503  502  0.14230990612E+02 -0.34395166729E+02 -0.18363703641E+02  0.41506315176E+02  0.00000000000E+00 0. -1.
         21    1    1    2  504  503 -0.59727888651E+02 -0.10765575768E+03 -0.24457267411E+03  0.27381193503E+03  0.00000000000E+00 0.  1.
         21    1    1    2  505  504 -0.20076575693E+02  0.34738282678E+02  0.48376627165E+03  0.48542725795E+03  0.00000000000E+00 0. -1.
          1    1    1    2  501    0  0.65573473732E+02  0.10731264173E+03  0.14841191318E+04  0.14894379748E+04  0.00000000000E+00 0. -1.
<scales pt_clust_3="37.22296" pt_clust_4="14000.00000" pt_clust_5="40.00587" pt_clust_6="148.18203"></scales>
<clustering>
<clus scale="   37.223">  2  3  1 -1</clus>
<clus scale="   40.006">  1  5  2 -1</clus>
<clus scale="  148.182">  1  6  2 -1</clus>
<clus scale="   37.223">  2  3  1 -1</clus>
</clustering>
</event>
<event>
 6    0  0.1361744E+002  0.1123684E+03  0.7546771E-02  0.1256246E+00
          2   -1    0    0  504    0 -0.00000000000E+00  0.00000000000E+00  0.30072941257E+04  0.30072941257E+04  0.00000000000E+00 0. -1.
         21   -1    0    0  503  502  0.00000000000E+00 -0.00000000000E+00 -0.11142839706E+02  0.11142839706E+02  0.00000000000E+00 0.  1.
         21    1    1    2  503  501 -0.20512785964E+02 -0.30793035233E+02  0.11638417938E+03  0.12212396413E+03  0.00000000000E+00 0.  1.
         21    1    1    2  504  505  0.28486069844E+02 -0.39260818550E+02  0.19936552096E+03  0.20518157567E+03  0.00000000000E+00 0.  1.
         21    1    1    2  505  502  0.56013113223E+02 -0.17722587029E+02  0.20250155188E+03  0.21085169541E+03  0.00000000000E+00 0.  1.
          2    1    1    2  501    0 -0.63986397103E+02  0.87776440813E+02  0.24779000338E+04  0.24802797302E+04  0.00000000000E+00 0. -1.
<scales pt_clust_3="36.99980" pt_clust_4="31.46754" pt_clust_5="31.46754" pt_clust_6="106.89876"></scales>
<clustering>
<clus scale="   31.468">  4  5 -1 -1</clus>
<clus scale="   37.000">  2  3  1 -1</clus>
<clus scale="  106.899">  1  6  2 -1</clus>
<clus scale="   37.000">  2  3  1 -1</clus>
</clustering>
</event>
<event>
 6    0  0.1361744E+002  0.1155477E+03  0.7546771E-02  0.1250628E+00
          2   -1    0    0  505    0 -0.00000000000E+00  0.00000000000E+00  0.10222026626E+04  0.10222026626E+04  0.00000000000E+00 0.  1.
         21   -1    0    0  504  502  0.00000000000E+00 -0.00000000000E+00 -0.64786131309E+02  0.64786131309E+02  0.00000000000E+00 0.  1.
         21    1    1    2  503  502  0.36556639801E+02 -0.54818569336E+01  0.45187365063E+02  0.58380961198E+02  0.00000000000E+00 0.  1.
         21    1    1    2  504  501  0.33983644534E+02 -0.93465457501E+02 -0.38539124347E-01  0.99451904592E+02  0.00000000000E+00 0.  1.
         21    1    1    2  505  503 -0.43195506546E+02 -0.12959734201E+02  0.46900442884E+03  0.47116765675E+03  0.00000000000E+00 0.  1.
          2    1    1    2  501    0 -0.27344777789E+02  0.11190704864E+03  0.44326327651E+03  0.45798827137E+03  0.00000000000E+00 0.  1.
<scales pt_clust_3="36.96537" pt_clust_4="115.54775" pt_clust_5="44.47714" pt_clust_6="14000.00000"></scales>
<clustering>
<clus scale="   36.965">  2  3  1 -1</clus>
<clus scale="   44.477">  1  5  2 -1</clus>
<clus scale="  115.548">  2  4  1 -1</clus>
<clus scale="   36.965">  2  3  1 -1</clus>
</clustering>
</event>
<event>
 6    0  0.1361744E+002  0.1656769E+03  0.7546771E-02  0.1182433E+00
         21   -1    0    0  501  502  0.00000000000E+00  0.00000000000E+00  0.23400509637E+03  0.23400509637E+03  0.00000000000E+00 0.  1.
          2   -1    0    0  503    0 -0.00000000000E+00 -0.00000000000E+00 -0.78928508004E+03  0.78928508004E+03  0.00000000000E+00 0.  1.
         21    1    1    2  503  505  0.53356163326E+00  0.42861364454E+02 -0.59596957641E+02  0.73411025132E+02  0.00000000000E+00 0. -1.
         21    1    1    2  504  502 -0.53476778328E+02  0.22771984375E+02  0.49857251503E+02  0.76577246100E+02  0.00000000000E+00 0. -1.
         21    1    1    2  505  504 -0.10428788918E+03 -0.18542594569E+02  0.13593982717E+03  0.17233522059E+03  0.00000000000E+00 0.  1.
          2    1    1    2  501    0  0.15723110588E+03 -0.47090754260E+02 -0.68148010470E+03  0.70096668459E+03  0.00000000000E+00 0.  1.
<scales pt_clust_3="42.86469" pt_clust_4="37.25444" pt_clust_5="37.25444" pt_clust_6="157.85930"></scales>
<clustering>
<clus scale="   37.254">  4  5 -1 -1</clus>
<clus scale="   42.865">  2  3  1 -1</clus>
<clus scale="  157.859">  2  6  1 -1</clus>
<clus scale="  165.677">  1  3  2 -1</clus>
</clustering>
</event>
<event>
 6    0  0.1361744E+002  0.1473196E+03  0.7546771E-02  0.1203806E+00
          2   -1    0    0  504    0 -0.00000000000E+00  0.00000000000E+00  0.33516756784E+04  0.33516756784E+04  0.00000000000E+00 0. -1.
         21   -1    0    0  505  502  0.00000000000E+00 -0.00000000000E+00 -0.87825835847E+01  0.87825835847E+01  0.00000000000E+00 0. -1.
         21    1    1    2  503  502 -0.43854655096E+02  0.31639692565E+02  0.23919242573E+03  0.24522911215E+03  0.00000000000E+00 0. -1.
         21    1    1    2  504  503 -0.12546001971E+02  0.90650564555E+02  0.55990585228E+03  0.56733543027E+03  0.00000000000E+00 0. -1.
         21    1    1    2  505  501  0.61467933792E+02 -0.82913356601E+02  0.16578372731E+04  0.16610470661E+04  0.00000000000E+00 0. -1.
          2    1    1    2  501    0 -0.50672767240E+01 -0.39376900520E+02  0.88595754369E+03  0.88684665349E+03  0.00000000000E+00 0. -1.
<scales pt_clust_3="45.91136" pt_clust_4="45.91136" pt_clust_5="32.43153" pt_clust_6="144.46569"></scales>
<clustering>
<clus scale="   32.432">  5  6 -1 -1</clus>
<clus scale="   45.911">  3  4 -1 -1</clus>
<clus scale="  144.466">  1  5  2 -1</clus>
<clus scale="  147.320">  2  3  1 -1</clus>
</clustering>
</event>
<event>
 6    0  0.1361744E+002  0.1382726E+03  0.7546771E-02  0.1215672E+00
         21   -1    0    0  503  502  0.00000000000E+00  0.00000000000E+00  0.26885619370E+03  0.26885619370E+03  0.00000000000E+00 0. -1.
          1   -1    0    0  504    0 -0.00000000000E+00 -0.00000000000E+00 -0.44204372763E+03  0.44204372763E+03  0.00000000000E+00 0. -1.
         21    1    1    2  503  501  0.14171872145E+03 -0.70140427265E+02  0.12532774817E+03  0.20176947244E+03  0.00000000000E+00 0. -1.
         21    1    1    2  504  505  0.70650609053E+01 -0.31211831743E+02 -0.51610114657E+02  0.60726414856E+02  0.00000000000E+00 0. -1.
         21    1    1    2  505  502 -0.10108958097E+03 -0.57586341423E+02  0.34820083069E+02  0.12144022515E+03  0.00000000000E+00 0. -1.
          1    1    1    2  501    0 -0.47694201380E+02  0.15893860043E+03 -0.28172525051E+03  0.32696380889E+03  0.00000000000E+00 0. -1.
<scales pt_clust_3="138.27257" pt_clust_4="32.00146" pt_clust_5="117.43653" pt_clust_6="14000.00000"></scales>
<clustering>
<clus scale="   32.001">  2  4  1 -1</clus>
<clus scale="  117.437">  1  5  2 -1</clus>
<clus scale="  138.273">  1  3  2 -1</clus>
<clus scale="  117.437">  1  3  2 -1</clus>
</clustering>
</event>
<event>
 6    0  0.1361744E+002  0.2437165E+03  0.7546771E-02  0.1117341E+00
         21   -1    0    0  503  502  0.00000000000E+00  0.00000000000E+00  0.13271961387E+03  0.13271961387E+03  0.00000000000E+00 0.  1.
         -2   -1    0    0    0  501 -0.00000000000E+00 -0.00000000000E+00 -0.93586136600E+03  0.93586136600E+03  0.00000000000E+00 0.  1.
         21    1    1    2  503  505  0.14101845986E+03 -0.93430044612E+02  0.14553376943E+01  0.16916706909E+03  0.00000000000E+00 0.  1.
         21    1    1    2  504  501 -0.99107615974E+01  0.29820956540E+02 -0.49583232359E+02  0.58702722046E+02  0.00000000000E+00 0. -1.
         21    1    1    2  505  504  0.72754509479E+02 -0.17442230792E+02 -0.25686612924E+02  0.79102794818E+02  0.00000000000E+00 0.  1.
         -2    1    1    2    0  502 -0.20386220774E+03  0.81051318864E+02 -0.72932724455E+03  0.76160839391E+03  0.00000000000E+00 0.  1.
<scales pt_clust_3="36.80024" pt_clust_4="31.42471" pt_clust_5="36.80024" pt_clust_6="237.35733"></scales>
<clustering>
<clus scale="   31.425">  2  4  1 -1</clus>
<clus scale="   36.800">  3  5 -1 -1</clus>
<clus scale="  237.357">  2  6  1 -1</clus>
<clus scale="  243.716">  1  3  2 -1</clus>
</clustering>
</event>
<event>
 6    0  0.1361744E+002  0.1737699E+03  0.7546771E-02  0.1173972E+00
         21   -1    0    0  501  502  0.00000000000E+00  0.00000000000E+00  0.14591271833E+03  0.14591271833E+03  0.00000000000E+00 0.  1.
          2   -1    0    0  505    0 -0.00000000000E+00 -0.00000000000E+00 -0.52249877405E+03  0.52249877405E+03  0.00000000000E+00 0.  1.
         21    1    1    2  503  504 -0.46534521852E+02  0.54161835592E+02  0.26688537670E+01  0.71456902669E+02  0.00000000000E+00 0.  1.
         21    1    1    2  504  502  0.67190752386E+02  0.93376184123E+02  0.24331081882E+02  0.11758278153E+03  0.00000000000E+00 0.  1.
         21    1    1    2  505  503 -0.28274988863E+02  0.46922071320E+02 -0.43080898403E+02  0.69693038242E+02  0.00000000000E+00 0.  1.
          2    1    1    2  501    0  0.76187583290E+01 -0.19446009103E+03 -0.36050509297E+03  0.40967876994E+03  0.00000000000E+00 0.  1.
<scales pt_clust_3="43.58181" pt_clust_4="115.03786" pt_clust_5="43.58181" pt_clust_6="166.49395"></scales>
<clustering>
<clus scale="   43.582">  3  5 -1 -1</clus>
<clus scale="  115.038">  1  4  2 -1</clus>
<clus scale="  166.494">  2  6  1 -1</clus>
<clus scale="  115.038">  1  3  2 -1</clus>
</clustering>
</event>
<event>
 6    0  0.1361744E+002  0.1087806E+03  0.7546771E-02  0.1262845E+00
          2   -1    0    0  504    0 -0.00000000000E+00  0.00000000000E+00  0.29427904827E+04  0.29427904827E+04  0.00000000000E+00 0.  1.
         21   -1    0    0  505  502  0.00000000000E+00 -0.00000000000E+00 -0.38607348423E+03  0.38607348423E+03  0.00000000000E+00 0.  1.
         21    1    1    2  503  501  0.63060793088E+02  0.67876639826E+02 -0.11574692152E+03  0.14826075576E+03  0.00000000000E+00 0.  1.
         21    1    1    2  504  502 -0.69927880047E+02  0.27838506793E+01  0.14281629299E+03  0.15904135241E+03  0.00000000000E+00 0.  1.
         21    1    1    2  505  503  0.43712261524E+02  0.31892958985E+02 -0.24189733403E+03  0.24787545835E+03  0.00000000000E+00 0.  1.
          2    1    1    2  501    0 -0.36845174565E+02 -0.10255344949E+03  0.27715449610E+04  0.27736864004E+04  0.00000000000E+00 0.  1.
<scales pt_clust_3="108.78059" pt_clust_4="67.57407" pt_clust_5="54.11028" pt_clust_6="14000.00000"></scales>
<clustering>
<clus scale="   54.110">  2  5  1 -1</clus>
<clus scale="   67.574">  2  4  1 -1</clus>
<clus scale="  108.781">  2  3  1 -1</clus>
<clus scale="   54.110">  2  3  1 -1</clus>
</clustering>
</event>
<event>
 6    0  0.1361744E+002  0.1675596E+03  0.7546771E-02  0.1180417E+00
         -2   -1    0    0    0  501 -0.00000000000E+00  0.00000000000E+00  0.10277437991E+03  0.10277437991E+03  0.00000000000E+00 0.  1.
         21   -1    0    0  504  502  0.00000000000E+00 -0.00000000000E+00 -0.64033555169E+03  0.64033555169E+03  0.00000000000E+00 0.  1.
         21    1    1    2  503  502  0.38491969959E+02 -0.41935908961E+01 -0.53696475990E+02  0.66200675901E+02  0.00000000000E+00 0. -1.
         21    1    1    2  504  501 -0.17680181183E+03  0.30400210143E+02 -0.42615685404E+03  0.46237724608E+03  0.00000000000E+00 0.  1.
         21    1    1    2  505  503  0.84770844715E+02  0.54387152855E+02 -0.60945143225E+02  0.11772157403E+03  0.00000000000E+00 0. -1.
         -2    1    1    2    0  505  0.53538997151E+02 -0.80593772102E+02  0.32373014825E+01  0.96810435587E+02  0.00000000000E+00 0.  1.
<scales pt_clust_3="33.79923" pt_clust_4="158.44445" pt_clust_5="33.79923" pt_clust_6="96.75629"></scales>
<clustering>
<clus scale="   33.799">  3  5 -1 -1</clus>
<clus scale="   96.756">  1  6  2 -1</clus>
<clus scale="  158.444">  2  4  1 -1</clus>
<clus scale="  158.444">  2  3  1 -1</clus>
</clustering>
</event>
<event>
 6    0  0.1361744E+002  0.1382941E+03  0.7546771E-02  0.1215643E+00
         21   -1    0    0  504  502  0.00000000000E+00  0.00000000000E+00  0.51556309253E+03  0.51556309253E+03  0.00000000000E+00 0.  1.
          2   -1    0    0  505    0 -0.00000000000E+00 -0.00000000000E+00 -0.29247084315E+04  0.29247084315E+04  0.00000000000E+00 0.  1.
         21    1    1    2  503  502 -0.26843143222E+02  0.21936160262E+02  0.39006880310E+02  0.52185114511E+02  0.00000000000E+00 0.  1.
         21    1    1    2  504  501 -0.96645369247E+02  0.42868543997E+02  0.46026384616E+03  0.47225083117E+03  0.00000000000E+00 0.  1.
         21    1    1    2  505  503  0.64570768694E+02 -0.82350791870E+02 -0.83823394004E+03  0.84474089242E+03  0.00000000000E+00 0.  1.
          2    1    1    2  501    0  0.58917743775E+02  0.17546087612E+02 -0.20701821254E+04  0.20710946860E+04  0.00000000000E+00 0.  1.
<scales pt_clust_3="34.66626" pt_clust_4="138.29409" pt_clust_5="14000.00000" pt_clust_6="61.45603"></scales>
<clustering>
<clus scale="   34.666">  1  3  2 -1</clus>
<clus scale="   61.456">  2  6  1 -1</clus>
<clus scale="  138.294">  1  4  2 -1</clus>
<clus scale="   34.666">  1  3  2 -1</clus>
</clustering>
</event>
<event>
 6    0  0.1361744E+002  0.5064492E+03  0.7546771E-02  0.1012109E+00
         21   -1    0    0  505  502  0.00000000000E+00  0.00000000000E+00  0.16232597100E+03  0.16232597100E+03  0.00000000000E+00 0.  1.
          1   -1    0    0  504    0 -0.00000000000E+00 -0.00000000000E+00 -0.16088898371E+04  0.16088898371E+04  0.00000000000E+00 0.  1.
         21    1    1    2  503  502 -0.20813120622E+02  0.29403638000E+03 -0.28878583195E+03  0.41265946674E+03  0.00000000000E+00 0.  1.
         21    1    1    2  504  503  0.23042849031E+02  0.19333267605E+03 -0.22822883258E+03  0.29999482752E+03  0.00000000000E+00 0. -1.
         21    1    1    2  505  501  0.31325358731E+02 -0.94098972537E+02 -0.10511818212E+03  0.14451895012E+03  0.00000000000E+00 0. -1.
          1    1    1    2  501    0 -0.33555087140E+02 -0.39327008351E+03 -0.82443101948E+03  0.91404256374E+03  0.00000000000E+00 0.  1.
<scales pt_clust_3="490.48138" pt_clust_4="44.79858" pt_clust_5="69.01722" pt_clust_6="69.01722"></scales>
<clustering>
<clus scale="   44.799">  3  4 -1 -1</clus>
<clus scale="   69.017">  5  6 -1 -1</clus>
<clus scale="  490.481">  1  3  2 -1</clus>
<clus scale="  490.481">  1  3  2 -1</clus>
</clustering>
</event>
<event>
 6    0  0.1361744E+002  0.8202693E+02  0.7546771E-02  0.1323396E+00
         21   -1    0    0  501  502  0.00000000000E+00  0.00000000000E+00  0.90328971609E+02  0.90328971609E+02  0.00000000000E+00 0. -1.
          2   -1    0    0  505    0 -0.00000000000E+00 -0.00000000000E+00 -0.82874781704E+03  0.82874781704E+03  0.00000000000E+00 0. -1.
         21    1    1    2  503  502  0.39073935361E+02 -0.13051981574E+02  0.27349628738E+02  0.49448244050E+02  0.00000000000E+00 0. -1.
         21    1    1    2  504  503 -0.99254821483E+01 -0.41875951211E+02  0.29288495341E+02  0.52056953858E+02  0.00000000000E+00 0. -1.
         21    1    1    2  505  504 -0.10095841754E+03  0.22388571886E+02 -0.32824757291E+03  0.34415159355E+03  0.00000000000E+00 0. -1.
          2    1    1    2  501    0  0.71809964325E+02  0.32539360898E+02 -0.46680939660E+03  0.47341999719E+03  0.00000000000E+00 0. -1.
<scales pt_clust_3="41.19620" pt_clust_4="56.05213" pt_clust_5="82.02693" pt_clust_6="14000.00000"></scales>
<clustering>
<clus scale="   41.196">  1  3  2 -1</clus>
<clus scale="   56.052">  1  4  2 -1</clus>
<clus scale="   82.027">  1  5  2 -1</clus>
<clus scale="   41.196">  1  3  2 -1</clus>
</clustering>
</event>
<event>
 6    0  0.1361744E+002  0.2585883E+03  0.7546771E-02  0.1107994E+00
         21   -1    0    0  504  502  0.00000000000E+00  0.00000000000E+00  0.20818798378E+03  0.20818798378E+03  0.00000000000E+00 0. -1.
          2   -1    0    0  505    0 -0.00000000000E+00 -0.00000000000E+00 -0.35017869042E+03  0.35017869042E+03  0.00000000000E+00 0.  1.
         21    1    1    2  503  502 -0.22416839081E+02 -0.27924928889E+02  0.26186711379E+02  0.44362824309E+02  0.00000000000E+00 0. -1.
         21    1    1    2  504  501  0.85030080642E+02  0.73548598022E+02 -0.33528421693E+02  0.11731865131E+03  0.00000000000E+00 0.  1.
         21    1    1    2  505  503 -0.19758649107E+03 -0.74425963852E+02 -0.11066627227E+02  0.21142874872E+03  0.00000000000E+00 0. -1.
          2    1    1    2  501    0  0.13497324950E+03  0.28802294719E+02 -0.12358236910E+03  0.18525644986E+03  0.00000000000E+00 0.  1.
<scales pt_clust_3="32.74876" pt_clust_4="80.68019" pt_clust_5="255.34430" pt_clust_6="80.68019"></scales>
<clustering>
<clus scale="   32.749">  3  5 -1 -1</clus>
<clus scale="   80.680">  4  6 -1 -1</clus>
<clus scale="  255.344">  1  3  2 -1</clus>
<clus scale="  255.344">  1  3  2 -1</clus>
</clustering>
</event>
<event>
 6    0  0.1361744E+002  0.1666267E+03  0.7546771E-02  0.1181412E+00
         -3   -1    0    0    0  501 -0.00000000000E+00  0.00000000000E+00  0.14697417438E+03  0.14697417438E+03  0.00000000000E+00 0.  1.
         21   -1    0    0  504  502  0.00000000000E+00 -0.00000000000E+00 -0.57498825717E+03  0.57498825717E+03  0.00000000000E+00 0.  1.
         21    1    1    2  503  505 -0.21486530692E+02  0.43824050555E+02 -0.66837112502E+02  0.82761210817E+02  0.00000000000E+00 0.  1.
         21    1    1    2  504  501  0.74167317422E+02 -0.10732687749E+03 -0.81030798487E+02  0.15357682087E+03  0.00000000000E+00 0.  1.
         21    1    1    2  505  502  0.29859087837E+02  0.13006444278E+03 -0.33902217881E+03  0.36434099705E+03  0.00000000000E+00 0.  1.
         -3    1    1    2    0  503 -0.82539874567E+02 -0.66561615853E+02  0.58876007002E+02  0.12128340282E+03  0.00000000000E+00 0.  1.
<scales pt_clust_3="42.20973" pt_clust_4="151.30484" pt_clust_5="42.20973" pt_clust_6="106.03433"></scales>
<clustering>
<clus scale="   42.210">  3  5 -1 -1</clus>
<clus scale="  106.034">  1  6  2 -1</clus>
<clus scale="  151.305">  1  4  2 -1</clus>
<clus scale="  166.627">  2  3  1 -1</clus>
</clustering>
</event>
<event>
 6    0  0.1361744E+002  0.1295709E+03  0.7546771E-02  0.1228094E+00
         21   -1    0    0  503  502  0.00000000000E+00  0.00000000000E+00  0.31196435306E+02  0.31196435306E+02  0.00000000000E+00 0. -1.
          2   -1    0    0  504    0 -0.00000000000E+00 -0.00000000000E+00 -0.25797590564E+04  0.25797590564E+04  0.00000000000E+00 0.  1.
         21    1    1    2  503  501  0.86783806324E+01 -0.41818032891E+02 -0.17471504893E+03  0.17985941868E+03  0.00000000000E+00 0. -1.
         21    1    1    2  504  505  0.33328428521E+02 -0.14883468192E+01 -0.50320644942E+03  0.50431114410E+03  0.00000000000E+00 0. -1.
         21    1    1    2  505  502 -0.77101130379E+02 -0.74520589163E+02 -0.84774943580E+02  0.13669196602E+03  0.00000000000E+00 0. -1.
          2    1    1    2  501    0  0.35094321225E+02  0.11782696887E+03 -0.17858661792E+04  0.17900929629E+04  0.00000000000E+00 0.  1.
<scales pt_clust_3="43.49954" pt_clust_4="33.36164" pt_clust_5="129.57093" pt_clust_6="14000.00000"></scales>
<clustering>
<clus scale="   33.362">  2  4  1 -1</clus>
<clus scale="   43.500">  1  3  2 -1</clus>
<clus scale="  129.571">  1  5  2 -1</clus>
<clus scale="   43.500">  1  3  2 -1</clus>
</clustering>
</event>
<event>
 6    0  0.1361744E+002  0.1526156E+03  0.7546771E-02  0.1197295E+00
         21   -1    0    0  503  502  0.00000000000E+00  0.00000000000E+00  0.20262044278E+03  0.20262044278E+03  0.00000000000E+00 0.  1.
          2   -1    0    0  502    0 -0.00000000000E+00 -0.00000000000E+00 -0.70289563007E+03  0.70289563007E+03  0.00000000000E+00 0.  1.
         21    1    1    2  503  505  0.30721324284E+02 -0.59800861592E+02  0.10237604176E+03  0.12247773977E+03  0.00000000000E+00 0.  1.
         21    1    1    2  504  501 -0.66852800318E+01  0.51495609620E+02 -0.13212663357E+03  0.14196456627E+03  0.00000000000E+00 0.  1.
         21    1    1    2  505  504 -0.11374574421E+02 -0.79903831640E+02  0.61604976440E+02  0.10153411435E+03  0.00000000000E+00 0. -1.
          2    1    1    2  501    0 -0.12661469831E+02  0.88209083611E+02 -0.53212957193E+03  0.53953965246E+03  0.00000000000E+00 0.  1.
<scales pt_clust_3="53.21700" pt_clust_4="43.98429" pt_clust_5="53.21700" pt_clust_6="152.35384"></scales>
<clustering>
<clus scale="   43.984">  4  6 -1 -1</clus>
<clus scale="   53.217">  3  5 -1 -1</clus>
<clus scale="  152.354">  2  4  1 -1</clus>
<clus scale="  152.616">  1  3  2 -1</clus>
</clustering>
</event>
<event>
 6    0  0.1361744E+002  0.1190642E+03  0.7546771E-02  0.1244649E+00
          2   -1    0    0  503    0 -0.00000000000E+00  0.00000000000E+00  0.15803927019E+04  0.15803927019E+04  0.00000000000E+00 0.  1.
         21   -1    0    0  505  502  0.00000000000E+00 -0.00000000000E+00 -0.10582786253E+03  0.10582786253E+03  0.00000000000E+00 0. -1.
         21    1    1    2  503  504  0.79361247257E+02 -0.66627562506E+00  0.10981424502E+03  0.13549103254E+03  0.00000000000E+00 0. -1.
         21    1    1    2  504  502  0.41223202904E+01  0.49421654143E+02 -0.67139326363E+02  0.83469650576E+02  0.00000000000E+00 0. -1.
         21    1    1    2  505  501 -0.26067011493E+02 -0.15111960458E+03  0.39459237293E+03  0.42334355405E+03  0.00000000000E+00 0. -1.
          2    1    1    2  501    0 -0.57416556055E+02  0.10236422606E+03  0.10372975477E+04  0.10439163272E+04  0.00000000000E+00 0.  1.
<scales pt_clust_3="83.55400" pt_clust_4="49.59328" pt_clust_5="14000.00000" pt_clust_6="119.06425"></scales>
<clustering>
<clus scale="   49.593">  2  4  1 -1</clus>
<clus scale="   83.554">  2  3  1 -1</clus>
<clus scale="  119.064">  1  6  2 -1</clus>
<clus scale="   49.593">  2  3  1 -1</clus>
</clustering>
</event>
<event>
 6    0  0.1402694E+002  0.1465324E+03  0.7546771E-02  0.1204800E+00
         -1   -1    0    0    0  501 -0.00000000000E+00  0.00000000000E+00  0.22742812424E+03  0.22742812424E+03  0.00000000000E+00 0.  1.
         21   -1    0    0  505  502  0.00000000000E+00 -0.00000000000E+00 -0.11003965126E+04  0.11003965126E+04  0.00000000000E+00 0. -1.
         21    1    1    2  503  501  0.17862214121E+02  0.61339471933E+02 -0.31515810181E+02  0.71237881788E+02  0.00000000000E+00 0. -1.
         21    1    1    2  504  503 -0.12461562540E+02  0.35266690871E+02  0.36968947670E+01  0.37585862460E+02  0.00000000000E+00 0.  1.
         21    1    1    2  505  504 -0.35435492367E+02 -0.14208270967E+03 -0.10227738990E+04  0.10332035709E+04  0.00000000000E+00 0. -1.
         -1    1    1    2    0  502  0.30034840787E+02  0.45476546863E+02  0.17762442610E+03  0.18579732162E+03  0.00000000000E+00 0.  1.
<scales pt_clust_3="31.61116" pt_clust_4="31.61116" pt_clust_5="140.58784" pt_clust_6="54.49961"></scales>
<clustering>
<clus scale="   31.611">  3  4 -1 -1</clus>
<clus scale="   54.500">  1  6  2 -1</clus>
<clus scale="  140.588">  2  5  1 -1</clus>
<clus scale="  140.588">  2  3  1 -1</clus>
</clustering>
</event>
<event>
 6    0  0.1361744E+002  0.9953746E+02  0.7546771E-02  0.1281272E+00
          1   -1    0    0  504    0 -0.00000000000E+00  0.00000000000E+00  0.19633423758E+04  0.19633423758E+04  0.00000000000E+00 0.  1.
         21   -1    0    0  505  502  0.00000000000E+00 -0.00000000000E+00 -0.11857385169E+03  0.11857385169E+03  0.00000000000E+00 0. -1.
         21    1    1    2  503  502  0.75537085811E+02 -0.44059207921E+00 -0.86778011457E+02  0.11504985322E+03  0.00000000000E+00 0. -1.
         21    1    1    2  504  503 -0.57523115383E+02 -0.63009879354E+02  0.98924462899E+03  0.99291696012E+03  0.00000000000E+00 0. -1.
         21    1    1    2  505  501  0.23687216151E+02  0.22507343577E+02  0.29794040047E+01  0.32810692954E+02  0.00000000000E+00 0.  1.
          1    1    1    2  501    0 -0.41701186580E+02  0.40943127856E+02  0.93932250255E+03  0.94113872117E+03  0.00000000000E+00 0.  1.
<scales pt_clust_3="14000.00000" pt_clust_4="99.53746" pt_clust_5="32.67514" pt_clust_6="58.43158"></scales>
<clustering>
<clus scale="   32.675">  2  5  1 -1</clus>
<clus scale="   58.432">  1  6  2 -1</clus>
<clus scale="   99.537">  1  4  2 -1</clus>
<clus scale="   32.675">  2  3  1 -1</clus>
</clustering>
</event>
<event>
 6    0  0.1361744E+002  0.1738534E+03  0.7546771E-02  0.1173888E+00
         -2   -1    0    0    0  501 -0.00000000000E+00  0.00000000000E+00  0.16606691041E+04  0.16606691041E+04  0.00000000000E+00 0.  1.
         21   -1    0    0  501  502  0.00000000000E+00 -0.00000000000E+00 -0.26595747476E+02  0.26595747476E+02  0.00000000000E+00 0. -1.
         21    1    1    2  503  505 -0.37091164883E+02  0.40004595151E+02  0.31999189977E+03  0.32460890016E+03  0.00000000000E+00 0.  1.
         21    1    1    2  504  502  0.99173624079E+02 -0.80746593902E+02  0.25947070719E+03  0.28927576468E+03  0.00000000000E+00 0. -1.
         21    1    1    2  505  504  0.45330433325E+02  0.52675617221E+01  0.79002628728E+02  0.91236016670E+02  0.00000000000E+00 0. -1.
         -2    1    1    2    0  503 -0.10741289252E+03  0.35474437029E+02  0.97560812094E+03  0.98214417007E+03  0.00000000000E+00 0.  1.
<scales pt_clust_3="34.34338" pt_clust_4="36.07235" pt_clust_5="36.07235" pt_clust_6="170.36482"></scales>
<clustering>
<clus scale="   34.343">  3  6 -1 -1</clus>
<clus scale="   36.072">  4  5 -1 -1</clus>
<clus scale="  170.365">  1  3  2 -1</clus>
<clus scale="  173.853">  2  3  1 -1</clus>
</clustering>
</event>
<event>
 6    0  0.1361744E+002  0.9711633E+02  0.7546771E-02  0.1286479E+00
          2   -1    0    0  502    0 -0.00000000000E+00  0.00000000000E+00  0.11544987199E+04  0.11544987199E+04  0.00000000000E+00 0. -1.
         21   -1    0    0  504  502  0.00000000000E+00 -0.00000000000E+00 -0.34410733188E+03  0.34410733188E+03  0.00000000000E+00 0.  1.
         21    1    1    2  503  501  0.87091855113E+02 -0.38493386733E+02  0.12522288190E+03  0.15731338849E+03  0.00000000000E+00 0.  1.
         21    1    1    2  504  505 -0.24602748596E+02  0.20604391755E+02 -0.18210195593E+03  0.18490797320E+03  0.00000000000E+00 0.  1.
         21    1    1    2  505  503 -0.12020835920E+02  0.77849694051E+02 -0.13217674988E+03  0.15386932303E+03  0.00000000000E+00 0.  1.
          2    1    1    2  501    0 -0.50468270596E+02 -0.59960699073E+02  0.99944721193E+03  0.10025153671E+04  0.00000000000E+00 0. -1.
<scales pt_clust_3="14000.00000" pt_clust_4="32.09106" pt_clust_5="97.11633" pt_clust_6="78.37439"></scales>
<clustering>
<clus scale="   32.091">  2  4  1 -1</clus>
<clus scale="   78.374">  1  6  2 -1</clus>
<clus scale="   97.116">  2  5  1 -1</clus>
<clus scale="   32.091">  2  3  1 -1</clus>
</clustering>
</event>
<event>
 6    0  0.1361744E+002  0.1434753E+03  0.7546771E-02  0.1208728E+00
          1   -1    0    0  503    0 -0.00000000000E+00  0.00000000000E+00  0.15019179463E+04  0.15019179463E+04  0.00000000000E+00 0.  1.
         21   -1    0    0  504  502  0.00000000000E+00 -0.00000000000E+00 -0.13769808649E+03  0.13769808649E+03  0.00000000000E+00 0.  1.
         21    1    1    2  503  505  0.41746051346E+02 -0.21494379798E+02  0.72154179209E+03  0.72306797668E+03  0.00000000000E+00 0.  1.
         21    1    1    2  504  501 -0.93300280627E+02  0.14179284330E+03 -0.22571216118E+02  0.17122970704E+03  0.00000000000E+00 0.  1.
         21    1    1    2  505  502  0.91299261553E+02 -0.71934058615E+02  0.49398932214E+02  0.12629457016E+03  0.00000000000E+00 0.  1.
          1    1    1    2  501    0 -0.39745032272E+02 -0.48364404884E+02  0.61585035158E+03  0.61902377886E+03  0.00000000000E+00 0.  1.
<scales pt_clust_3="46.95467" pt_clust_4="143.47531" pt_clust_5="14000.00000" pt_clust_6="65.72814"></scales>
<clustering>
<clus scale="   46.955">  1  3  2 -1</clus>
<clus scale="   65.728">  1  6  2 -1</clus>
<clus scale="  143.475">  2  4  1 -1</clus>
<clus scale="  143.475">  2  3  1 -1</clus>
</clustering>
</event>
<event>
 6    0  0.4066311E+002  0.1603303E+03  0.7546771E-02  0.1188324E+00
         21   -1    0    0  503  502  0.00000000000E+00  0.00000000000E+00  0.18341790116E+04  0.18341790116E+04  0.00000000000E+00 0. -1.
          2   -1    0    0  505    0 -0.00000000000E+00 -0.00000000000E+00 -0.20943914474E+04  0.20943914474E+04  0.00000000000E+00 0. -1.
         21    1    1    2  503  504  0.27876832468E+02  0.11183378815E+02  0.16963660729E+02  0.34495674156E+02  0.00000000000E+00 0. -1.
         21    1    1    2  504  501  0.22607056082E+02  0.50962302528E+02 -0.50177098317E+03  0.50485874739E+03  0.00000000000E+00 0.  1.
         21    1    1    2  505  502 -0.10483944479E+03 -0.14449183937E+03  0.18009498663E+04  0.18097761247E+04  0.00000000000E+00 0. -1.
          2    1    1    2  501    0  0.54355556240E+02  0.82346158030E+02 -0.15763549796E+04  0.15794399128E+04  0.00000000000E+00 0. -1.
<scales pt_clust_3="30.03641" pt_clust_4="33.61021" pt_clust_5="153.97014" pt_clust_6="33.61021"></scales>
<clustering>
<clus scale="   30.036">  1  3  2 -1</clus>
<clus scale="   33.610">  4  6 -1 -1</clus>
<clus scale="  153.970">  1  5  2 -1</clus>
<clus scale="   30.036">  1  3  2 -1</clus>
</clustering>
</event>
<event>
 6    0  0.1361744E+002  0.1295720E+03  0.7546771E-02  0.1228092E+00
          2   -1    0    0  505    0 -0.00000000000E+00  0.00000000000E+00  0.31120552446E+04  0.31120552446E+04  0.00000000000E+00 0. -1.
         21   -1    0    0  504  502  0.00000000000E+00 -0.00000000000E+00 -0.23800844609E+02  0.23800844609E+02  0.00000000000E+00 0.  1.
         21    1    1    2  503  501  0.11408260642E+02 -0.12982461983E+03  0.14307535415E+04  0.14366768171E+04  0.00000000000E+00 0. -1.
         21    1    1    2  504  503  0.32516594410E+02 -0.18925736473E+00  0.75502754949E+02  0.82207242596E+02  0.00000000000E+00 0. -1.
         21    1    1    2  505  502 -0.78836215957E+02  0.11980423119E+03  0.28115559421E+03  0.31562108756E+03  0.00000000000E+00 0.  1.
          2    1    1    2  501    0  0.34911360904E+02  0.10209646012E+02  0.13008425093E+04  0.13013509419E+04  0.00000000000E+00 0. -1.
<scales pt_clust_3="14000.00000" pt_clust_4="32.51715" pt_clust_5="129.57205" pt_clust_6="36.76113"></scales>
<clustering>
<clus scale="   32.517">  2  4  1 -1</clus>
<clus scale="   36.761">  1  6  2 -1</clus>
<clus scale="  129.572">  2  5  1 -1</clus>
<clus scale="   32.517">  2  3  1 -1</clus>
</clustering>
</event>
<event>
 6    0  0.1361744E+002  0.1132442E+03  0.7546771E-02  0.1254677E+00
          3   -1    0    0  504    0 -0.00000000000E+00  0.00000000000E+00  0.21282207413E+04  0.21282207413E+04  0.00000000000E+00 0.  1.
         21   -1    0    0  503  502  0.00000000000E+00 -0.00000000000E+00 -0.15519563348E+03  0.15519563348E+03  0.00000000000E+00 0. -1.
         21    1    1    2  503  501 -0.17117760254E+02 -0.93617317932E+02 -0.12067917562E+03  0.15369021882E+03  0.00000000000E+00 0. -1.
         21    1    1    2  504  505 -0.14106049148E+02  0.62435577619E+02  0.29815824566E+03  0.30495167065E+03  0.00000000000E+00 0.  1.
         21    1    1    2  505  502 -0.30805293249E+02 -0.11077456131E+02  0.55476534264E+01  0.33203201427E+02  0.00000000000E+00 0. -1.
          3    1    1    2  501    0  0.62029102651E+02  0.42259196444E+02  0.17899983844E+04  0.17915712839E+04  0.00000000000E+00 0.  1.
<scales pt_clust_3="14000.00000" pt_clust_4="63.91750" pt_clust_5="32.73646" pt_clust_6="113.24417"></scales>
<clustering>
<clus scale="   32.736">  2  5  1 -1</clus>
<clus scale="   63.917">  1  4  2 -1</clus>
<clus scale="  113.244">  1  6  2 -1</clus>
<clus scale="   32.736">  2  3  1 -1</clus>
</clustering>
</event>
<event>
 6    0  0.1361744E+002  0.1375376E+03  0.7546771E-02  0.1216681E+00
          2   -1    0    0  505    0 -0.00000000000E+00  0.00000000000E+00  0.44186916632E+04  0.44186916632E+04  0.00000000000E+00 0. -1.
         21   -1    0    0  504  502  0.00000000000E+00 -0.00000000000E+00 -0.30236529768E+02  0.30236529768E+02  0.00000000000E+00 0. -1.
         21    1    1    2  503  502  0.12278680638E+03 -0.17014904664E+01  0.12804217616E+03  0.17740995961E+03  0.00000000000E+00 0. -1.
         21    1    1    2  504  501  0.15645461138E+02  0.35249318901E+02  0.87533276122E+02  0.95652335914E+02  0.00000000000E+00 0. -1.
         21    1    1    2  505  503 -0.37983943164E+02  0.15454137003E+02  0.16535263880E+04  0.16540348019E+04  0.00000000000E+00 0.  1.
          2    1    1    2  501    0 -0.10044832435E+03 -0.49001965438E+02  0.25193532932E+04  0.25218310955E+04  0.00000000000E+00 0. -1.
<scales pt_clust_3="14000.00000" pt_clust_4="38.56546" pt_clust_5="40.99742" pt_clust_6="137.53765"></scales>
<clustering>
<clus scale="   38.565">  2  4  1 -1</clus>
<clus scale="   40.997">  1  5  2 -1</clus>
<clus scale="  137.538">  1  6  2 -1</clus>
<clus scale="   38.565">  2  3  1 -1</clus>
</clustering>
</event>
<event>
 6    0  0.1361744E+002  0.1125558E+03  0.7546771E-02  0.1255909E+00
         21   -1    0    0  505  502  0.00000000000E+00  0.00000000000E+00  0.91106242278E+03  0.91106242278E+03  0.00000000000E+00 0. -1.
          2   -1    0    0  503    0 -0.00000000000E+00 -0.00000000000E+00 -0.39838731883E+04  0.39838731883E+04  0.00000000000E+00 0. -1.
         21    1    1    2  503  504 -0.34498853499E+02 -0.67021126192E+02 -0.92017515223E+03  0.92325744678E+03  0.00000000000E+00 0. -1.
         21    1    1    2  504  502 -0.54254756745E+02  0.35558681060E+00 -0.86026335399E+01  0.54933690712E+02  0.00000000000E+00 0. -1.
         21    1    1    2  505  501 -0.50813068244E+02  0.40248024613E+02  0.88350317575E+03  0.88587794473E+03  0.00000000000E+00 0. -1.
          2    1    1    2  501    0  0.13956667849E+03  0.26417514768E+02 -0.30275361555E+04  0.30308665288E+04  0.00000000000E+00 0. -1.
<scales pt_clust_3="75.42165" pt_clust_4="54.25592" pt_clust_5="112.55583" pt_clust_6="14000.00000"></scales>
<clustering>
<clus scale="   54.256">  1  4  2 -1</clus>
<clus scale="   75.422">  2  3  1 -1</clus>
<clus scale="  112.556">  1  5  2 -1</clus>
<clus scale="   54.256">  1  3  2 -1</clus>
</clustering>
</event>
<event>
 6    0  0.1361744E+002  0.1775718E+03  0.7546771E-02  0.1170174E+00
         21   -1    0    0  501  502  0.00000000000E+00  0.00000000000E+00  0.14797304122E+04  0.14797304122E+04  0.00000000000E+00 0.  1.
          2   -1    0    0  503    0 -0.00000000000E+00 -0.00000000000E+00 -0.15527276434E+03  0.15527276434E+03  0.00000000000E+00 0.  1.
         21    1    1    2  503  504 -0.46846142929E+02  0.12304870013E+01 -0.10478177324E+02  0.48019448202E+02  0.00000000000E+00 0. -1.
         21    1    1    2  504  505 -0.48340173280E+02 -0.34928543360E+02  0.38090759516E+02  0.70764973359E+02  0.00000000000E+00 0. -1.
         21    1    1    2  505  502  0.13512022620E+03  0.12293551141E+03  0.13774495497E+04  0.13895099415E+04  0.00000000000E+00 0.  1.
          2    1    1    2  501    0 -0.39933909995E+02 -0.89237455050E+02 -0.80604484082E+02  0.12670881345E+03  0.00000000000E+00 0.  1.
<scales pt_clust_3="46.86230" pt_clust_4="64.57296" pt_clust_5="177.57185" pt_clust_6="14000.00000"></scales>
<clustering>
<clus scale="   46.862">  2  3  1 -1</clus>
<clus scale="   64.573">  2  4  1 -1</clus>
<clus scale="  177.572">  1  5  2 -1</clus>
<clus scale="  177.572">  1  3  2 -1</clus>
</clustering>
</event>
<event>
 6    0  0.1361744E+002  0.1969253E+03  0.7546771E-02  0.1152359E+00
         21   -1    0    0  501  502  0.00000000000E+00  0.00000000000E+00  0.18065012781E+03  0.18065012781E+03  0.00000000000E+00 0.  1.
          2   -1    0    0  503    0 -0.00000000000E+00 -0.00000000000E+00 -0.17496725985E+04  0.17496725985E+04  0.00000000000E+00 0.  1.
         21    1    1    2  503  504  0.47021487242E+02  0.22972546408E+02 -0.13730053776E+03  0.14693602628E+03  0.00000000000E+00 0. -1.
         21    1    1    2  504  505 -0.26008443719E+02 -0.92022855793E+02  0.34574156799E+02  0.10168587636E+03  0.00000000000E+00 0. -1.
         21    1    1    2  505  502 -0.80948638819E+01 -0.98477588343E+02  0.79486643799E+02  0.12681280996E+03  0.00000000000E+00 0.  1.
          2    1    1    2  501    0 -0.12918179642E+02  0.16752789773E+03 -0.15457827335E+04  0.15548880137E+04  0.00000000000E+00 0.  1.
<scales pt_clust_3="52.33315" pt_clust_4="41.13423" pt_clust_5="41.13423" pt_clust_6="192.43501"></scales>
<clustering>
<clus scale="   41.134">  4  5 -1 -1</clus>
<clus scale="   52.333">  2  3  1 -1</clus>
<clus scale="  192.435">  2  6  1 -1</clus>
<clus scale="  196.925">  1  3  2 -1</clus>
</clustering>
</event>
<event>
 6    0  0.1448136E+002  0.1654992E+03  0.7546771E-02  0.1182624E+00
          2   -1    0    0  503    0 -0.00000000000E+00  0.00000000000E+00  0.11728037195E+04  0.11728037195E+04  0.00000000000E+00 0. -1.
         21   -1    0    0  504  502  0.00000000000E+00 -0.00000000000E+00 -0.12831548734E+04  0.12831548734E+04  0.00000000000E+00 0. -1.
         21    1    1    2  503  505  0.42686568102E+01  0.59059579474E+02  0.14833161751E+02  0.61043247343E+02  0.00000000000E+00 0.  1.
         21    1    1    2  504  501 -0.34323311785E+02 -0.76923974075E+02 -0.89693399972E+03  0.90088067321E+03  0.00000000000E+00 0. -1.
         21    1    1    2  505  502 -0.29483716394E+01 -0.91271866704E+02 -0.35243964828E+03  0.36407822267E+03  0.00000000000E+00 0. -1.
          2    1    1    2  501    0  0.33003026614E+02  0.10913626131E+03  0.11241893323E+04  0.11299564497E+04  0.00000000000E+00 0. -1.
<scales pt_clust_3="59.21364" pt_clust_4="84.13732" pt_clust_5="14000.00000" pt_clust_6="165.49916"></scales>
<clustering>
<clus scale="   59.214">  1  3  2 -1</clus>
<clus scale="   84.137">  2  4  1 -1</clus>
<clus scale="  165.499">  1  6  2 -1</clus>
<clus scale="   84.137">  2  3  1 -1</clus>
</clustering>
</event>
<event>
 6    0  0.1361744E+002  0.1612515E+03  0.7546771E-02  0.1187291E+00
         21   -1    0    0  504  502  0.00000000000E+00  0.00000000000E+00  0.46835027095E+02  0.46835027095E+02  0.00000000000E+00 0.  1.
         -1   -1    0    0    0  501 -0.00000000000E+00 -0.00000000000E+00 -0.82158267193E+03  0.82158267193E+03  0.00000000000E+00 0.  1.
         21    1    1    2  503  501  0.12597613726E+02 -0.41114526297E+02 -0.59703171466E+02  0.73576985717E+02  0.00000000000E+00 0.  1.
         21    1    1    2  504  505  0.31344975237E+02  0.42729434077E+01 -0.59170798217E+02  0.67096563843E+02  0.00000000000E+00 0.  1.
         21    1    1    2  505  503 -0.68364090535E+02 -0.10647802522E+03 -0.12709981826E+03  0.17934765829E+03  0.00000000000E+00 0.  1.
         -1    1    1    2    0  502  0.24421501573E+02  0.14331960811E+03 -0.52877385689E+03  0.54839649118E+03  0.00000000000E+00 0.  1.
<scales pt_clust_3="40.06010" pt_clust_4="31.63488" pt_clust_5="40.06010" pt_clust_6="147.71592"></scales>
<clustering>
<clus scale="   31.635">  1  4  2 -1</clus>
<clus scale="   40.060">  3  5 -1 -1</clus>
<clus scale="  147.716">  2  6  1 -1</clus>
<clus scale="   31.635">  1  3  2 -1</clus>
</clustering>
</event>
<event>
 6    0  0.1361744E+002  0.1096519E+03  0.7546771E-02  0.1261216E+00
          2   -1    0    0  503    0 -0.00000000000E+00  0.00000000000E+00  0.41820414548E+04  0.41820414548E+04  0.00000000000E+00 0. -1.
         21   -1    0    0  504  502  0.00000000000E+00 -0.00000000000E+00 -0.53111975891E+03  0.53111975891E+03  0.00000000000E+00 0. -1.
         21    1    1    2  503  505 -0.41128088717E+02 -0.83479634131E+02  0.69082594016E+03  0.69706588540E+03  0.00000000000E+00 0. -1.
         21    1    1    2  504  501 -0.40243371311E+02  0.37801309882E+02 -0.51463093717E+03  0.51758426314E+03  0.00000000000E+00 0. -1.
         21    1    1    2  505  502 -0.31413813623E+02 -0.44890364381E+00  0.11984056037E+02  0.33625091820E+02  0.00000000000E+00 0. -1.
          2    1    1    2  501    0  0.11278527365E+03  0.46127227893E+02  0.34627426368E+04  0.34648859733E+04  0.00000000000E+00 0. -1.
<scales pt_clust_3="14000.00000" pt_clust_4="80.58548" pt_clust_5="31.41702" pt_clust_6="109.65189"></scales>
<clustering>
<clus scale="   31.417">  2  5  1 -1</clus>
<clus scale="   80.585">  2  4  1 -1</clus>
<clus scale="  109.652">  1  6  2 -1</clus>
<clus scale="   31.417">  2  3  1 -1</clus>
</clustering>
</event>
<event>
 6    0  0.1361744E+002  0.1620284E+03  0.7546771E-02  0.1186426E+00
         21   -1    0    0  503  502  0.00000000000E+00  0.00000000000E+00  0.45079935229E+02  0.45079935229E+02  0.00000000000E+00 0.  1.
          2   -1    0    0  502    0 -0.00000000000E+00 -0.00000000000E+00 -0.27835872982E+04  0.27835872982E+04  0.00000000000E+00 0.  1.
         21    1    1    2  503  505 -0.49494122268E+02  0.75782964823E+02 -0.39622684466E+02  0.98806290391E+02  0.00000000000E+00 0.  1.
         21    1    1    2  504  501  0.42114961410E+01 -0.74449307133E+02 -0.13906624644E+04  0.13926602335E+04  0.00000000000E+00 0.  1.
         21    1    1    2  505  504  0.99036928653E+00  0.66611603937E+02 -0.71140813633E+02  0.97463336567E+02  0.00000000000E+00 0.  1.
          2    1    1    2  501    0  0.44292256841E+02 -0.67945261627E+02 -0.12370814004E+04  0.12397373729E+04  0.00000000000E+00 0.  1.
<scales pt_clust_3="51.64867" pt_clust_4="41.24713" pt_clust_5="51.64867" pt_clust_6="156.45875"></scales>
<clustering>
<clus scale="   41.247">  4  6 -1 -1</clus>
<clus scale="   51.649">  3  5 -1 -1</clus>
<clus scale="  156.459">  2  4  1 -1</clus>
<clus scale="  162.028">  1  3  2 -1</clus>
</clustering>
</event>
<event>
 6    0  0.1361744E+002  0.7180722E+02  0.7546771E-02  0.1354053E+00
         21   -1    0    0  503  502  0.00000000000E+00  0.00000000000E+00  0.54229322924E+03  0.54229322924E+03  0.00000000000E+00 0. -1.
         -1   -1    0    0    0  501 -0.00000000000E+00 -0.00000000000E+00 -0.26859417702E+03  0.26859417702E+03  0.00000000000E+00 0.  1.
         21    1    1    2  503  505  0.56547820928E+01  0.39190303434E+02  0.41013191115E+03  0.41203888286E+03  0.00000000000E+00 0. -1.
         21    1    1    2  504  501 -0.61862161165E+02  0.28865275879E+02 -0.61279916206E+02  0.91735267295E+02  0.00000000000E+00 0.  1.
         21    1    1    2  505  504  0.28092163712E+02  0.33408986917E+02  0.96403162337E+02  0.10582485425E+03  0.00000000000E+00 0. -1.
         -1    1    1    2    0  502  0.28115215361E+02 -0.10146456623E+03 -0.17155610506E+03  0.20128840185E+03  0.00000000000E+00 0.  1.
<scales pt_clust_3="39.59617" pt_clust_4="69.73255" pt_clust_5="71.80722" pt_clust_6="14000.00000"></scales>
<clustering>
<clus scale="   39.596">  1  3  2 -1</clus>
<clus scale="   69.733">  2  4  1 -1</clus>
<clus scale="   71.807">  1  5  2 -1</clus>
<clus scale="   39.596">  1  3  2 -1</clus>
</clustering>
</event>
<event>
 6    0  0.1361744E+002  0.1615031E+03  0.7546771E-02  0.1187010E+00
         21   -1    0    0  503  502  0.00000000000E+00  0.00000000000E+00  0.16948840681E+02  0.16948840681E+02  0.00000000000E+00 0.  1.
          1   -1    0    0  504    0 -0.00000000000E+00 -0.00000000000E+00 -0.37396161807E+04  0.37396161807E+04  0.00000000000E+00 0.  1.
         21    1    1    2  503  505  0.26745520332E+02  0.21294774413E+02 -0.63403117540E+02  0.72032947940E+02  0.00000000000E+00 0.  1.
         21    1    1    2  504  502  0.50767109316E+01 -0.46222776820E+02 -0.45937598743E+03  0.46172352758E+03  0.00000000000E+00 0.  1.
         21    1    1    2  505  501  0.16050542459E+02  0.12917757077E+03 -0.40159010015E+03  0.42216000905E+03  0.00000000000E+00 0.  1.
          1    1    1    2  501    0 -0.47872773723E+02 -0.10424956837E+03 -0.27982981349E+04  0.28006485368E+04  0.00000000000E+00 0.  1.
<scales pt_clust_3="30.46805" pt_clust_4="46.50073" pt_clust_5="30.46805" pt_clust_6="150.16225"></scales>
<clustering>
<clus scale="   30.468">  3  5 -1 -1</clus>
<clus scale="   46.501">  2  4  1 -1</clus>
<clus scale="  150.162">  2  6  1 -1</clus>
<clus scale="  161.503">  1  3  2 -1</clus>
</clustering>
</event>
<event>
 6    0  0.1361744E+002  0.2089086E+03  0.7546771E-02  0.1142433E+00
          2   -1    0    0  504    0 -0.00000000000E+00  0.00000000000E+00  0.23149451711E+04  0.23149451711E+04  0.00000000000E+00 0. -1.
         21   -1    0    0  505  502  0.00000000000E+00 -0.00000000000E+00 -0.12970441554E+03  0.12970441554E+03  0.00000000000E+00 0. -1.
         21    1    1    2  503  501  0.76747638944E+02  0.56809106222E+01 -0.34390135347E+01  0.77034405580E+02  0.00000000000E+00 0. -1.
         21    1    1    2  504  502 -0.61524792304E+02  0.87847233632E+02  0.29821325311E+03  0.31691257604E+03  0.00000000000E+00 0.  1.
         21    1    1    2  505  503  0.11622624399E+03  0.64798640628E+02 -0.15220947851E+02  0.13393685405E+03  0.00000000000E+00 0. -1.
          2    1    1    2  501    0 -0.13144909063E+03 -0.15832678488E+03  0.19056874638E+04  0.19167657509E+04  0.00000000000E+00 0. -1.
<scales pt_clust_3="33.61962" pt_clust_4="107.24941" pt_clust_5="33.61962" pt_clust_6="204.17738"></scales>
<clustering>
<clus scale="   33.620">  3  5 -1 -1</clus>
<clus scale="  107.249">  1  4  2 -1</clus>
<clus scale="  204.177">  1  6  2 -1</clus>
<clus scale="  208.909">  2  3  1 -1</clus>
</clustering>
</event>
<event>
 6    0  0.1361744E+002  0.2559749E+03  0.7546771E-02  0.1109586E+00
          3   -1    0    0  503    0 -0.00000000000E+00  0.00000000000E+00  0.10085185906E+04  0.10085185906E+04  0.00000000000E+00 0.  1.
         21   -1    0    0  504  502  0.00000000000E+00 -0.00000000000E+00 -0.33793140830E+03  0.33793140830E+03  0.00000000000E+00 0. -1.
         21    1    1    2  503  505 -0.28988574474E+02 -0.12084307053E+03 -0.12841495441E+03  0.17870026766E+03  0.00000000000E+00 0. -1.
         21    1    1    2  504  501  0.34746679385E+02  0.34663105379E+02  0.90859019784E+02  0.10326773010E+03  0.00000000000E+00 0. -1.
         21    1    1    2  505  502 -0.77310140594E+02 -0.93649419799E+02 -0.14530198051E+03  0.18936667396E+03  0.00000000000E+00 0. -1.
          3    1    1    2  501    0  0.71552035683E+02  0.17982938495E+03  0.85344509739E+03  0.87511532713E+03  0.00000000000E+00 0.  1.
<scales pt_clust_3="246.07380" pt_clust_4="45.64725" pt_clust_5="56.31917" pt_clust_6="45.64725"></scales>
<clustering>
<clus scale="   45.647">  4  6 -1 -1</clus>
<clus scale="   56.319">  3  5 -1 -1</clus>
<clus scale="  246.074">  2  3  1 -1</clus>
<clus scale="  246.074">  2  3  1 -1</clus>
</clustering>
</event>
<event>
 6    0  0.1361744E+002  0.1052357E+03  0.7546771E-02  0.1269656E+00
         -1   -1    0    0    0  501 -0.00000000000E+00  0.00000000000E+00  0.38381991670E+03  0.38381991670E+03  0.00000000000E+00 0.  1.
         21   -1    0    0  503  502  0.00000000000E+00 -0.00000000000E+00 -0.20663298737E+03  0.20663298737E+03  0.00000000000E+00 0. -1.
         21    1    1    2  503  505  0.70301050997E+02  0.81157900715E+02 -0.16411969010E+03  0.19612270470E+03  0.00000000000E+00 0. -1.
         21    1    1    2  504  502 -0.57684976672E+02 -0.66054900873E+02  0.11670492469E+03  0.14598234794E+03  0.00000000000E+00 0.  1.
         21    1    1    2  505  501 -0.11816945898E+02  0.34878814352E+02  0.30211002166E+02  0.47632725650E+02  0.00000000000E+00 0.  1.
         -1    1    1    2    0  504 -0.79912842767E+00 -0.49981814195E+02  0.19439069257E+03  0.20071512577E+03  0.00000000000E+00 0.  1.
<scales pt_clust_3="105.23567" pt_clust_4="14000.00000" pt_clust_5="36.82624" pt_clust_6="30.94338"></scales>
<clustering>
<clus scale="   36.826">  1  5  2 -1</clus>
<clus scale="   30.943">  1  6  2 -1</clus>
<clus scale="  105.236">  2  3  1 -1</clus>
<clus scale="  105.236">  2  3  1 -1</clus>
</clustering>
</event>
<event>
 6    0  0.1361744E+002  0.1013750E+03  0.7546771E-02  0.1277431E+00
          2   -1    0    0  505    0 -0.00000000000E+00  0.00000000000E+00  0.13066004583E+04  0.13066004583E+04  0.00000000000E+00 0.  1.
         21   -1    0    0  503  502  0.00000000000E+00 -0.00000000000E+00 -0.31976841994E+02  0.31976841994E+02  0.00000000000E+00 0.  1.
         21    1    1    2  503  501  0.33485484423E+02 -0.71968117389E+02  0.84906713171E+02  0.11623182666E+03  0.00000000000E+00 0.  1.
         21    1    1    2  504  502 -0.46585441198E+02 -0.44826206387E+02  0.89467804511E+02  0.11038152089E+03  0.00000000000E+00 0.  1.
         21    1    1    2  505  504 -0.39666607337E+02  0.20404785794E+02  0.19319750506E+03  0.19828028389E+03  0.00000000000E+00 0.  1.
          2    1    1    2  501    0  0.52766564111E+02  0.96389537982E+02  0.90705159354E+03  0.91368366882E+03  0.00000000000E+00 0.  1.
<scales pt_clust_3="14000.00000" pt_clust_4="66.05742" pt_clust_5="44.60712" pt_clust_6="101.37505"></scales>
<clustering>
<clus scale="   44.607">  1  5  2 -1</clus>
<clus scale="   66.057">  2  4  1 -1</clus>
<clus scale="  101.375">  1  6  2 -1</clus>
<clus scale="   66.057">  2  3  1 -1</clus>
</clustering>
</event>
<event>
 6    0  0.1361744E+002  0.1833650E+03  0.7546771E-02  0.1164586E+00
         -2   -1    0    0    0  501 -0.00000000000E+00  0.00000000000E+00  0.27222582478E+03  0.27222582478E+03  0.00000000000E+00 0. -1.
         21   -1    0    0  503  502  0.00000000000E+00 -0.00000000000E+00 -0.10553498432E+04  0.10553498432E+04  0.00000000000E+00 0.  1.
         21    1    1    2  503  504  0.31989664745E+02  0.31875906803E+02 -0.63403011293E+02  0.77841852020E+02  0.00000000000E+00 0. -1.
         21    1    1    2  504  501 -0.95898155054E+01  0.30554248698E+02 -0.25355877475E+01  0.32124070106E+02  0.00000000000E+00 0. -1.
         21    1    1    2  505  502  0.11184775293E+03 -0.14865594360E+03 -0.93179681157E+03  0.95018619620E+03  0.00000000000E+00 0.  1.
         -2    1    1    2    0  505 -0.13424760217E+03  0.86225788095E+02  0.21461139221E+03  0.26742354962E+03  0.00000000000E+00 0. -1.
<scales pt_clust_3="45.58112" pt_clust_4="32.02385" pt_clust_5="183.36500" pt_clust_6="14000.00000"></scales>
<clustering>
<clus scale="   32.024">  1  4  2 -1</clus>
<clus scale="   45.581">  2  3  1 -1</clus>
<clus scale="  183.365">  2  5  1 -1</clus>
<clus scale="   45.581">  2  3  1 -1</clus>
</clustering>
</event>
<event>
 6    0  0.1361744E+002  0.1157932E+03  0.7546771E-02  0.1250203E+00
          1   -1    0    0  504    0 -0.00000000000E+00  0.00000000000E+00  0.46960546128E+03  0.46960546128E+03  0.00000000000E+00 0.  1.
         21   -1    0    0  505  502  0.00000000000E+00 -0.00000000000E+00 -0.10440850472E+03  0.10440850472E+03  0.00000000000E+00 0.  1.
         21    1    1    2  503  502 -0.61537776554E+02  0.60852344877E+01  0.40589575894E+02  0.73969194218E+02  0.00000000000E+00 0.  1.
         21    1    1    2  504  503 -0.19865905683E+02  0.13768605010E+03  0.46874420840E+02  0.14679684578E+03  0.00000000000E+00 0.  1.
         21    1    1    2  505  501  0.88194934651E+01 -0.96385213412E+02  0.48677691001E+02  0.10833933003E+03  0.00000000000E+00 0. -1.
          1    1    1    2  501    0  0.72584188772E+02 -0.47386071179E+02  0.22905526883E+03  0.24490859597E+03  0.00000000000E+00 0.  1.
<scales pt_clust_3="61.83792" pt_clust_4="115.79317" pt_clust_5="14000.00000" pt_clust_6="81.76648"></scales>
<clustering>
<clus scale="   61.838">  2  3  1 -1</clus>
<clus scale="   81.766">  1  6  2 -1</clus>
<clus scale="  115.793">  1  4  2 -1</clus>
<clus scale="   61.838">  2  3  1 -1</clus>
</clustering>
</event>
<event>
 6    0  0.1361744E+002  0.2844644E+03  0.7546771E-02  0.1093275E+00
          3   -1    0    0  503    0 -0.00000000000E+00  0.00000000000E+00  0.19704772987E+03  0.19704772987E+03  0.00000000000E+00 0.  1.
         21   -1    0    0  504  502  0.00000000000E+00 -0.00000000000E+00 -0.42070852550E+03  0.42070852550E+03  0.00000000000E+00 0.  1.
         21    1    1    2  503  505 -0.65011746927E+02  0.70540940213E+00 -0.98791290690E+01  0.65761858490E+02  0.00000000000E+00 0.  1.
         21    1    1    2  504  501  0.10726444951E+03 -0.92046633380E+01 -0.46584820465E+02  0.11730530020E+03  0.00000000000E+00 0.  1.
         21    1    1    2  505  502 -0.21127229335E+03  0.17941462077E+02 -0.15932815954E+03  0.26522318983E+03  0.00000000000E+00 0.  1.
          3    1    1    2  501    0  0.16901959077E+03 -0.94422081413E+01 -0.78686865611E+01  0.16946590685E+03  0.00000000000E+00 0.  1.
<scales pt_clust_3="36.05458" pt_clust_4="40.60057" pt_clust_5="36.05458" pt_clust_6="281.55380"></scales>
<clustering>
<clus scale="   36.055">  3  5 -1 -1</clus>
<clus scale="   40.601">  4  6 -1 -1</clus>
<clus scale="  281.554">  1  4  2 -1</clus>
<clus scale="  284.464">  2  3  1 -1</clus>
</clustering>
</event>
<event>
 6    0  0.1361744E+002  0.1106324E+03  0.7546771E-02  0.1259403E+00
          1   -1    0    0  503    0 -0.00000000000E+00  0.00000000000E+00  0.26966996024E+03  0.26966996024E+03  0.00000000000E+00 0.  1.
         21   -1    0    0  505  502  0.00000000000E+00 -0.00000000000E+00 -0.74930478590E+02  0.74930478590E+02  0.00000000000E+00 0. -1.
         21    1    1    2  503  504 -0.86313267771E+02  0.39163250786E+01  0.41193332520E+02  0.95719425612E+02  0.00000000000E+00 0. -1.
         21    1    1    2  504  502 -0.25326544026E+02 -0.43134635993E+02 -0.52478675158E+00  0.50023055241E+02  0.00000000000E+00 0. -1.
         21    1    1    2  505  501  0.40093508386E+02  0.32074500331E+02  0.45309073653E+02  0.68477552099E+02  0.00000000000E+00 0.  1.
          1    1    1    2  501    0  0.71546303411E+02  0.71438105837E+01  0.10876186223E+03  0.13038040588E+03  0.00000000000E+00 0.  1.
<scales pt_clust_3="102.14897" pt_clust_4="50.02030" pt_clust_5="35.90281" pt_clust_6="35.90281"></scales>
<clustering>
<clus scale="   35.903">  5  6 -1 -1</clus>
<clus scale="   50.020">  2  4  1 -1</clus>
<clus scale="  102.149">  2  3  1 -1</clus>
<clus scale="   50.020">  2  3  1 -1</clus>
</clustering>
</event>
<event>
 6    0  0.1361744E+002  0.9636997E+02  0.7546771E-02  0.1288120E+00
         21   -1    0    0  505  502  0.00000000000E+00  0.00000000000E+00  0.37389745214E+03  0.37389745214E+03  0.00000000000E+00 0.  1.
          2   -1    0    0  503    0 -0.00000000000E+00 -0.00000000000E+00 -0.33108609052E+04  0.33108609052E+04  0.00000000000E+00 0. -1.
         21    1    1    2  503  502 -0.87854435190E+02  0.28167957614E+02  0.32457947331E+03  0.33743691279E+03  0.00000000000E+00 0.  1.
         21    1    1    2  504  501  0.95998787259E+02  0.47238434840E+02 -0.59966819605E+03  0.60913806501E+03  0.00000000000E+00 0.  1.
         21    1    1    2  505  504  0.25875164757E+02  0.17731696271E+02  0.30636656637E+02  0.43846800724E+02  0.00000000000E+00 0. -1.
          2    1    1    2  501    0 -0.34019516826E+02 -0.93138088724E+02 -0.26925113869E+04  0.26943365788E+04  0.00000000000E+00 0. -1.
<scales pt_clust_3="77.29803" pt_clust_4="96.36997" pt_clust_5="31.36777" pt_clust_6="14000.00000"></scales>
<clustering>
<clus scale="   31.368">  1  5  2 -1</clus>
<clus scale="   77.298">  1  3  2 -1</clus>
<clus scale="   96.370">  1  4  2 -1</clus>
<clus scale="   31.368">  1  3  2 -1</clus>
</clustering>
</event>
<event>
 6    0  0.1361744E+002  0.1321087E+03  0.7546771E-02  0.1224360E+00
         21   -1    0    0  501  502  0.00000000000E+00  0.00000000000E+00  0.16939413935E+02  0.16939413935E+02  0.00000000000E+00 0.  1.
          2   -1    0    0  504    0 -0.00000000000E+00 -0.00000000000E+00 -0.25682498858E+04  0.25682498858E+04  0.00000000000E+00 0. -1.
         21    1    1    2  503  502  0.65525899942E+02  0.57684632765E+02 -0.22670507987E+03  0.24293281717E+03  0.00000000000E+00 0.  1.
         21    1    1    2  504  505 -0.30971714750E+02 -0.79040060818E-01 -0.30130652095E+03  0.30289416126E+03  0.00000000000E+00 0.  1.
         21    1    1    2  505  503  0.57512599197E+01  0.43340701356E+02 -0.66733473865E+02  0.79780009519E+02  0.00000000000E+00 0.  1.
          2    1    1    2  501    0 -0.40305445111E+02 -0.10094629406E+03 -0.19565653972E+04  0.19595823118E+04  0.00000000000E+00 0. -1.
<scales pt_clust_3="37.58209" pt_clust_4="30.97182" pt_clust_5="37.58209" pt_clust_6="121.25132"></scales>
<clustering>
<clus scale="   30.972">  2  4  1 -1</clus>
<clus scale="   37.582">  3  5 -1 -1</clus>
<clus scale="  121.251">  2  6  1 -1</clus>
<clus scale="  132.109">  1  3  2 -1</clus>
</clustering>
</event>
<event>
 6    0  0.1361744E+002  0.8428648E+02  0.7546771E-02  0.1317309E+00
         21   -1    0    0  503  502  0.00000000000E+00  0.00000000000E+00  0.54884532311E+02  0.54884532311E+02  0.00000000000E+00 0. -1.
          2   -1    0    0  505    0 -0.00000000000E+00 -0.00000000000E+00 -0.31099372734E+04  0.31099372734E+04  0.00000000000E+00 0. -1.
         21    1    1    2  503  504 -0.40250693415E+02 -0.72005788134E+02  0.71724899425E+01  0.82803360180E+02  0.00000000000E+00 0. -1.
         21    1    1    2  504  501  0.10129499416E+03  0.63827696627E+02 -0.46239984470E+03  0.47764868583E+03  0.00000000000E+00 0. -1.
         21    1    1    2  505  502  0.12706896398E+02 -0.42696945883E+02 -0.35892180814E+03  0.36167576468E+03  0.00000000000E+00 0.  1.
          2    1    1    2  501    0 -0.73751197141E+02  0.50875037390E+02 -0.22409035782E+04  0.22426939950E+04  0.00000000000E+00 0. -1.
<scales pt_clust_3="84.28648" pt_clust_4="14000.00000" pt_clust_5="44.54766" pt_clust_6="65.39489"></scales>
<clustering>
<clus scale="   44.548">  2  5  1 -1</clus>
<clus scale="   65.395">  2  6  1 -1</clus>
<clus scale="   84.286">  1  3  2 -1</clus>
<clus scale="   84.286">  1  3  2 -1</clus>
</clustering>
</event>
<event>
 6    0  0.1361744E+002  0.6972103E+02  0.7546771E-02  0.1361044E+00
         21   -1    0    0  504  502  0.00000000000E+00  0.00000000000E+00  0.10592240952E+03  0.10592240952E+03  0.00000000000E+00 0.  1.
          2   -1    0    0  503    0 -0.00000000000E+00 -0.00000000000E+00 -0.88178637928E+03  0.88178637928E+03  0.00000000000E+00 0.  1.
         21    1    1    2  503  505  0.46268309278E+02  0.29947050850E+02 -0.34439986970E+03  0.34878195559E+03  0.00000000000E+00 0.  1.
         21    1    1    2  504  501 -0.48224674644E+02 -0.38830214200E+02  0.82282976688E+01  0.62458863757E+02  0.00000000000E+00 0.  1.
         21    1    1    2  505  502  0.21779971251E+02  0.81954060015E+02  0.37920465672E+02  0.92891317233E+02  0.00000000000E+00 0.  1.
          2    1    1    2  501    0 -0.19823605885E+02 -0.73070896665E+02 -0.47761286339E+03  0.48357665221E+03  0.00000000000E+00 0.  1.
<scales pt_clust_3="55.11427" pt_clust_4="69.72103" pt_clust_5="14000.00000" pt_clust_6="51.03385"></scales>
<clustering>
<clus scale="   55.114">  2  3  1 -1</clus>
<clus scale="   51.034">  2  6  1 -1</clus>
<clus scale="   69.721">  1  4  2 -1</clus>
<clus scale="   69.721">  1  3  2 -1</clus>
</clustering>
</event>
<event>
 6    0  0.1361744E+002  0.1332064E+03  0.7546771E-02  0.1222774E+00
          2   -1    0    0  504    0 -0.00000000000E+00  0.00000000000E+00  0.13472673460E+04  0.13472673460E+04  0.00000000000E+00 0. -1.
         21   -1    0    0  503  502  0.00000000000E+00 -0.00000000000E+00 -0.92471504364E+02  0.92471504364E+02  0.00000000000E+00 0. -1.
         21    1    1    2  503  501 -0.66636435488E+02 -0.74294836545E+01 -0.53114234299E+02  0.85537907661E+02  0.00000000000E+00 0. -1.
         21    1    1    2  504  505  0.73102736017E+02 -0.10337707442E+03  0.39181422193E+03  0.41176354141E+03  0.00000000000E+00 0. -1.
         21    1    1    2  505  502  0.27829011786E+01 -0.33377475791E+02  0.31035477746E+02  0.45661814551E+02  0.00000000000E+00 0.  1.
          2    1    1    2  501    0 -0.92492017080E+01  0.14418403386E+03  0.88506037631E+03  0.89677558679E+03  0.00000000000E+00 0. -1.
<scales pt_clust_3="73.08135" pt_clust_4="133.20644" pt_clust_5="33.49329" pt_clust_6="14000.00000"></scales>
<clustering>
<clus scale="   33.493">  2  5  1 -1</clus>
<clus scale="   73.081">  2  3  1 -1</clus>
<clus scale="  133.206">  2  4  1 -1</clus>
<clus scale="   33.493">  2  3  1 -1</clus>
</clustering>
</event>
<event>
 6    0  0.1361744E+002  0.1261416E+03  0.7546771E-02  0.1233296E+00
         21   -1    0    0  504  502  0.00000000000E+00  0.00000000000E+00  0.37864997036E+02  0.37864997036E+02  0.00000000000E+00 0. -1.
          2   -1    0    0  505    0 -0.00000000000E+00 -0.00000000000E+00 -0.25264015307E+04  0.25264015307E+04  0.00000000000E+00 0. -1.
         21    1    1    2  503  502  0.14368575595E+02 -0.88868946276E+02 -0.45937308938E+02  0.10106622546E+03  0.00000000000E+00 0. -1.
         21    1    1    2  504  501 -0.24187513604E+02 -0.49167122434E+02 -0.14503295650E+03  0.15503870554E+03  0.00000000000E+00 0. -1.
         21    1    1    2  505  503 -0.75799871836E+02  0.36767218072E+02 -0.68731294830E+03  0.69245688515E+03  0.00000000000E+00 0. -1.
          2    1    1    2  501    0  0.85618809846E+02  0.10126885064E+03 -0.16102533199E+04  0.16157047116E+04  0.00000000000E+00 0. -1.
<scales pt_clust_3="126.14159" pt_clust_4="54.79454" pt_clust_5="84.37926" pt_clust_6="14000.00000"></scales>
<clustering>
<clus scale="   54.795">  1  4  2 -1</clus>
<clus scale="   84.379">  2  5  1 -1</clus>
<clus scale="  126.142">  1  3  2 -1</clus>
<clus scale="   54.795">  1  3  2 -1</clus>
</clustering>
</event>
<event>
 6    0  0.1361744E+002  0.6583251E+02  0.7546771E-02  0.1374867E+00
         -2   -1    0    0    0  501 -0.00000000000E+00  0.00000000000E+00  0.47413849763E+02  0.47413849763E+02  0.00000000000E+00 0. -1.
         21   -1    0    0  505  502  0.00000000000E+00 -0.00000000000E+00 -0.39744198976E+03  0.39744198976E+03  0.00000000000E+00 0. -1.
         21    1    1    2  503  502  0.14150698521E+02 -0.10553319308E+03 -0.21671098670E+03  0.24145630840E+03  0.00000000000E+00 0. -1.
         21    1    1    2  504  501 -0.42243746123E+02  0.20726130661E+02 -0.34599293052E+02  0.58405630365E+02  0.00000000000E+00 0. -1.
         21    1    1    2  505  504 -0.87555030557E+01  0.43111181599E+02 -0.69214018452E+02  0.82011055126E+02  0.00000000000E+00 0. -1.
         -2    1    1    2    0  503  0.36848550657E+02  0.41695880821E+02 -0.29503841790E+02  0.62982845627E+02  0.00000000000E+00 0. -1.
<scales pt_clust_3="14000.00000" pt_clust_4="51.18220" pt_clust_5="43.99128" pt_clust_6="65.83251"></scales>
<clustering>
<clus scale="   43.991">  2  5  1 -1</clus>
<clus scale="   51.182">  1  4  2 -1</clus>
<clus scale="   65.833">  1  6  2 -1</clus>
<clus scale="   43.991">  2  3  1 -1</clus>
</clustering>
</event>
<event>
 6    0  0.1361744E+002  0.8559185E+02  0.7546771E-02  0.1313892E+00
         -2   -1    0    0    0  501 -0.00000000000E+00  0.00000000000E+00  0.10275998405E+03  0.10275998405E+03  0.00000000000E+00 0. -1.
         21   -1    0    0  503  502  0.00000000000E+00 -0.00000000000E+00 -0.22472664988E+04  0.22472664988E+04  0.00000000000E+00 0. -1.
         21    1    1    2  503  501  0.48958613695E+02 -0.43120335155E+02  0.17619184705E+02  0.67577694756E+02  0.00000000000E+00 0. -1.
         21    1    1    2  504  502 -0.74668708064E+02 -0.36353624359E+02 -0.12031836081E+04  0.12060463493E+04  0.00000000000E+00 0. -1.
         21    1    1    2  505  504  0.33365253245E+02  0.11058737685E+03 -0.10097497559E+04  0.10163352683E+04  0.00000000000E+00 0. -1.
         -2    1    1    2    0  505 -0.76551588757E+01 -0.31113417335E+02  0.50807664523E+02  0.60067170484E+02  0.00000000000E+00 0. -1.
<scales pt_clust_3="82.63683" pt_clust_4="14000.00000" pt_clust_5="85.59185" pt_clust_6="32.04132"></scales>
<clustering>
<clus scale="   32.041">  1  6  2 -1</clus>
<clus scale="   82.637">  1  3  2 -1</clus>
<clus scale="   85.592">  1  5  2 -1</clus>
<clus scale="   85.592">  2  3  1 -1</clus>
</clustering>
</event>
<event>
 6    0  0.1361744E+002  0.8285015E+02  0.7546771E-02  0.1321152E+00
          2   -1    0    0  504    0 -0.00000000000E+00  0.00000000000E+00  0.17064245307E+04  0.17064245307E+04  0.00000000000E+00 0.  1.
         21   -1    0    0  505  502  0.00000000000E+00 -0.00000000000E+00 -0.48676431308E+03  0.48676431308E+03  0.00000000000E+00 0. -1.
         21    1    1    2  503  502  0.88396523619E+02  0.35305223505E+02 -0.10263955868E+03  0.13998315327E+03  0.00000000000E+00 0. -1.
         21    1    1    2  504  503  0.69712966587E+01 -0.37983412128E+02  0.41984143773E+03  0.42161377042E+03  0.00000000000E+00 0.  1.
         21    1    1    2  505  501 -0.77599855984E+02  0.37459325677E+02 -0.35916874749E+03  0.36936043088E+03  0.00000000000E+00 0. -1.
          2    1    1    2  501    0 -0.17767964293E+02 -0.34781137054E+02  0.12616270860E+04  0.12622314892E+04  0.00000000000E+00 0.  1.
<scales pt_clust_3="82.85015" pt_clust_4="38.61785" pt_clust_5="14000.00000" pt_clust_6="72.88590"></scales>
<clustering>
<clus scale="   38.618">  1  4  2 -1</clus>
<clus scale="   72.886">  1  6  2 -1</clus>
<clus scale="   82.850">  1  3  2 -1</clus>
<clus scale="   82.850">  2  3  1 -1</clus>
</clustering>
</event>
<event>
 6    0  0.1361744E+002  0.1684113E+03  0.7546771E-02  0.1179515E+00
         21   -1    0    0  504  502  0.00000000000E+00  0.00000000000E+00  0.15823202940E+03  0.15823202940E+03  0.00000000000E+00 0. -1.
          2   -1    0    0  503    0 -0.00000000000E+00 -0.00000000000E+00 -0.78633025175E+03  0.78633025175E+03  0.00000000000E+00 0. -1.
         21    1    1    2  503  505 -0.62893069366E+02 -0.84815505981E+02  0.70299392891E+02  0.12685114453E+03  0.00000000000E+00 0. -1.
         21    1    1    2  504  501  0.15861234347E+02  0.11542649107E+03 -0.46497645475E+03  0.47935160067E+03  0.00000000000E+00 0. -1.
         21    1    1    2  505  502  0.32970138901E+01 -0.55948073783E+02  0.34433455593E+02  0.65777808756E+02  0.00000000000E+00 0. -1.
          2    1    1    2  501    0  0.43734821129E+02  0.25337088696E+02 -0.26785461608E+03  0.27258172719E+03  0.00000000000E+00 0. -1.
<scales pt_clust_3="161.66924" pt_clust_4="46.55588" pt_clust_5="38.35005" pt_clust_6="46.55588"></scales>
<clustering>
<clus scale="   38.350">  3  5 -1 -1</clus>
<clus scale="   46.556">  4  6 -1 -1</clus>
<clus scale="  161.669">  1  3  2 -1</clus>
<clus scale="  161.669">  1  3  2 -1</clus>
</clustering>
</event>
<event>
 6    0  0.1361744E+002  0.1293786E+03  0.7546771E-02  0.1228381E+00
         21   -1    0    0  501  502  0.00000000000E+00  0.00000000000E+00  0.18464075877E+03  0.18464075877E+03  0.00000000000E+00 0. -1.
          1   -1    0    0  504    0 -0.00000000000E+00 -0.00000000000E+00 -0.13768004045E+04  0.13768004045E+04  0.00000000000E+00 0. -1.
         21    1    1    2  503  502 -0.29945338512E+02  0.28513002505E+02  0.39686176451E+02  0.57312365260E+02  0.00000000000E+00 0. -1.
         21    1    1    2  504  505 -0.65944215669E+01 -0.49338525297E+02 -0.20112069240E+03  0.20718906676E+03  0.00000000000E+00 0.  1.
         21    1    1    2  505  503 -0.97245345252E+02 -0.55831883633E+02  0.10331069195E+03  0.15246952310E+03  0.00000000000E+00 0. -1.
          1    1    1    2  501    0  0.13378510533E+03  0.76657406426E+02 -0.11340358218E+04  0.11444702082E+04  0.00000000000E+00 0. -1.
<scales pt_clust_3="41.34870" pt_clust_4="49.24146" pt_clust_5="129.37860" pt_clust_6="14000.00000"></scales>
<clustering>
<clus scale="   41.349">  1  3  2 -1</clus>
<clus scale="   49.241">  2  4  1 -1</clus>
<clus scale="  129.379">  1  5  2 -1</clus>
<clus scale="   41.349">  1  3  2 -1</clus>
</clustering>
</event>
<event>
 6    0  0.1361744E+002  0.1287699E+03  0.7546771E-02  0.1229292E+00
         21   -1    0    0  503  502  0.00000000000E+00  0.00000000000E+00  0.90054494393E+02  0.90054494393E+02  0.00000000000E+00 0.  1.
          1   -1    0    0  505    0 -0.00000000000E+00 -0.00000000000E+00 -0.11990969505E+04  0.11990969505E+04  0.00000000000E+00 0.  1.
         21    1    1    2  503  501  0.30279714542E+02 -0.54812959078E+02 -0.39748922837E+03  0.40239161058E+03  0.00000000000E+00 0. -1.
         21    1    1    2  504  502 -0.46107669138E+01  0.72322312318E+02  0.18697084181E+02  0.74842213940E+02  0.00000000000E+00 0.  1.
         21    1    1    2  505  504 -0.73123332070E+02  0.29170141074E+02 -0.87506206994E-01  0.78726910777E+02  0.00000000000E+00 0.  1.
          1    1    1    2  501    0  0.47454384441E+02 -0.46679494313E+02 -0.73016280568E+03  0.73319070956E+03  0.00000000000E+00 0.  1.
<scales pt_clust_3="38.85475" pt_clust_4="72.46914" pt_clust_5="122.38018" pt_clust_6="38.85475"></scales>
<clustering>
<clus scale="   38.855">  3  6 -1 -1</clus>
<clus scale="   72.469">  1  4  2 -1</clus>
<clus scale="  122.380">  1  5  2 -1</clus>
<clus scale="   72.469">  1  3  2 -1</clus>
</clustering>
</event>
<event>
 6    0  0.1361744E+002  0.1941244E+03  0.7546771E-02  0.1154793E+00
         21   -1    0    0  503  502  0.00000000000E+00  0.00000000000E+00  0.72623706817E+03  0.72623706817E+03  0.00000000000E+00 0.  1.
         -4   -1    0    0    0  501 -0.00000000000E+00 -0.00000000000E+00 -0.68672367399E+03  0.68672367399E+03  0.00000000000E+00 0.  1.
         21    1    1    2  503  504  0.34718365507E+02  0.50132570134E+02  0.73406222482E+02  0.95431195061E+02  0.00000000000E+00 0.  1.
         21    1    1    2  504  501  0.20439249621E+02  0.22549093558E+03 -0.50309071791E+03  0.55169212012E+03  0.00000000000E+00 0.  1.
         21    1    1    2  505  502 -0.14753368728E+02 -0.23948875153E+03  0.58809883054E+03  0.63516356829E+03  0.00000000000E+00 0.  1.
         -4    1    1    2    0  505 -0.40404246400E+02 -0.36134754190E+02 -0.11890094094E+03  0.13067385869E+03  0.00000000000E+00 0.  1.
<scales pt_clust_3="59.94818" pt_clust_4="194.12436" pt_clust_5="14000.00000" pt_clust_6="54.20538"></scales>
<clustering>
<clus scale="   54.205">  2  6  1 -1</clus>
<clus scale="   59.948">  1  3  2 -1</clus>
<clus scale="  194.124">  2  4  1 -1</clus>
<clus scale="   59.948">  1  3  2 -1</clus>
</clustering>
</event>
<event>
 6    0  0.1361744E+002  0.1535466E+03  0.7546771E-02  0.1196182E+00
         -1   -1    0    0    0  501 -0.00000000000E+00  0.00000000000E+00  0.25419122579E+03  0.25419122579E+03  0.00000000000E+00 0.  1.
         21   -1    0    0  504  502  0.00000000000E+00 -0.00000000000E+00 -0.43687581238E+03  0.43687581238E+03  0.00000000000E+00 0. -1.
         21    1    1    2  503  502  0.22472281029E+02  0.93133415919E+02 -0.21448717128E+03  0.23491186266E+03  0.00000000000E+00 0. -1.
         21    1    1    2  504  501 -0.60818637297E+02 -0.55257152436E+02  0.58039598835E+02  0.10060245808E+03  0.00000000000E+00 0.  1.
         21    1    1    2  505  503 -0.19048946575E+02  0.59093445319E+02 -0.16529495055E+03  0.17657100080E+03  0.00000000000E+00 0. -1.
         -1    1    1    2    0  505  0.57395302842E+02 -0.96969708802E+02  0.13905793640E+03  0.17898171663E+03  0.00000000000E+00 0.  1.
<scales pt_clust_3="35.08028" pt_clust_4="82.17213" pt_clust_5="35.08028" pt_clust_6="147.23313"></scales>
<clustering>
<clus scale="   35.080">  3  5 -1 -1</clus>
<clus scale="   82.172">  1  4  2 -1</clus>
<clus scale="  147.233">  1  6  2 -1</clus>
<clus scale="  153.547">  2  3  1 -1</clus>
</clustering>
</event>
<event>
 6    0  0.1361744E+002  0.7669630E+02  0.7546771E-02  0.1338697E+00
         21   -1    0    0  504  502  0.00000000000E+00  0.00000000000E+00  0.15431969523E+03  0.15431969523E+03  0.00000000000E+00 0.  1.
          1   -1    0    0  503    0 -0.00000000000E+00 -0.00000000000E+00 -0.66649012367E+03  0.66649012367E+03  0.00000000000E+00 0. -1.
         21    1    1    2  503  505  0.31129938623E+02  0.49587222184E+01 -0.67074672272E+02  0.74112574271E+02  0.00000000000E+00 0. -1.
         21    1    1    2  504  501  0.39283452076E+02 -0.18222241798E+02  0.74593367793E+02  0.86252015755E+02  0.00000000000E+00 0.  1.
         21    1    1    2  505  502 -0.26773602428E+02  0.92191652150E+02  0.32183460665E+02  0.10125167482E+03  0.00000000000E+00 0.  1.
          1    1    1    2  501    0 -0.43639788271E+02 -0.78928132571E+02 -0.55187258463E+03  0.55919355406E+03  0.00000000000E+00 0. -1.
<scales pt_clust_3="31.52240" pt_clust_4="43.56022" pt_clust_5="14000.00000" pt_clust_6="76.69630"></scales>
<clustering>
<clus scale="   31.522">  2  3  1 -1</clus>
<clus scale="   43.560">  1  4  2 -1</clus>
<clus scale="   76.696">  2  6  1 -1</clus>
<clus scale="   43.560">  1  3  2 -1</clus>
</clustering>
</event>
<event>
 6    0  0.1361744E+002  0.1256041E+03  0.7546771E-02  0.1234128E+00
          2   -1    0    0  502    0 -0.00000000000E+00  0.00000000000E+00  0.53840351305E+03  0.53840351305E+03  0.00000000000E+00 0.  1.
         21   -1    0    0  505  502  0.00000000000E+00 -0.00000000000E+00 -0.14127697803E+03  0.14127697803E+03  0.00000000000E+00 0.  1.
         21    1    1    2  503  501  0.13743504397E+02  0.51582974071E+02  0.14198634712E+03  0.15168984770E+03  0.00000000000E+00 0.  1.
         21    1    1    2  504  503  0.31268581089E+02 -0.69699394917E+02  0.59191276712E+01  0.76620923301E+02  0.00000000000E+00 0.  1.
         21    1    1    2  505  504 -0.16505378679E+02 -0.56013294063E+02 -0.87617992800E+02  0.10529401360E+03  0.00000000000E+00 0.  1.
          2    1    1    2  501    0 -0.28506706807E+02  0.74129714909E+02  0.33683905303E+03  0.34607570648E+03  0.00000000000E+00 0.  1.
<scales pt_clust_3="40.78776" pt_clust_4="115.33101" pt_clust_5="58.39449" pt_clust_6="40.78776"></scales>
<clustering>
<clus scale="   40.788">  3  6 -1 -1</clus>
<clus scale="   58.394">  2  5  1 -1</clus>
<clus scale="  115.331">  2  4  1 -1</clus>
<clus scale="   58.394">  2  3  1 -1</clus>
</clustering>
</event>
<event>
 6    0  0.1361744E+002  0.1834480E+03  0.7546771E-02  0.1164507E+00
         21   -1    0    0  505  502  0.00000000000E+00  0.00000000000E+00  0.36992530143E+03  0.36992530143E+03  0.00000000000E+00 0. -1.
          2   -1    0    0  503    0 -0.00000000000E+00 -0.00000000000E+00 -0.13833501117E+04  0.13833501117E+04  0.00000000000E+00 0. -1.
         21    1    1    2  503  504  0.43499952544E+02  0.14264338900E+02 -0.38735094639E+03  0.39004675733E+03  0.00000000000E+00 0. -1.
         21    1    1    2  504  502 -0.16286472572E+02 -0.41127732681E+02  0.22966131363E+03  0.23388257430E+03  0.00000000000E+00 0. -1.
         21    1    1    2  505  501  0.25622688402E+02 -0.14576051171E+03  0.85524780119E+02  0.17093021076E+03  0.00000000000E+00 0. -1.
          2    1    1    2  501    0 -0.52836168374E+02  0.17262390549E+03 -0.94125995759E+03  0.95841587069E+03  0.00000000000E+00 0. -1.
<scales pt_clust_3="45.50419" pt_clust_4="44.23505" pt_clust_5="14000.00000" pt_clust_6="183.44805"></scales>
<clustering>
<clus scale="   44.235">  1  4  2 -1</clus>
<clus scale="   45.504">  2  3  1 -1</clus>
<clus scale="  183.448">  2  6  1 -1</clus>
<clus scale="   44.235">  1  3  2 -1</clus>
</clustering>
</event>
<event>
 6    0  0.1361744E+002  0.1091754E+03  0.7546771E-02  0.1262105E+00
          2   -1    0    0  504    0 -0.00000000000E+00  0.00000000000E+00  0.64599608191E+03  0.64599608191E+03  0.00000000000E+00 0. -1.
         21   -1    0    0  505  502  0.00000000000E+00 -0.00000000000E+00 -0.65670284183E+02  0.65670284183E+02  0.00000000000E+00 0. -1.
         21    1    1    2  503  502  0.16010714211E+02 -0.27758391171E+02  0.33003034585E+02  0.46000777622E+02  0.00000000000E+00 0. -1.
         21    1    1    2  504  503 -0.76883401800E+02  0.11752596248E+02  0.36047183797E+03  0.36876703617E+03  0.00000000000E+00 0. -1.
         21    1    1    2  505  501  0.88695348971E+02 -0.40486288725E+02 -0.23153180889E+01  0.97526228275E+02  0.00000000000E+00 0. -1.
          2    1    1    2  501    0 -0.27822661382E+02  0.56492083649E+02  0.18916624326E+03  0.19937232404E+03  0.00000000000E+00 0. -1.
<scales pt_clust_3="32.04483" pt_clust_4="109.17536" pt_clust_5="14000.00000" pt_clust_6="60.21447"></scales>
<clustering>
<clus scale="   32.045">  2  3  1 -1</clus>
<clus scale="   60.214">  1  6  2 -1</clus>
<clus scale="  109.175">  1  4  2 -1</clus>
<clus scale="   32.045">  2  3  1 -1</clus>
</clustering>
</event>
<event>
 6    0  0.1361744E+002  0.1324643E+03  0.7546771E-02  0.1223844E+00
          1   -1    0    0  504    0 -0.00000000000E+00  0.00000000000E+00  0.21754212597E+04  0.21754212597E+04  0.00000000000E+00 0. -1.
         21   -1    0    0  501  502  0.00000000000E+00 -0.00000000000E+00 -0.34590335759E+03  0.34590335759E+03  0.00000000000E+00 0. -1.
         21    1    1    2  503  502 -0.62542338694E+02  0.13394939715E+02 -0.70037330997E+02  0.94848280282E+02  0.00000000000E+00 0. -1.
         21    1    1    2  504  505  0.39889352496E+02  0.40901134254E+02  0.34768389600E+03  0.35234664007E+03  0.00000000000E+00 0.  1.
         21    1    1    2  505  503 -0.47167607359E+02 -0.90332313460E+02 -0.25029836719E+03  0.27024800213E+03  0.00000000000E+00 0. -1.
          1    1    1    2  501    0  0.69820593556E+02  0.36036239491E+02  0.18021697043E+04  0.18038816948E+04  0.00000000000E+00 0. -1.
<scales pt_clust_3="63.75466" pt_clust_4="57.13198" pt_clust_5="132.46427" pt_clust_6="14000.00000"></scales>
<clustering>
<clus scale="   57.132">  1  4  2 -1</clus>
<clus scale="   63.755">  2  3  1 -1</clus>
<clus scale="  132.464">  2  5  1 -1</clus>
<clus scale="   63.755">  2  3  1 -1</clus>
</clustering>
</event>
<event>
 6    0  0.1361744E+002  0.1923328E+03  0.7546771E-02  0.1156374E+00
          1   -1    0    0  502    0 -0.00000000000E+00  0.00000000000E+00  0.69672754277E+03  0.69672754277E+03  0.00000000000E+00 0. -1.
         21   -1    0    0  505  502  0.00000000000E+00 -0.00000000000E+00 -0.66158310579E+02  0.66158310579E+02  0.00000000000E+00 0. -1.
         21    1    1    2  503  501 -0.76391863338E+02 -0.29261026564E+02  0.30543969154E+03  0.31620456927E+03  0.00000000000E+00 0.  1.
         21    1    1    2  504  503  0.92706800328E+02  0.44897411990E+02  0.12353343897E+03  0.16084414498E+03  0.00000000000E+00 0. -1.
         21    1    1    2  505  504  0.44607889867E+02  0.62524271823E+02  0.20653776083E+02  0.79534438276E+02  0.00000000000E+00 0. -1.
          1    1    1    2  501    0 -0.60922826857E+02 -0.78160657249E+02  0.18094232560E+03  0.20630270082E+03  0.00000000000E+00 0. -1.
<scales pt_clust_3="70.67875" pt_clust_4="70.13647" pt_clust_5="70.13647" pt_clust_6="190.90935"></scales>
<clustering>
<clus scale="   70.136">  4  5 -1 -1</clus>
<clus scale="   70.679">  3  6 -1 -1</clus>
<clus scale="  190.909">  1  3  2 -1</clus>
<clus scale="  192.333">  2  3  1 -1</clus>
</clustering>
</event>
<event>
 6    0  0.1361744E+002  0.1165780E+03  0.7546771E-02  0.1248852E+00
          1   -1    0    0  502    0 -0.00000000000E+00  0.00000000000E+00  0.17007791271E+03  0.17007791271E+03  0.00000000000E+00 0. -1.
         21   -1    0    0  504  502  0.00000000000E+00 -0.00000000000E+00 -0.41707073519E+03  0.41707073519E+03  0.00000000000E+00 0.  1.
         21    1    1    2  503  501  0.13212546977E+02  0.66618510250E+02  0.86471329233E+02  0.10995402714E+03  0.00000000000E+00 0. -1.
         21    1    1    2  504  505  0.85503405389E+01 -0.59582053585E+02 -0.30684881270E+03  0.31269685525E+03  0.00000000000E+00 0.  1.
         21    1    1    2  505  503 -0.44401172489E+02 -0.60833694989E+02 -0.60856937152E+02  0.96828556552E+02  0.00000000000E+00 0. -1.
          1    1    1    2  501    0  0.22638284973E+02  0.53797238324E+02  0.34241598131E+02  0.67669208953E+02  0.00000000000E+00 0. -1.
<scales pt_clust_3="32.02181" pt_clust_4="60.19244" pt_clust_5="111.34294" pt_clust_6="32.02181"></scales>
<clustering>
<clus scale="   32.022">  3  6 -1 -1</clus>
<clus scale="   60.192">  2  4  1 -1</clus>
<clus scale="  111.343">  2  5  1 -1</clus>
<clus scale="   60.192">  2  3  1 -1</clus>
</clustering>
</event>
<event>
 6    0  0.1361744E+002  0.1062698E+03  0.7546771E-02  0.1267638E+00
          2   -1    0    0  504    0 -0.00000000000E+00  0.00000000000E+00  0.18362622191E+04  0.18362622191E+04  0.00000000000E+00 0. -1.
         21   -1    0    0  505  502  0.00000000000E+00 -0.00000000000E+00 -0.27011877173E+02  0.27011877173E+02  0.00000000000E+00 0. -1.
         21    1    1    2  503  502 -0.81690304793E+02  0.56110181442E+02  0.94893410878E+02  0.13720939395E+03  0.00000000000E+00 0. -1.
         21    1    1    2  504  503  0.76147859484E+02  0.39365368465E+02  0.52208089689E+03  0.52907144285E+03  0.00000000000E+00 0.  1.
         21    1    1    2  505  501  0.24757000630E+02 -0.61105986433E+02  0.67056371704E+03  0.67379711284E+03  0.00000000000E+00 0. -1.
          2    1    1    2  501    0 -0.19214555320E+02 -0.34369563474E+02  0.52171231711E+03  0.52319614664E+03  0.00000000000E+00 0. -1.
<scales pt_clust_3="95.75409" pt_clust_4="85.72123" pt_clust_5="35.61987" pt_clust_6="35.61987"></scales>
<clustering>
<clus scale="   35.620">  5  6 -1 -1</clus>
<clus scale="   85.721">  1  4  2 -1</clus>
<clus scale="   95.754">  2  3  1 -1</clus>
<clus scale="   95.754">  2  3  1 -1</clus>
</clustering>
</event>
<event>
 6    0  0.1361744E+002  0.1693665E+03  0.7546771E-02  0.1178510E+00
          1   -1    0    0  503    0 -0.00000000000E+00  0.00000000000E+00  0.18606153982E+04  0.18606153982E+04  0.00000000000E+00 0. -1.
         21   -1    0    0  505  502  0.00000000000E+00 -0.00000000000E+00 -0.49937704821E+02  0.49937704821E+02  0.00000000000E+00 0.  1.
         21    1    1    2  503  504  0.38330545970E+02  0.99325288891E+02  0.34529913093E+03  0.36133949907E+03  0.00000000000E+00 0.  1.
         21    1    1    2  504  502  0.51372462681E+02  0.78127611653E+02  0.29796184733E+02  0.98136976972E+02  0.00000000000E+00 0.  1.
         21    1    1    2  505  501 -0.35850857835E+02 -0.22992826041E+02  0.18487497475E+03  0.18971744872E+03  0.00000000000E+00 0. -1.
          1    1    1    2  501    0 -0.53852150816E+02 -0.15446007450E+03  0.12507074029E+04  0.12613591782E+04  0.00000000000E+00 0. -1.
<scales pt_clust_3="153.27929" pt_clust_4="93.50430" pt_clust_5="36.76173" pt_clust_6="36.76173"></scales>
<clustering>
<clus scale="   36.762">  5  6 -1 -1</clus>
<clus scale="   93.504">  2  4  1 -1</clus>
<clus scale="  153.279">  2  3  1 -1</clus>
<clus scale="   93.504">  2  3  1 -1</clus>
</clustering>
</event>
<event>
 6    0  0.1361744E+002  0.1062918E+03  0.7546771E-02  0.1267595E+00
         21   -1    0    0  503  502  0.00000000000E+00  0.00000000000E+00  0.39364754579E+02  0.39364754579E+02  0.00000000000E+00 0.  1.
          2   -1    0    0  504    0 -0.00000000000E+00 -0.00000000000E+00 -0.99631952758E+03  0.99631952758E+03  0.00000000000E+00 0.  1.
         21    1    1    2  503  505  0.14162485680E+01  0.44473138402E+02 -0.29658797092E+02  0.53474386806E+02  0.00000000000E+00 0.  1.
         21    1    1    2  504  502  0.17359369698E+02 -0.49125710123E+02 -0.53696012938E+02  0.74819415374E+02  0.00000000000E+00 0.  1.
         21    1    1    2  505  501 -0.11547791430E+03 -0.28240813594E+02 -0.26726338217E+03  0.29251052578E+03  0.00000000000E+00 0.  1.
          2    1    1    2  501    0  0.96702296037E+02  0.32893385314E+02 -0.60633658081E+03  0.61487995421E+03  0.00000000000E+00 0.  1.
<scales pt_clust_3="44.49568" pt_clust_4="36.68437" pt_clust_5="14000.00000" pt_clust_6="106.29183"></scales>
<clustering>
<clus scale="   44.496">  1  3  2 -1</clus>
<clus scale="   36.684">  1  4  2 -1</clus>
<clus scale="  106.292">  2  6  1 -1</clus>
<clus scale="   44.496">  1  3  2 -1</clus>
</clustering>
</event>
<event>
 6    0  0.1361744E+002  0.1210144E+03  0.7546771E-02  0.1241433E+00
         21   -1    0    0  504  502  0.00000000000E+00  0.00000000000E+00  0.32747261195E+03  0.32747261195E+03  0.00000000000E+00 0. -1.
          2   -1    0    0  503    0 -0.00000000000E+00 -0.00000000000E+00 -0.27806238010E+04  0.27806238010E+04  0.00000000000E+00 0.  1.
         21    1    1    2  503  505  0.36908250426E+02 -0.13624550464E+02 -0.42785091560E+03  0.42965597087E+03  0.00000000000E+00 0.  1.
         21    1    1    2  504  501 -0.14296414386E+02 -0.29579357483E+02  0.87214410865E+02  0.93196991989E+02  0.00000000000E+00 0. -1.
         21    1    1    2  505  502 -0.10626319700E+03  0.43915204011E+02  0.22158752552E+03  0.24964263186E+03  0.00000000000E+00 0. -1.
          2    1    1    2  501    0  0.83651360956E+02 -0.71129606425E+00 -0.23341022099E+04  0.23356008182E+04  0.00000000000E+00 0.  1.
<scales pt_clust_3="39.33084" pt_clust_4="32.85310" pt_clust_5="14000.00000" pt_clust_6="121.01437"></scales>
<clustering>
<clus scale="   32.853">  1  4  2 -1</clus>
<clus scale="   39.331">  2  3  1 -1</clus>
<clus scale="  121.014">  2  6  1 -1</clus>
<clus scale="   32.853">  1  3  2 -1</clus>
</clustering>
</event>
<event>
 6    0  0.1361744E+002  0.7609544E+02  0.7546771E-02  0.1340512E+00
         21   -1    0    0  503  502  0.00000000000E+00  0.00000000000E+00  0.23772245694E+03  0.23772245694E+03  0.00000000000E+00 0.  1.
          1   -1    0    0  505    0 -0.00000000000E+00 -0.00000000000E+00 -0.26976193943E+04  0.26976193943E+04  0.00000000000E+00 0. -1.
         21    1    1    2  503  504 -0.58430469644E+02 -0.26841023503E+02  0.96650288980E+02  0.11608548008E+03  0.00000000000E+00 0.  1.
         21    1    1    2  504  501  0.17172457548E+02 -0.51514061285E+02 -0.41971782471E+03  0.42321583641E+03  0.00000000000E+00 0. -1.
         21    1    1    2  505  502  0.72214416106E+02  0.84371538367E+02  0.10568392584E+03  0.15330548118E+03  0.00000000000E+00 0.  1.
          1    1    1    2  501    0 -0.30956404010E+02 -0.60164535792E+01 -0.22425133275E+04  0.22427350536E+04  0.00000000000E+00 0. -1.
<scales pt_clust_3="14000.00000" pt_clust_4="58.23451" pt_clust_5="76.09544" pt_clust_6="31.53564"></scales>
<clustering>
<clus scale="   31.536">  2  6  1 -1</clus>
<clus scale="   58.235">  2  4  1 -1</clus>
<clus scale="   76.095">  2  5  1 -1</clus>
<clus scale="   76.095">  1  3  2 -1</clus>
</clustering>
</event>
<event>
 6    0  0.1361744E+002  0.1227717E+03  0.7546771E-02  0.1238593E+00
          1   -1    0    0  503    0 -0.00000000000E+00  0.00000000000E+00  0.20151293092E+04  0.20151293092E+04  0.00000000000E+00 0.  1.
         21   -1    0    0  505  502  0.00000000000E+00 -0.00000000000E+00 -0.16327386310E+03  0.16327386310E+03  0.00000000000E+00 0.  1.
         21    1    1    2  503  504  0.18319776205E+02 -0.40214116550E+02  0.13023356970E+03  0.13752662305E+03  0.00000000000E+00 0. -1.
         21    1    1    2  504  502 -0.10381994074E+03  0.10960883121E+02 -0.10413737154E+03  0.14745613994E+03  0.00000000000E+00 0.  1.
         21    1    1    2  505  501 -0.14404627302E+02 -0.48914244720E+02 -0.11100823541E+02  0.52185485602E+02  0.00000000000E+00 0. -1.
          1    1    1    2  501    0  0.99904791837E+02  0.78167478149E+02  0.18368600715E+04  0.18412349237E+04  0.00000000000E+00 0.  1.
<scales pt_clust_3="44.19038" pt_clust_4="122.77167" pt_clust_5="51.35684" pt_clust_6="14000.00000"></scales>
<clustering>
<clus scale="   44.190">  1  3  2 -1</clus>
<clus scale="   51.357">  2  5  1 -1</clus>
<clus scale="  122.772">  2  4  1 -1</clus>
<clus scale="   51.357">  2  3  1 -1</clus>
</clustering>
</event>
<event>
 6    0  0.1361744E+002  0.4991157E+03  0.7546771E-02  0.1014010E+00
          1   -1    0    0  504    0 -0.00000000000E+00  0.00000000000E+00  0.20444310746E+04  0.20444310746E+04  0.00000000000E+00 0. -1.
         21   -1    0    0  505  502  0.00000000000E+00 -0.00000000000E+00 -0.49584675213E+03  0.49584675213E+03  0.00000000000E+00 0. -1.
         21    1    1    2  503  501 -0.56582815890E+01  0.67373478867E+02  0.44057938291E+01  0.67754061313E+02  0.00000000000E+00 0. -1.
         21    1    1    2  504  502 -0.17664837007E+03 -0.11385832897E+03  0.17556123338E+03  0.27384322593E+03  0.00000000000E+00 0.  1.
         21    1    1    2  505  503  0.15105791180E+03  0.40349002664E+03 -0.27850818160E+03  0.51301998161E+03  0.00000000000E+00 0. -1.
          1    1    1    2  501    0  0.31248739862E+02 -0.35700517654E+03  0.16471254769E+04  0.16856605579E+04  0.00000000000E+00 0. -1.
<scales pt_clust_3="55.05203" pt_clust_4="210.16271" pt_clust_5="55.05203" pt_clust_6="479.37835"></scales>
<clustering>
<clus scale="   55.052">  3  5 -1 -1</clus>
<clus scale="  210.163">  1  4  2 -1</clus>
<clus scale="  479.378">  1  6  2 -1</clus>
<clus scale="  499.116">  2  3  1 -1</clus>
</clustering>
</event>
<event>
 6    0  0.1361744E+002  0.3499411E+03  0.7546771E-02  0.1062639E+00
          2   -1    0    0  503    0 -0.00000000000E+00  0.00000000000E+00  0.21292291912E+04  0.21292291912E+04  0.00000000000E+00 0. -1.
         21   -1    0    0  505  502  0.00000000000E+00 -0.00000000000E+00 -0.13288895681E+03  0.13288895681E+03  0.00000000000E+00 0.  1.
         21    1    1    2  503  504 -0.49452195013E+02  0.12716786630E+03  0.94255817675E+01  0.13676997991E+03  0.00000000000E+00 0.  1.
         21    1    1    2  504  502  0.19907159863E+02  0.20028956774E+03  0.13182302308E+03  0.24060240102E+03  0.00000000000E+00 0.  1.
         21    1    1    2  505  501  0.38949804011E+02 -0.13977865749E+03  0.80630684349E+03  0.81925935221E+03  0.00000000000E+00 0. -1.
          2    1    1    2  501    0 -0.94047688607E+01 -0.18767877656E+03  0.10487847861E+04  0.10654864149E+04  0.00000000000E+00 0. -1.
<scales pt_clust_3="98.65541" pt_clust_4="98.65541" pt_clust_5="46.50157" pt_clust_6="333.01900"></scales>
<clustering>
<clus scale="   46.502">  5  6 -1 -1</clus>
<clus scale="   98.655">  3  4 -1 -1</clus>
<clus scale="  333.019">  1  5  2 -1</clus>
<clus scale="  349.941">  2  3  1 -1</clus>
</clustering>
</event>
<event>
 6    0  0.1361744E+002  0.1603612E+03  0.7546771E-02  0.1188290E+00
          2   -1    0    0  505    0 -0.00000000000E+00  0.00000000000E+00  0.38136501572E+03  0.38136501572E+03  0.00000000000E+00 0.  1.
         21   -1    0    0  504  502  0.00000000000E+00 -0.00000000000E+00 -0.76610003668E+02  0.76610003668E+02  0.00000000000E+00 0. -1.
         21    1    1    2  503  502  0.67837774130E+02  0.36579430524E+02  0.55782904771E+01  0.77273123795E+02  0.00000000000E+00 0. -1.
         21    1    1    2  504  501 -0.50451587539E+02 -0.39060023503E+01  0.41650427769E+02  0.65539130852E+02  0.00000000000E+00 0.  1.
         21    1    1    2  505  503  0.60649445245E+02  0.31691286046E+02  0.51503495987E+02  0.85646382986E+02  0.00000000000E+00 0.  1.
          2    1    1    2  501    0 -0.78035631836E+02 -0.64364714219E+02  0.20602279782E+03  0.22951638175E+03  0.00000000000E+00 0.  1.
<scales pt_clust_3="152.59238" pt_clust_4="47.68708" pt_clust_5="43.33002" pt_clust_6="47.68708"></scales>
<clustering>
<clus scale="   43.330">  3  5 -1 -1</clus>
<clus scale="   47.687">  4  6 -1 -1</clus>
<clus scale="  152.592">  2  3  1 -1</clus>
<clus scale="  152.592">  2  3  1 -1</clus>
</clustering>
</event>
<event>
 6    0  0.1361744E+002  0.2118748E+03  0.7546771E-02  0.1140090E+00
          2   -1    0    0  504    0 -0.00000000000E+00  0.00000000000E+00  0.38986676918E+04  0.38986676918E+04  0.00000000000E+00 0.  1.
         21   -1    0    0  501  502  0.00000000000E+00 -0.00000000000E+00 -0.35354151369E+02  0.35354151369E+02  0.00000000000E+00 0. -1.
         21    1    1    2  503  502 -0.58450372779E+02  0.64609251515E+01  0.47376002352E+02  0.75516059423E+02  0.00000000000E+00 0. -1.
         21    1    1    2  504  505  0.61103385389E+02  0.32067433652E+02  0.40678783759E+03  0.41259942901E+03  0.00000000000E+00 0. -1.
         21    1    1    2  505  503 -0.14673885677E+03 -0.14904034523E+02  0.30979388305E+03  0.34311320626E+03  0.00000000000E+00 0. -1.
          2    1    1    2  501    0  0.14408584416E+03 -0.23624324281E+02  0.30993558174E+04  0.31027931485E+04  0.00000000000E+00 0.  1.
<scales pt_clust_3="46.85462" pt_clust_4="69.00684" pt_clust_5="46.85462" pt_clust_6="198.45579"></scales>
<clustering>
<clus scale="   46.855">  3  5 -1 -1</clus>
<clus scale="   69.007">  1  4  2 -1</clus>
<clus scale="  198.456">  1  6  2 -1</clus>
<clus scale="  211.875">  2  3  1 -1</clus>
</clustering>
</event>
<event>
 6    0  0.1361744E+002  0.8570872E+02  0.7546771E-02  0.1313589E+00
          1   -1    0    0  503    0 -0.00000000000E+00  0.00000000000E+00  0.11755298540E+04  0.11755298540E+04  0.00000000000E+00 0. -1.
         21   -1    0    0  504  502  0.00000000000E+00 -0.00000000000E+00 -0.80817909868E+02  0.80817909868E+02  0.00000000000E+00 0. -1.
         21    1    1    2  503  505  0.36954008173E+02 -0.88562124342E+02  0.22423421066E+03  0.24390537062E+03  0.00000000000E+00 0.  1.
         21    1    1    2  504  501  0.10382592011E+02  0.65615717840E+02 -0.40385952936E+02  0.77744747984E+02  0.00000000000E+00 0. -1.
         21    1    1    2  505  502  0.33950284899E+02  0.20268740007E+02  0.28860967009E+02  0.48953029353E+02  0.00000000000E+00 0. -1.
          1    1    1    2  501    0 -0.81286885083E+02  0.26776664952E+01  0.88200271942E+03  0.88574461593E+03  0.00000000000E+00 0. -1.
<scales pt_clust_3="14000.00000" pt_clust_4="85.70872" pt_clust_5="39.54041" pt_clust_6="80.45357"></scales>
<clustering>
<clus scale="   39.540">  2  5  1 -1</clus>
<clus scale="   80.454">  1  6  2 -1</clus>
<clus scale="   85.709">  2  4  1 -1</clus>
<clus scale="   39.540">  2  3  1 -1</clus>
</clustering>
</event>
<event>
 6    0  0.1361744E+002  0.1464082E+03  0.7546771E-02  0.1204957E+00
         21   -1    0    0  503  502  0.00000000000E+00  0.00000000000E+00  0.49332235658E+03  0.49332235658E+03  0.00000000000E+00 0. -1.
          2   -1    0    0  505    0 -0.00000000000E+00 -0.00000000000E+00 -0.72401399014E+03  0.72401399014E+03  0.00000000000E+00 0. -1.
         21    1    1    2  503  501  0.90630120005E+02  0.15533803896E+02  0.25959518073E+03  0.27539930206E+03  0.00000000000E+00 0. -1.
         21    1    1    2  504  502 -0.40255423919E+02 -0.17901081057E+02  0.13619473857E+03  0.14314312653E+03  0.00000000000E+00 0.  1.
         21    1    1    2  505  504 -0.12430848277E+02 -0.14050020463E+03  0.13751357218E+02  0.14171779463E+03  0.00000000000E+00 0. -1.
          2    1    1    2  501    0 -0.37943847808E+02  0.14286748179E+03 -0.64023291007E+03  0.65707612350E+03  0.00000000000E+00 0. -1.
<scales pt_clust_3="60.21464" pt_clust_4="44.05619" pt_clust_5="146.40820" pt_clust_6="14000.00000"></scales>
<clustering>
<clus scale="   44.056">  1  4  2 -1</clus>
<clus scale="   60.215">  1  3  2 -1</clus>
<clus scale="  146.408">  1  5  2 -1</clus>
<clus scale="   44.056">  1  3  2 -1</clus>
</clustering>
</event>
<event>
 6    0  0.1361744E+002  0.1101352E+03  0.7546771E-02  0.1260320E+00
         21   -1    0    0  505  502  0.00000000000E+00  0.00000000000E+00  0.29590719703E+03  0.29590719703E+03  0.00000000000E+00 0. -1.
         -4   -1    0    0    0  501 -0.00000000000E+00 -0.00000000000E+00 -0.13607866915E+04  0.13607866915E+04  0.00000000000E+00 0. -1.
         21    1    1    2  503  501  0.35027504100E+02 -0.72242635581E+01 -0.66920332625E+03  0.67015834539E+03  0.00000000000E+00 0. -1.
         21    1    1    2  504  502 -0.10012219177E+03  0.38732841488E+02 -0.10303310340E+03  0.14879686385E+03  0.00000000000E+00 0. -1.
         21    1    1    2  505  503  0.11062849100E+03 -0.63894075624E+01  0.26001290276E+03  0.28264146397E+03  0.00000000000E+00 0. -1.
         -4    1    1    2    0  504 -0.45533803334E+02 -0.25119170368E+02 -0.55265596761E+03  0.55509721537E+03  0.00000000000E+00 0. -1.
<scales pt_clust_3="35.76473" pt_clust_4="14000.00000" pt_clust_5="110.13522" pt_clust_6="35.50025"></scales>
<clustering>
<clus scale="   35.765">  2  3  1 -1</clus>
<clus scale="   35.500">  2  6  1 -1</clus>
<clus scale="  110.135">  1  5  2 -1</clus>
<clus scale="  110.135">  1  3  2 -1</clus>
</clustering>
</event>
<event>
 6    0  0.1361744E+002  0.1048958E+03  0.7546771E-02  0.1270325E+00
          2   -1    0    0  503    0 -0.00000000000E+00  0.00000000000E+00  0.21461962180E+03  0.21461962180E+03  0.00000000000E+00 0.  1.
         21   -1    0    0  501  502  0.00000000000E+00 -0.00000000000E+00 -0.24584391728E+03  0.24584391728E+03  0.00000000000E+00 0. -1.
         21    1    1    2  503  505  0.63703473468E+02  0.95419404879E+02  0.11662322012E+02  0.11532131249E+03  0.00000000000E+00 0. -1.
         21    1    1    2  504  502  0.68710352317E+01 -0.39506259489E+02 -0.90600476656E+02  0.99077757515E+02  0.00000000000E+00 0. -1.
         21    1    1    2  505  504  0.33573299933E+02 -0.25048047027E+02 -0.72694516944E+02  0.83899129447E+02  0.00000000000E+00 0. -1.
          2    1    1    2  501    0 -0.10414780863E+03 -0.30865098363E+02  0.12040837610E+03  0.16216533963E+03  0.00000000000E+00 0.  1.
<scales pt_clust_3="14000.00000" pt_clust_4="31.12984" pt_clust_5="82.55475" pt_clust_6="104.89576"></scales>
<clustering>
<clus scale="   31.130">  4  5 -1 -1</clus>
<clus scale="   82.555">  2  4  1 -1</clus>
<clus scale="  104.896">  1  6  2 -1</clus>
<clus scale="   82.555">  2  3  1 -1</clus>
</clustering>
</event>
<event>
 6    0  0.1361744E+002  0.1667032E+03  0.7546771E-02  0.1181330E+00
          2   -1    0    0  505    0 -0.00000000000E+00  0.00000000000E+00  0.16668194813E+04  0.16668194813E+04  0.00000000000E+00 0. -1.
         21   -1    0    0  504  502  0.00000000000E+00 -0.00000000000E+00 -0.56905340008E+02  0.56905340008E+02  0.00000000000E+00 0. -1.
         21    1    1    2  503  502 -0.14458463493E+03  0.10941848228E+03  0.19012783976E+03  0.26272745646E+03  0.00000000000E+00 0. -1.
         21    1    1    2  504  501  0.44417192899E+02  0.21081262981E+02  0.50216026821E+02  0.70277706448E+02  0.00000000000E+00 0. -1.
         21    1    1    2  505  503 -0.25148609924E+02 -0.25666909649E+02  0.72072003318E+03  0.72161527773E+03  0.00000000000E+00 0. -1.
          2    1    1    2  501    0  0.12531605196E+03 -0.10483283561E+03  0.64885024155E+03  0.66910438069E+03  0.00000000000E+00 0. -1.
<scales pt_clust_3="166.70321" pt_clust_4="47.02416" pt_clust_5="35.93387" pt_clust_6="14000.00000"></scales>
<clustering>
<clus scale="   35.934">  1  5  2 -1</clus>
<clus scale="   47.024">  2  4  1 -1</clus>
<clus scale="  166.703">  2  3  1 -1</clus>
<clus scale="   47.024">  2  3  1 -1</clus>
</clustering>
</event>
<event>
 6    0  0.1361744E+002  0.1854759E+03  0.7546771E-02  0.1162606E+00
         -3   -1    0    0    0  501 -0.00000000000E+00  0.00000000000E+00  0.19897636504E+03  0.19897636504E+03  0.00000000000E+00 0. -1.
         21   -1    0    0  503  502  0.00000000000E+00 -0.00000000000E+00 -0.21212641563E+04  0.21212641563E+04  0.00000000000E+00 0. -1.
         21    1    1    2  503  504 -0.32370075317E+02 -0.66392759618E+02 -0.79284900940E+03  0.79628221882E+03  0.00000000000E+00 0. -1.
         21    1    1    2  504  501  0.81911687804E+02 -0.70028384442E+02  0.40998934474E+01  0.10784390735E+03  0.00000000000E+00 0. -1.
         21    1    1    2  505  502 -0.16063994811E+03  0.71442850898E+02 -0.12379572359E+04  0.12503788993E+04  0.00000000000E+00 0. -1.
         -3    1    1    2    0  505  0.11109833562E+03  0.64978293162E+02  0.10441856066E+03  0.16573549581E+03  0.00000000000E+00 0. -1.
<scales pt_clust_3="73.86352" pt_clust_4="108.52681" pt_clust_5="185.47591" pt_clust_6="14000.00000"></scales>
<clustering>
<clus scale="   73.864">  2  3  1 -1</clus>
<clus scale="  108.527">  1  4  2 -1</clus>
<clus scale="  185.476">  2  5  1 -1</clus>
<clus scale="   73.864">  2  3  1 -1</clus>
</clustering>
</event>
<event>
 6    0  0.1361744E+002  0.1889237E+03  0.7546771E-02  0.1159436E+00
          2   -1    0    0  505    0 -0.00000000000E+00  0.00000000000E+00  0.40894198018E+04  0.40894198018E+04  0.00000000000E+00 0. -1.
         21   -1    0    0  504  502  0.00000000000E+00 -0.00000000000E+00 -0.14529573945E+03  0.14529573945E+03  0.00000000000E+00 0.  1.
         21    1    1    2  503  502  0.38903612218E+02  0.66402599037E+02  0.56651335102E+02  0.95562387848E+02  0.00000000000E+00 0. -1.
         21    1    1    2  504  501 -0.21179005672E+03  0.98977386711E+01 -0.29608477764E+02  0.21407861947E+03  0.00000000000E+00 0.  1.
         21    1    1    2  505  503 -0.14311044941E+02 -0.49693731797E+02  0.13745647110E+04  0.13755371379E+04  0.00000000000E+00 0.  1.
          2    1    1    2  501    0  0.18719748945E+03 -0.26606605911E+02  0.25425164940E+04  0.25495373960E+04  0.00000000000E+00 0. -1.
<scales pt_clust_3="75.55551" pt_clust_4="188.92373" pt_clust_5="51.71337" pt_clust_6="14000.00000"></scales>
<clustering>
<clus scale="   51.713">  1  5  2 -1</clus>
<clus scale="   75.556">  2  3  1 -1</clus>
<clus scale="  188.924">  2  4  1 -1</clus>
<clus scale="   75.556">  2  3  1 -1</clus>
</clustering>
</event>
<event>
 6    0  0.1361744E+002  0.1739337E+03  0.7546771E-02  0.1173807E+00
         21   -1    0    0  504  502  0.00000000000E+00  0.00000000000E+00  0.51138324547E+03  0.51138324547E+03  0.00000000000E+00 0.  1.
          2   -1    0    0  503    0 -0.00000000000E+00 -0.00000000000E+00 -0.81663058820E+03  0.81663058820E+03  0.00000000000E+00 0.  1.
         21    1    1    2  503  505  0.11483777949E+02  0.17851491226E+03 -0.75743522098E+03  0.77827216643E+03  0.00000000000E+00 0.  1.
         21    1    1    2  504  501 -0.10804061842E+03 -0.40817615865E+02  0.24712761366E+03  0.27278363299E+03  0.00000000000E+00 0.  1.
         21    1    1    2  505  502 -0.64965964647E+01 -0.37762830996E+02  0.70297629465E+02  0.80062437378E+02  0.00000000000E+00 0. -1.
          2    1    1    2  501    0  0.10305343694E+03 -0.99934465400E+02  0.13476263512E+03  0.19689559686E+03  0.00000000000E+00 0.  1.
<scales pt_clust_3="173.93368" pt_clust_4="128.58492" pt_clust_5="38.31758" pt_clust_6="14000.00000"></scales>
<clustering>
<clus scale="   38.318">  1  5  2 -1</clus>
<clus scale="  128.585">  1  4  2 -1</clus>
<clus scale="  173.934">  2  3  1 -1</clus>
<clus scale="   38.318">  1  3  2 -1</clus>
</clustering>
</event>
<event>
 6    0  0.1361744E+002  0.1489423E+03  0.7546771E-02  0.1201779E+00
          1   -1    0    0  505    0 -0.00000000000E+00  0.00000000000E+00  0.17346268491E+04  0.17346268491E+04  0.00000000000E+00 0.  1.
         21   -1    0    0  503  502  0.00000000000E+00 -0.00000000000E+00 -0.35270708601E+03  0.35270708601E+03  0.00000000000E+00 0. -1.
         21    1    1    2  503  504  0.47482574319E+02 -0.78170431018E+02 -0.28510259488E+03  0.29941392880E+03  0.00000000000E+00 0. -1.
         21    1    1    2  504  501 -0.36157592607E+02  0.76299703009E+02  0.72620037016E+03  0.73109232919E+03  0.00000000000E+00 0.  1.
         21    1    1    2  505  502 -0.14628525576E+02 -0.54603272240E+02 -0.43221767764E+02  0.71159203961E+02  0.00000000000E+00 0. -1.
          1    1    1    2  501    0  0.33035438638E+01  0.56474000249E+02  0.98404375559E+03  0.98566847318E+03  0.00000000000E+00 0.  1.
<scales pt_clust_3="136.23274" pt_clust_4="49.27857" pt_clust_5="56.52885" pt_clust_6="49.27857"></scales>
<clustering>
<clus scale="   49.279">  4  6 -1 -1</clus>
<clus scale="   56.529">  2  5  1 -1</clus>
<clus scale="  136.233">  2  3  1 -1</clus>
<clus scale="   56.529">  2  3  1 -1</clus>
</clustering>
</event>
<event>
 6    0  0.1361744E+002  0.1017533E+03  0.7546771E-02  0.1276652E+00
         21   -1    0    0  505  502  0.00000000000E+00  0.00000000000E+00  0.34820228637E+03  0.34820228637E+03  0.00000000000E+00 0. -1.
          2   -1    0    0  504    0 -0.00000000000E+00 -0.00000000000E+00 -0.42360505984E+03  0.42360505984E+03  0.00000000000E+00 0. -1.
         21    1    1    2  503  502 -0.11921400597E+02  0.74104936996E+02  0.20392728679E+03  0.21730163316E+03  0.00000000000E+00 0. -1.
         21    1    1    2  504  503 -0.41749183356E+02  0.25004461243E+02 -0.11947268937E+03  0.12900364684E+03  0.00000000000E+00 0. -1.
         21    1    1    2  505  501  0.79432297162E+02  0.10530667941E+02  0.10826180866E+03  0.13468854448E+03  0.00000000000E+00 0. -1.
          2    1    1    2  501    0 -0.25761713209E+02 -0.10964006618E+03 -0.26811917955E+03  0.29081352173E+03  0.00000000000E+00 0. -1.
<scales pt_clust_3="75.76186" pt_clust_4="48.66433" pt_clust_5="14000.00000" pt_clust_6="101.75333"></scales>
<clustering>
<clus scale="   48.664">  2  4  1 -1</clus>
<clus scale="   75.762">  1  3  2 -1</clus>
<clus scale="  101.753">  2  6  1 -1</clus>
<clus scale="   75.762">  1  3  2 -1</clus>
</clustering>
</event>
<event>
 6    0  0.1361744E+002  0.1739663E+03  0.7546771E-02  0.1173774E+00
         21   -1    0    0  504  502  0.00000000000E+00  0.00000000000E+00  0.21009844046E+02  0.21009844046E+02  0.00000000000E+00 0.  1.
          2   -1    0    0  505    0 -0.00000000000E+00 -0.00000000000E+00 -0.40841785183E+04  0.40841785183E+04  0.00000000000E+00 0. -1.
         21    1    1    2  503  501 -0.57456770558E+02  0.61736522492E+02 -0.21242964678E+04  0.21259699343E+04  0.00000000000E+00 0. -1.
         21    1    1    2  504  503 -0.15900455686E+02 -0.26579509425E+02 -0.73867419755E+02  0.80098005678E+02  0.00000000000E+00 0. -1.
         21    1    1    2  505  502  0.13971044345E+03 -0.90922308899E+02 -0.42516230121E+03  0.45667149751E+03  0.00000000000E+00 0.  1.
          2    1    1    2  501    0 -0.66353217201E+02  0.55765295831E+02 -0.14398424855E+04  0.14424489248E+04  0.00000000000E+00 0. -1.
<scales pt_clust_3="36.77534" pt_clust_4="30.97248" pt_clust_5="169.92111" pt_clust_6="36.77534"></scales>
<clustering>
<clus scale="   30.972">  1  4  2 -1</clus>
<clus scale="   36.775">  3  6 -1 -1</clus>
<clus scale="  169.921">  1  5  2 -1</clus>
<clus scale="   30.972">  1  3  2 -1</clus>
</clustering>
</event>
<event>
 6    0  0.1361744E+002  0.1486793E+03  0.7546771E-02  0.1202105E+00
         21   -1    0    0  504  502  0.00000000000E+00  0.00000000000E+00  0.23308655027E+03  0.23308655027E+03  0.00000000000E+00 0. -1.
          1   -1    0    0  505    0 -0.00000000000E+00 -0.00000000000E+00 -0.97186758197E+03  0.97186758197E+03  0.00000000000E+00 0. -1.
         21    1    1    2  503  502  0.53480693970E+02 -0.76480799617E+02  0.14796138159E+03  0.17493446710E+03  0.00000000000E+00 0. -1.
         21    1    1    2  504  501  0.75103139952E+02  0.23463177307E+02 -0.26858650654E+01  0.78728750728E+02  0.00000000000E+00 0. -1.
         21    1    1    2  505  503 -0.10629706646E+02  0.16210867077E+03 -0.63068385884E+03  0.65127132718E+03  0.00000000000E+00 0. -1.
          1    1    1    2  501    0 -0.11795412728E+03 -0.10909104846E+03 -0.25337268939E+03  0.30001958723E+03  0.00000000000E+00 0. -1.
<scales pt_clust_3="128.95252" pt_clust_4="78.68292" pt_clust_5="14000.00000" pt_clust_6="148.67927"></scales>
<clustering>
<clus scale="   78.683">  1  4  2 -1</clus>
<clus scale="  128.953">  1  3  2 -1</clus>
<clus scale="  148.679">  1  6  2 -1</clus>
<clus scale="   78.683">  1  3  2 -1</clus>
</clustering>
</event>
<event>
 6    0  0.1361744E+002  0.8455050E+02  0.7546771E-02  0.1316612E+00
         21   -1    0    0  505  502  0.00000000000E+00  0.00000000000E+00  0.34036773227E+03  0.34036773227E+03  0.00000000000E+00 0.  1.
          1   -1    0    0  504    0 -0.00000000000E+00 -0.00000000000E+00 -0.11597934300E+04  0.11597934300E+04  0.00000000000E+00 0.  1.
         21    1    1    2  503  502 -0.49590319074E+02  0.38385748929E+02  0.28703633239E+02  0.68967847783E+02  0.00000000000E+00 0.  1.
         21    1    1    2  504  503 -0.45303827839E+01 -0.87875799621E+02 -0.17575605859E+03  0.19655246795E+03  0.00000000000E+00 0.  1.
         21    1    1    2  505  501 -0.14538270136E+02  0.36822428763E+02  0.27845379320E+03  0.28125391999E+03  0.00000000000E+00 0.  1.
          1    1    1    2  501    0  0.68658971994E+02  0.12667621930E+02 -0.95082706558E+03  0.95338692656E+03  0.00000000000E+00 0.  1.
<scales pt_clust_3="84.55050" pt_clust_4="14000.00000" pt_clust_5="39.58854" pt_clust_6="69.66155"></scales>
<clustering>
<clus scale="   39.589">  1  5  2 -1</clus>
<clus scale="   69.662">  2  6  1 -1</clus>
<clus scale="   84.550">  1  3  2 -1</clus>
<clus scale="   39.589">  1  3  2 -1</clus>
</clustering>
</event>
<event>
 6    0  0.1361744E+002  0.1414964E+03  0.7546771E-02  0.1211330E+00
         21   -1    0    0  505  502  0.00000000000E+00  0.00000000000E+00  0.20406241868E+04  0.20406241868E+04  0.00000000000E+00 0.  1.
         -4   -1    0    0    0  501 -0.00000000000E+00 -0.00000000000E+00 -0.34870464381E+02  0.34870464381E+02  0.00000000000E+00 0.  1.
         21    1    1    2  503  502  0.18170782470E+02 -0.42407676053E+02  0.94006942435E+03  0.94120088766E+03  0.00000000000E+00 0.  1.
         21    1    1    2  504  501 -0.59320603792E+02 -0.11217292614E+03  0.20596982934E+03  0.24191996609E+03  0.00000000000E+00 0.  1.
         21    1    1    2  505  504 -0.42329270029E+02  0.16871262625E+01  0.37351710116E+03  0.37591174277E+03  0.00000000000E+00 0.  1.
         -4    1    1    2    0  503  0.83479091350E+02  0.15289347593E+03  0.48619736756E+03  0.51646205466E+03  0.00000000000E+00 0.  1.
<scales pt_clust_3="41.84918" pt_clust_4="141.49637" pt_clust_5="42.36288" pt_clust_6="14000.00000"></scales>
<clustering>
<clus scale="   42.363">  1  5  2 -1</clus>
<clus scale="   41.849">  1  3  2 -1</clus>
<clus scale="  141.496">  2  4  1 -1</clus>
<clus scale="   42.363">  1  3  2 -1</clus>
</clustering>
</event>
<event>
 6    0  0.1361744E+002  0.7453412E+02  0.7546771E-02  0.1345320E+00
         21   -1    0    0  504  502  0.00000000000E+00  0.00000000000E+00  0.30127118393E+03  0.30127118393E+03  0.00000000000E+00 0. -1.
          2   -1    0    0  503    0 -0.00000000000E+00 -0.00000000000E+00 -0.21826566911E+03  0.21826566911E+03  0.00000000000E+00 0. -1.
         21    1    1    2  503  502 -0.84292267781E+02  0.63454023386E+00  0.12486245962E+03  0.15065265637E+03  0.00000000000E+00 0. -1.
         21    1    1    2  504  505  0.23575131558E+02  0.64872697674E+02  0.13645680517E+03  0.15292061146E+03  0.00000000000E+00 0. -1.
         21    1    1    2  505  501  0.49630626944E+02 -0.25089120352E+02 -0.32865205313E+02  0.64597095996E+02  0.00000000000E+00 0.  1.
          2    1    1    2  501    0  0.11086509280E+02 -0.40418117556E+02 -0.14544854466E+03  0.15136648922E+03  0.00000000000E+00 0. -1.
<scales pt_clust_3="14000.00000" pt_clust_4="65.05609" pt_clust_5="74.53412" pt_clust_6="41.91104"></scales>
<clustering>
<clus scale="   41.911">  2  6  1 -1</clus>
<clus scale="   65.056">  1  4  2 -1</clus>
<clus scale="   74.534">  2  5  1 -1</clus>
<clus scale="   65.056">  1  3  2 -1</clus>
</clustering>
</event>
<event>
 6    0  0.1361744E+002  0.1534224E+03  0.7546771E-02  0.1196330E+00
         21   -1    0    0  504  502  0.00000000000E+00  0.00000000000E+00  0.75365268900E+02  0.75365268900E+02  0.00000000000E+00 0. -1.
          1   -1    0    0  503    0 -0.00000000000E+00 -0.00000000000E+00 -0.35586417002E+04  0.35586417002E+04  0.00000000000E+00 0. -1.
         21    1    1    2  503  505  0.91849730489E+02 -0.70838335649E+02 -0.46689933754E+02  0.12503756517E+03  0.00000000000E+00 0. -1.
         21    1    1    2  504  501 -0.68188252451E+02  0.17246009087E+02 -0.11407514501E+04  0.11429177283E+04  0.00000000000E+00 0. -1.
         21    1    1    2  505  502  0.31679975542E+02 -0.35925031596E-02  0.27190757406E+02  0.41748750299E+02  0.00000000000E+00 0. -1.
          1    1    1    2  501    0 -0.55341453580E+02  0.53595919065E+02 -0.23230258048E+04  0.23243029254E+04  0.00000000000E+00 0. -1.
<scales pt_clust_3="141.24594" pt_clust_4="57.03379" pt_clust_5="31.67998" pt_clust_6="57.03379"></scales>
<clustering>
<clus scale="   31.680">  1  5  2 -1</clus>
<clus scale="   57.034">  4  6 -1 -1</clus>
<clus scale="  141.246">  1  3  2 -1</clus>
<clus scale="   31.680">  1  3  2 -1</clus>
</clustering>
</event>
<event>
 6    0  0.1361744E+002  0.8364902E+02  0.7546771E-02  0.1319004E+00
          2   -1    0    0  504    0 -0.00000000000E+00  0.00000000000E+00  0.80325664850E+03  0.80325664850E+03  0.00000000000E+00 0. -1.
         21   -1    0    0  505  502  0.00000000000E+00 -0.00000000000E+00 -0.60623033729E+02  0.60623033729E+02  0.00000000000E+00 0.  1.
         21    1    1    2  503  502 -0.34031658693E+02 -0.38912746750E+02  0.13279264511E+02  0.53373162910E+02  0.00000000000E+00 0.  1.
         21    1    1    2  504  503 -0.21397921228E+02 -0.41386399253E+02  0.17481746765E+03  0.18091946294E+03  0.00000000000E+00 0.  1.
         21    1    1    2  505  501 -0.67332359729E+01  0.11425828277E+03  0.58540895757E+02  0.12855865636E+03  0.00000000000E+00 0.  1.
          2    1    1    2  501    0  0.62162815894E+02 -0.33959136767E+02  0.49599598686E+03  0.50102840002E+03  0.00000000000E+00 0. -1.
<scales pt_clust_3="54.10887" pt_clust_4="46.59083" pt_clust_5="14000.00000" pt_clust_6="83.64902"></scales>
<clustering>
<clus scale="   46.591">  1  4  2 -1</clus>
<clus scale="   54.109">  2  3  1 -1</clus>
<clus scale="   83.649">  1  6  2 -1</clus>
<clus scale="   54.109">  2  3  1 -1</clus>
</clustering>
</event>
<event>
 6    0  0.1361744E+002  0.1537345E+03  0.7546771E-02  0.1195958E+00
         21   -1    0    0  501  502  0.00000000000E+00  0.00000000000E+00  0.61330267719E+02  0.61330267719E+02  0.00000000000E+00 0.  1.
          2   -1    0    0  503    0 -0.00000000000E+00 -0.00000000000E+00 -0.20736033722E+04  0.20736033722E+04  0.00000000000E+00 0. -1.
         21    1    1    2  503  504 -0.55813466359E+02  0.11925893472E+02 -0.36638506339E+03  0.37080370094E+03  0.00000000000E+00 0.  1.
         21    1    1    2  504  505  0.82903843575E+02  0.29984059128E+02 -0.18696894767E+02  0.90120280487E+02  0.00000000000E+00 0.  1.
         21    1    1    2  505  502  0.43790208094E+02  0.50573575448E+02 -0.31277940238E+02  0.73848347335E+02  0.00000000000E+00 0.  1.
          2    1    1    2  501    0 -0.70880585310E+02 -0.92483528048E+02 -0.15959132061E+04  0.16001613111E+04  0.00000000000E+00 0. -1.
<scales pt_clust_3="57.07337" pt_clust_4="37.44039" pt_clust_5="37.44039" pt_clust_6="147.60418"></scales>
<clustering>
<clus scale="   37.440">  4  5 -1 -1</clus>
<clus scale="   57.073">  2  3  1 -1</clus>
<clus scale="  147.604">  2  6  1 -1</clus>
<clus scale="  153.735">  1  3  2 -1</clus>
</clustering>
</event>
<event>
 6    0  0.1361744E+002  0.1579141E+03  0.7546771E-02  0.1191072E+00
         21   -1    0    0  504  502  0.00000000000E+00  0.00000000000E+00  0.40627059524E+03  0.40627059524E+03  0.00000000000E+00 0.  1.
          1   -1    0    0  502    0 -0.00000000000E+00 -0.00000000000E+00 -0.15425324730E+03  0.15425324730E+03  0.00000000000E+00 0. -1.
         21    1    1    2  503  501  0.76302180536E+02  0.34970625739E+02 -0.16889496974E+02  0.85616718736E+02  0.00000000000E+00 0.  1.
         21    1    1    2  504  505 -0.60155499262E+02  0.34833548143E+01  0.66350980005E+02  0.89628513320E+02  0.00000000000E+00 0.  1.
         21    1    1    2  505  503 -0.67090257474E+02 -0.93243103272E+02  0.26435961405E+03  0.28823841607E+03  0.00000000000E+00 0.  1.
          1    1    1    2  501    0  0.50943576200E+02  0.54789122719E+02 -0.61803749139E+02  0.97040194415E+02  0.00000000000E+00 0. -1.
<scales pt_clust_3="51.03963" pt_clust_4="60.25627" pt_clust_5="148.37192" pt_clust_6="51.03963"></scales>
<clustering>
<clus scale="   51.040">  3  6 -1 -1</clus>
<clus scale="   60.256">  1  4  2 -1</clus>
<clus scale="  148.372">  1  5  2 -1</clus>
<clus scale="   60.256">  1  3  2 -1</clus>
</clustering>
</event>
<event>
 6    0  0.1361744E+002  0.1314225E+03  0.7546771E-02  0.1225360E+00
         21   -1    0    0  503  502  0.00000000000E+00  0.00000000000E+00  0.97026723535E+02  0.97026723535E+02  0.00000000000E+00 0. -1.
          1   -1    0    0  505    0 -0.00000000000E+00 -0.00000000000E+00 -0.16935975250E+04  0.16935975250E+04  0.00000000000E+00 0.  1.
         21    1    1    2  503  501  0.36794832455E+01  0.15509907522E+03 -0.89592481564E+03  0.90925823450E+03  0.00000000000E+00 0.  1.
         21    1    1    2  504  502 -0.36773154457E+02 -0.61827981051E+02  0.40421019481E+02  0.82515592135E+02  0.00000000000E+00 0. -1.
         21    1    1    2  505  504 -0.19471243986E+02 -0.50759053355E+02  0.34099184747E+00  0.54366599262E+02  0.00000000000E+00 0. -1.
          1    1    1    2  501    0  0.52564915198E+02 -0.42512040815E+02 -0.74140799718E+03  0.74448382267E+03  0.00000000000E+00 0.  1.
<scales pt_clust_3="126.63320" pt_clust_4="30.56189" pt_clust_5="30.56189" pt_clust_6="67.60432"></scales>
<clustering>
<clus scale="   30.562">  4  5 -1 -1</clus>
<clus scale="   67.604">  2  6  1 -1</clus>
<clus scale="  126.633">  2  3  1 -1</clus>
<clus scale="  131.423">  1  3  2 -1</clus>
</clustering>
</event>
<event>
 6    0  0.1361744E+002  0.2300298E+03  0.7546771E-02  0.1126619E+00
         21   -1    0    0  505  502  0.00000000000E+00  0.00000000000E+00  0.20317523730E+03  0.20317523730E+03  0.00000000000E+00 0. -1.
          2   -1    0    0  504    0 -0.00000000000E+00 -0.00000000000E+00 -0.25494019384E+04  0.25494019384E+04  0.00000000000E+00 0.  1.
         21    1    1    2  503  502  0.13007504849E+03 -0.87159424749E+02  0.96248531216E+02  0.18379353450E+03  0.00000000000E+00 0. -1.
         21    1    1    2  504  503  0.73396615178E+02 -0.12682578935E+02  0.27979969210E+02  0.79566259213E+02  0.00000000000E+00 0. -1.
         21    1    1    2  505  501 -0.15942355935E+03  0.10879107733E+03 -0.10220081051E+04  0.10400730439E+04  0.00000000000E+00 0.  1.
          2    1    1    2  501    0 -0.44048104319E+02 -0.89490736410E+01 -0.14484470964E+04  0.14491443381E+04  0.00000000000E+00 0.  1.
<scales pt_clust_3="34.87330" pt_clust_4="34.87330" pt_clust_5="224.40405" pt_clust_6="44.94799"></scales>
<clustering>
<clus scale="   34.873">  3  4 -1 -1</clus>
<clus scale="   44.948">  2  6  1 -1</clus>
<clus scale="  224.404">  2  5  1 -1</clus>
<clus scale="  230.030">  1  3  2 -1</clus>
</clustering>
</event>
<event>
 6    0  0.1361744E+002  0.2929124E+03  0.7546771E-02  0.1088838E+00
         21   -1    0    0  503  502  0.00000000000E+00  0.00000000000E+00  0.15345551434E+03  0.15345551434E+03  0.00000000000E+00 0. -1.
          2   -1    0    0  505    0 -0.00000000000E+00 -0.00000000000E+00 -0.18998912631E+04  0.18998912631E+04  0.00000000000E+00 0. -1.
         21    1    1    2  503  501  0.37776853259E+02  0.11575585424E+03 -0.10135687296E+02  0.12218527157E+03  0.00000000000E+00 0. -1.
         21    1    1    2  504  502 -0.21074411095E+03  0.13836746036E+03 -0.12263018486E+03  0.28035120229E+03  0.00000000000E+00 0. -1.
         21    1    1    2  505  504 -0.29845746026E+02 -0.30385033893E+02 -0.29136310179E+03  0.29445963378E+03  0.00000000000E+00 0. -1.
          2    1    1    2  501    0  0.20281300372E+03 -0.22373828070E+03 -0.13223067748E+04  0.13563506698E+04  0.00000000000E+00 0. -1.
<scales pt_clust_3="120.19622" pt_clust_4="14000.00000" pt_clust_5="42.59130" pt_clust_6="292.91235"></scales>
<clustering>
<clus scale="   42.591">  2  5  1 -1</clus>
<clus scale="  120.196">  1  3  2 -1</clus>
<clus scale="  292.912">  2  6  1 -1</clus>
<clus scale="  120.196">  1  3  2 -1</clus>
</clustering>
</event>
<event>
 6    0  0.1361744E+002  0.8370143E+02  0.7546771E-02  0.1318864E+00
          2   -1    0    0  505    0 -0.00000000000E+00  0.00000000000E+00  0.52831170699E+03  0.52831170699E+03  0.00000000000E+00 0. -1.
         21   -1    0    0  504  502  0.00000000000E+00 -0.00000000000E+00 -0.77642534759E+02  0.77642534759E+02  0.00000000000E+00 0.  1.
         21    1    1    2  503  501 -0.18890673643E+02  0.70508568006E+02  0.16801812884E+03  0.18318953936E+03  0.00000000000E+00 0.  1.
         21    1    1    2  504  503 -0.36110233623E+02 -0.58780864337E+01 -0.28126585933E+02  0.46147651171E+02  0.00000000000E+00 0.  1.
         21    1    1    2  505  502 -0.10719486155E+02 -0.84079885638E+02  0.33742716809E+02  0.91229959388E+02  0.00000000000E+00 0.  1.
          2    1    1    2  501    0  0.65720393420E+02  0.19449404065E+02  0.27703491251E+03  0.28538709183E+03  0.00000000000E+00 0. -1.
<scales pt_clust_3="14000.00000" pt_clust_4="36.58553" pt_clust_5="83.70143" pt_clust_6="64.79781"></scales>
<clustering>
<clus scale="   36.586">  2  4  1 -1</clus>
<clus scale="   64.798">  1  6  2 -1</clus>
<clus scale="   83.701">  2  5  1 -1</clus>
<clus scale="   36.586">  2  3  1 -1</clus>
</clustering>
</event>
<event>
 6    0  0.1361744E+002  0.1152125E+03  0.7546771E-02  0.1251211E+00
         21   -1    0    0  503  502  0.00000000000E+00  0.00000000000E+00  0.30247906550E+02  0.30247906550E+02  0.00000000000E+00 0. -1.
          2   -1    0    0  505    0 -0.00000000000E+00 -0.00000000000E+00 -0.91780090491E+03  0.91780090491E+03  0.00000000000E+00 0.  1.
         21    1    1    2  503  504 -0.19816141995E+02 -0.11345893359E+03 -0.15436585893E+03  0.19259913681E+03  0.00000000000E+00 0. -1.
         21    1    1    2  504  501  0.88694822054E+01  0.60612503484E+02 -0.31479105768E+03  0.32069604501E+03  0.00000000000E+00 0. -1.
         21    1    1    2  505  502  0.38427422570E+02  0.86227838808E+01 -0.54998685552E+02  0.67645211358E+02  0.00000000000E+00 0. -1.
          2    1    1    2  501    0 -0.27480762780E+02  0.44223646229E+02 -0.36339739620E+03  0.36710841828E+03  0.00000000000E+00 0.  1.
<scales pt_clust_3="107.12386" pt_clust_4="39.09681" pt_clust_5="39.38298" pt_clust_6="39.09681"></scales>
<clustering>
<clus scale="   39.097">  4  6 -1 -1</clus>
<clus scale="   39.383">  1  5  2 -1</clus>
<clus scale="  107.124">  1  3  2 -1</clus>
<clus scale="   39.383">  1  3  2 -1</clus>
</clustering>
</event>
<event>
 6    0  0.1361744E+002  0.2404052E+03  0.7546771E-02  0.1119523E+00
          1   -1    0    0  505    0 -0.00000000000E+00  0.00000000000E+00  0.10159551508E+04  0.10159551508E+04  0.00000000000E+00 0.  1.
         21   -1    0    0  503  502  0.00000000000E+00 -0.00000000000E+00 -0.24443582426E+03  0.24443582426E+03  0.00000000000E+00 0.  1.
         21    1    1    2  503  504 -0.55706564537E+02 -0.12654879103E+03 -0.14648584234E+03  0.20143465404E+03  0.00000000000E+00 0.  1.
         21    1    1    2  504  501  0.33592398361E+02  0.71359029607E+02  0.20269821010E+03  0.21750201082E+03  0.00000000000E+00 0. -1.
         21    1    1    2  505  502  0.16549675808E+02 -0.14654758867E+03  0.66122424767E+02  0.16162383046E+03  0.00000000000E+00 0.  1.
          1    1    1    2  501    0  0.55644903677E+01  0.20173735009E+03  0.64918453401E+03  0.67983047974E+03  0.00000000000E+00 0.  1.
<scales pt_clust_3="138.26720" pt_clust_4="36.37951" pt_clust_5="233.25556" pt_clust_6="36.37951"></scales>
<clustering>
<clus scale="   36.380">  4  6 -1 -1</clus>
<clus scale="  138.267">  2  3  1 -1</clus>
<clus scale="  233.256">  2  5  1 -1</clus>
<clus scale="  138.267">  2  3  1 -1</clus>
</clustering>
</event>
<event>
 6    0  0.1361744E+002  0.8254090E+02  0.7546771E-02  0.1321992E+00
         21   -1    0    0  504  502  0.00000000000E+00  0.00000000000E+00  0.45668538618E+02  0.45668538618E+02  0.00000000000E+00 0. -1.
          2   -1    0    0  505    0 -0.00000000000E+00 -0.00000000000E+00 -0.84295555347E+03  0.84295555347E+03  0.00000000000E+00 0. -1.
         21    1    1    2  503  502 -0.52349340912E+01  0.10754912633E+03 -0.90026023337E+02  0.14035278404E+03  0.00000000000E+00 0. -1.
         21    1    1    2  504  501 -0.30199296051E+02 -0.41861164090E+02 -0.31438808736E+02  0.60438011514E+02  0.00000000000E+00 0. -1.
         21    1    1    2  505  503  0.20537661197E+02  0.26750921858E+02 -0.21047500805E+03  0.21315988451E+03  0.00000000000E+00 0.  1.
          2    1    1    2  501    0  0.14896568945E+02 -0.92438884101E+02 -0.46534717473E+03  0.47467341203E+03  0.00000000000E+00 0. -1.
<scales pt_clust_3="82.54090" pt_clust_4="49.16377" pt_clust_5="33.72547" pt_clust_6="14000.00000"></scales>
<clustering>
<clus scale="   33.725">  2  5  1 -1</clus>
<clus scale="   49.164">  1  4  2 -1</clus>
<clus scale="   82.541">  1  3  2 -1</clus>
<clus scale="   49.164">  1  3  2 -1</clus>
</clustering>
</event>
<event>
 6    0  0.1361744E+002  0.4216315E+03  0.7546771E-02  0.1036537E+00
          2   -1    0    0  505    0 -0.00000000000E+00  0.00000000000E+00  0.56676762958E+03  0.56676762958E+03  0.00000000000E+00 0.  1.
         21   -1    0    0  504  502  0.00000000000E+00 -0.00000000000E+00 -0.76907279225E+03  0.76907279225E+03  0.00000000000E+00 0.  1.
         21    1    1    2  503  502 -0.24500252330E+03 -0.36214934156E+01 -0.67852492302E+02  0.25425049135E+03  0.00000000000E+00 0.  1.
         21    1    1    2  504  501 -0.16102677313E+03  0.25327409832E+03 -0.40487558782E+03  0.50398574599E+03  0.00000000000E+00 0.  1.
         21    1    1    2  505  503  0.36103756932E+02  0.25021264169E+02  0.50891604794E+02  0.67227229333E+02  0.00000000000E+00 0.  1.
          2    1    1    2  501    0  0.36992553950E+03 -0.27467386907E+03  0.21953131267E+03  0.51037695517E+03  0.00000000000E+00 0.  1.
<scales pt_clust_3="238.37701" pt_clust_4="421.63147" pt_clust_5="43.92659" pt_clust_6="14000.00000"></scales>
<clustering>
<clus scale="   43.927">  1  5  2 -1</clus>
<clus scale="  238.377">  2  3  1 -1</clus>
<clus scale="  421.631">  2  4  1 -1</clus>
<clus scale="  238.377">  2  3  1 -1</clus>
</clustering>
</event>
<event>
 6    0  0.1361744E+002  0.9134196E+02  0.7546771E-02  0.1299634E+00
          2   -1    0    0  505    0 -0.00000000000E+00  0.00000000000E+00  0.39822573965E+04  0.39822573965E+04  0.00000000000E+00 0.  1.
         21   -1    0    0  501  502  0.00000000000E+00 -0.00000000000E+00 -0.59213548838E+02  0.59213548838E+02  0.00000000000E+00 0.  1.
         21    1    1    2  503  502 -0.17821009024E+01  0.56736227656E+02 -0.21620360307E+01  0.56805367810E+02  0.00000000000E+00 0.  1.
         21    1    1    2  504  503  0.91753485054E+02 -0.35823323541E+02  0.57129526622E+02  0.11386744636E+03  0.00000000000E+00 0.  1.
         21    1    1    2  505  504 -0.22703910554E+02  0.32014956234E+02  0.46746429472E+03  0.46910904043E+03  0.00000000000E+00 0.  1.
          2    1    1    2  501    0 -0.67267473597E+02 -0.52927860349E+02  0.34006120623E+04  0.34016890907E+04  0.00000000000E+00 0.  1.
<scales pt_clust_3="57.01880" pt_clust_4="14000.00000" pt_clust_5="39.24825" pt_clust_6="91.34196"></scales>
<clustering>
<clus scale="   39.248">  1  5  2 -1</clus>
<clus scale="   57.019">  2  3  1 -1</clus>
<clus scale="   91.342">  1  6  2 -1</clus>
<clus scale="   57.019">  2  3  1 -1</clus>
</clustering>
</event>
<event>
 6    0  0.1361744E+002  0.8198123E+02  0.7546771E-02  0.1323521E+00
         21   -1    0    0  503  502  0.00000000000E+00  0.00000000000E+00  0.15141927862E+03  0.15141927862E+03  0.00000000000E+00 0. -1.
          2   -1    0    0  504    0 -0.00000000000E+00 -0.00000000000E+00 -0.26620030299E+04  0.26620030299E+04  0.00000000000E+00 0. -1.
         21    1    1    2  503  501  0.45237295585E+02 -0.82742119338E+02  0.10482980301E+03  0.14100340004E+03  0.00000000000E+00 0. -1.
         21    1    1    2  504  505 -0.32535550195E+02  0.67153309916E+02 -0.59088929288E+03  0.59558230791E+03  0.00000000000E+00 0. -1.
         21    1    1    2  505  502 -0.17377553725E+01  0.61903553947E+02 -0.11178990248E+02  0.62928845595E+02  0.00000000000E+00 0.  1.
          2    1    1    2  501    0 -0.10963990018E+02 -0.46314744524E+02 -0.20133452712E+04  0.20139077550E+04  0.00000000000E+00 0. -1.
<scales pt_clust_3="14000.00000" pt_clust_4="49.25320" pt_clust_5="81.98123" pt_clust_6="47.59480"></scales>
<clustering>
<clus scale="   47.595">  2  6  1 -1</clus>
<clus scale="   49.253">  2  4  1 -1</clus>
<clus scale="   81.981">  2  5  1 -1</clus>
<clus scale="   81.981">  1  3  2 -1</clus>
</clustering>
</event>
<event>
 6    0  0.1361744E+002  0.7693768E+02  0.7546771E-02  0.1337974E+00
          2   -1    0    0  504    0 -0.00000000000E+00  0.00000000000E+00  0.13770555505E+04  0.13770555505E+04  0.00000000000E+00 0. -1.
         21   -1    0    0  505  502  0.00000000000E+00 -0.00000000000E+00 -0.42539688765E+03  0.42539688765E+03  0.00000000000E+00 0.  1.
         21    1    1    2  503  501 -0.11685604940E+02  0.10400111625E+03 -0.30226942046E+03  0.31987433171E+03  0.00000000000E+00 0.  1.
         21    1    1    2  504  502  0.27000988274E+02  0.15566357935E+02  0.62011157941E+02  0.69402799485E+02  0.00000000000E+00 0. -1.
         21    1    1    2  505  503 -0.33488875792E+02 -0.41961611427E+02 -0.10281731531E+03  0.11599000803E+03  0.00000000000E+00 0. -1.
          2    1    1    2  501    0  0.18173492458E+02 -0.77605862757E+02  0.12947342406E+04  0.12971852989E+04  0.00000000000E+00 0. -1.
<scales pt_clust_3="14000.00000" pt_clust_4="31.16673" pt_clust_5="53.54121" pt_clust_6="76.93768"></scales>
<clustering>
<clus scale="   31.167">  1  4  2 -1</clus>
<clus scale="   53.541">  2  5  1 -1</clus>
<clus scale="   76.938">  1  6  2 -1</clus>
<clus scale="   53.541">  2  3  1 -1</clus>
</clustering>
</event>
<event>
 6    0  0.1361744E+002  0.9648301E+02  0.7546771E-02  0.1287870E+00
          2   -1    0    0  503    0 -0.00000000000E+00  0.00000000000E+00  0.17421816006E+04  0.17421816006E+04  0.00000000000E+00 0.  1.
         21   -1    0    0  505  502  0.00000000000E+00 -0.00000000000E+00 -0.61420737803E+03  0.61420737803E+03  0.00000000000E+00 0.  1.
         21    1    1    2  503  502 -0.43394127027E+02 -0.56467719939E+02  0.45160761164E+03  0.45718824192E+03  0.00000000000E+00 0.  1.
         21    1    1    2  504  501  0.10790193668E+03 -0.43194717402E+02 -0.39008463922E+03  0.40703149424E+03  0.00000000000E+00 0.  1.
         21    1    1    2  505  504 -0.30910082779E+02 -0.14597643559E+02 -0.20869359667E+03  0.21147468337E+03  0.00000000000E+00 0.  1.
          2    1    1    2  501    0 -0.33597726871E+02  0.11426008090E+03  0.12751448468E+04  0.12806945591E+04  0.00000000000E+00 0.  1.
<scales pt_clust_3="71.42559" pt_clust_4="14000.00000" pt_clust_5="34.18369" pt_clust_6="96.48301"></scales>
<clustering>
<clus scale="   34.184">  2  5  1 -1</clus>
<clus scale="   71.426">  1  3  2 -1</clus>
<clus scale="   96.483">  1  6  2 -1</clus>
<clus scale="   34.184">  2  3  1 -1</clus>
</clustering>
</event>
<event>
 6    0  0.1361744E+002  0.9080494E+02  0.7546771E-02  0.1300914E+00
          2   -1    0    0  505    0 -0.00000000000E+00  0.00000000000E+00  0.57971136691E+03  0.57971136691E+03  0.00000000000E+00 0.  1.
         21   -1    0    0  503  502  0.00000000000E+00 -0.00000000000E+00 -0.35448641285E+03  0.35448641285E+03  0.00000000000E+00 0. -1.
         21    1    1    2  503  501 -0.40653878442E+02 -0.26372330775E+02 -0.24466690994E+03  0.24941959522E+03  0.00000000000E+00 0. -1.
         21    1    1    2  504  502 -0.47105820199E+02 -0.21215837202E+01 -0.82453580782E+02  0.94984485037E+02  0.00000000000E+00 0. -1.
         21    1    1    2  505  504  0.12147044381E+03  0.77560441065E+02  0.43427073469E+03  0.45756066455E+03  0.00000000000E+00 0.  1.
          2    1    1    2  501    0 -0.33710745170E+02 -0.49066526569E+02  0.11807471009E+03  0.13223303495E+03  0.00000000000E+00 0.  1.
<scales pt_clust_3="14000.00000" pt_clust_4="47.15357" pt_clust_5="90.80494" pt_clust_6="60.29642"></scales>
<clustering>
<clus scale="   47.154">  2  4  1 -1</clus>
<clus scale="   60.296">  1  6  2 -1</clus>
<clus scale="   90.805">  1  5  2 -1</clus>
<clus scale="   47.154">  2  3  1 -1</clus>
</clustering>
</event>
<event>
 6    0  0.1361744E+002  0.1087918E+03  0.7546771E-02  0.1262824E+00
         21   -1    0    0  501  502  0.00000000000E+00  0.00000000000E+00  0.62234131725E+02  0.62234131725E+02  0.00000000000E+00 0. -1.
          2   -1    0    0  505    0 -0.00000000000E+00 -0.00000000000E+00 -0.30779672093E+04  0.30779672093E+04  0.00000000000E+00 0.  1.
         21    1    1    2  503  504 -0.10463954180E+03 -0.54249390084E+02 -0.16183500700E+03  0.20020739128E+03  0.00000000000E+00 0. -1.
         21    1    1    2  504  502  0.72968805973E+02  0.78604202221E+02 -0.24697007406E+02  0.11005911787E+03  0.00000000000E+00 0. -1.
         21    1    1    2  505  503  0.29850457762E+02  0.77549829329E+01 -0.16833753680E+04  0.16836578688E+04  0.00000000000E+00 0.  1.
          2    1    1    2  501    0  0.18202780686E+01 -0.32109795069E+02 -0.11458256952E+04  0.11462769631E+04  0.00000000000E+00 0.  1.
<scales pt_clust_3="108.79180" pt_clust_4="14000.00000" pt_clust_5="30.84136" pt_clust_6="36.83549"></scales>
<clustering>
<clus scale="   30.841">  2  5  1 -1</clus>
<clus scale="   36.835">  2  6  1 -1</clus>
<clus scale="  108.792">  2  3  1 -1</clus>
<clus scale="  108.792">  1  3  2 -1</clus>
</clustering>
</event>
<event>
 6    0  0.1361744E+002  0.1212336E+03  0.7546771E-02  0.1241076E+00
         21   -1    0    0  503  502  0.00000000000E+00  0.00000000000E+00  0.43740792673E+02  0.43740792673E+02  0.00000000000E+00 0. -1.
          1   -1    0    0  504    0 -0.00000000000E+00 -0.00000000000E+00 -0.12772199888E+04  0.12772199888E+04  0.00000000000E+00 0. -1.
         21    1    1    2  503  505  0.77269959954E+02 -0.39421133173E+02 -0.56782822076E+02  0.10367719776E+03  0.00000000000E+00 0. -1.
         21    1    1    2  504  502 -0.19159958140E+02  0.52852176849E+02 -0.18133506400E+03  0.18984957737E+03  0.00000000000E+00 0. -1.
         21    1    1    2  505  501  0.31017264195E+02  0.16522798865E+02 -0.85703328688E+01  0.36173528525E+02  0.00000000000E+00 0. -1.
          1    1    1    2  501    0 -0.89127266010E+02 -0.29953842541E+02 -0.98679097715E+03  0.99126047778E+03  0.00000000000E+00 0. -1.
<scales pt_clust_3="35.07557" pt_clust_4="56.21794" pt_clust_5="35.07557" pt_clust_6="107.98547"></scales>
<clustering>
<clus scale="   35.076">  3  5 -1 -1</clus>
<clus scale="   56.218">  2  4  1 -1</clus>
<clus scale="  107.985">  2  6  1 -1</clus>
<clus scale="  121.234">  1  3  2 -1</clus>
</clustering>
</event>
<event>
 6    0  0.1361744E+002  0.6767641E+02  0.7546771E-02  0.1368178E+00
          3   -1    0    0  505    0 -0.00000000000E+00  0.00000000000E+00  0.17368649440E+04  0.17368649440E+04  0.00000000000E+00 0.  1.
         21   -1    0    0  504  502  0.00000000000E+00 -0.00000000000E+00 -0.12098515386E+02  0.12098515386E+02  0.00000000000E+00 0. -1.
         21    1    1    2  503  502  0.35810849036E+02  0.25509788763E+02  0.23236370840E+03  0.23648691129E+03  0.00000000000E+00 0.  1.
         21    1    1    2  504  501  0.13383002559E+02 -0.48339514341E+02  0.17924133890E+03  0.18612702914E+03  0.00000000000E+00 0. -1.
         21    1    1    2  505  503 -0.88852575674E+02  0.66345855906E+02  0.55894889676E+03  0.56984245366E+03  0.00000000000E+00 0. -1.
          3    1    1    2  501    0  0.39658724079E+02 -0.43516130329E+02  0.75421248458E+03  0.75650706532E+03  0.00000000000E+00 0.  1.
<scales pt_clust_3="43.96779" pt_clust_4="47.18143" pt_clust_5="14000.00000" pt_clust_6="67.67641"></scales>
<clustering>
<clus scale="   43.968">  2  3  1 -1</clus>
<clus scale="   47.181">  2  4  1 -1</clus>
<clus scale="   67.676">  1  6  2 -1</clus>
<clus scale="   43.968">  2  3  1 -1</clus>
</clustering>
</event>
<event>
 6    0  0.1361744E+002  0.6384601E+02  0.7546771E-02  0.1382366E+00
          2   -1    0    0  503    0 -0.00000000000E+00  0.00000000000E+00  0.81413186926E+03  0.81413186926E+03  0.00000000000E+00 0. -1.
         21   -1    0    0  504  502  0.00000000000E+00 -0.00000000000E+00 -0.32946019996E+02  0.32946019996E+02  0.00000000000E+00 0.  1.
         21    1    1    2  503  505  0.41189807868E+02  0.28768753473E+02  0.39163547110E+03  0.39484501222E+03  0.00000000000E+00 0. -1.
         21    1    1    2  504  501 -0.50677202511E+02  0.70246672178E+01  0.22725668700E+02  0.55981968720E+02  0.00000000000E+00 0.  1.
         21    1    1    2  505  502  0.76574912570E+02 -0.30140685569E+02  0.19079906597E+03  0.20778946493E+03  0.00000000000E+00 0.  1.
          2    1    1    2  501    0 -0.67087517927E+02 -0.56527351216E+01  0.17602564349E+03  0.18846144339E+03  0.00000000000E+00 0. -1.
<scales pt_clust_3="50.24183" pt_clust_4="47.82300" pt_clust_5="63.84601" pt_clust_6="14000.00000"></scales>
<clustering>
<clus scale="   50.242">  1  3  2 -1</clus>
<clus scale="   47.823">  2  4  1 -1</clus>
<clus scale="   63.846">  2  5  1 -1</clus>
<clus scale="   47.823">  2  3  1 -1</clus>
</clustering>
</event>
<event>
 6    0  0.1361744E+002  0.1433786E+03  0.7546771E-02  0.1208854E+00
          2   -1    0    0  502    0 -0.00000000000E+00  0.00000000000E+00  0.72284913270E+03  0.72284913270E+03  0.00000000000E+00 0. -1.
         21   -1    0    0  505  502  0.00000000000E+00 -0.00000000000E+00 -0.19272072419E+03  0.19272072419E+03  0.00000000000E+00 0.  1.
         21    1    1    2  503  501  0.48178843566E+02  0.40585970137E+02  0.37718873732E+02  0.73424351376E+02  0.00000000000E+00 0.  1.
         21    1    1    2  504  503  0.30627321254E+02  0.75590122796E+01 -0.79878220768E+01  0.32541923350E+02  0.00000000000E+00 0. -1.
         21    1    1    2  505  504  0.40975777505E+01  0.75124919510E+02 -0.13636439977E+03  0.15574271475E+03  0.00000000000E+00 0.  1.
          2    1    1    2  501    0 -0.82903742570E+02 -0.12326990193E+03  0.63676175662E+03  0.65386086742E+03  0.00000000000E+00 0. -1.
<scales pt_clust_3="30.16098" pt_clust_4="30.16098" pt_clust_5="75.23658" pt_clust_6="136.89728"></scales>
<clustering>
<clus scale="   30.161">  3  4 -1 -1</clus>
<clus scale="   75.237">  2  5  1 -1</clus>
<clus scale="  136.897">  1  6  2 -1</clus>
<clus scale="   75.237">  2  3  1 -1</clus>
</clustering>
</event>
<event>
 6    0  0.1361744E+002  0.1028716E+03  0.7546771E-02  0.1274371E+00
          1   -1    0    0  504    0 -0.00000000000E+00  0.00000000000E+00  0.13903001362E+04  0.13903001362E+04  0.00000000000E+00 0.  1.
         21   -1    0    0  503  502  0.00000000000E+00 -0.00000000000E+00 -0.51288855643E+02  0.51288855643E+02  0.00000000000E+00 0. -1.
         21    1    1    2  503  501 -0.69582854029E+01 -0.47818879591E+02  0.10118741981E+03  0.11213365645E+03  0.00000000000E+00 0. -1.
         21    1    1    2  504  505 -0.63546034688E+02  0.50351946100E+02  0.92313564379E+03  0.92668917865E+03  0.00000000000E+00 0.  1.
         21    1    1    2  505  502  0.11141390739E+03  0.17465433471E+02  0.33116861869E+02  0.11753649078E+03  0.00000000000E+00 0. -1.
          1    1    1    2  501    0 -0.40909587296E+02 -0.19998499980E+02  0.28157135508E+03  0.28522966594E+03  0.00000000000E+00 0.  1.
<scales pt_clust_3="50.92617" pt_clust_4="14000.00000" pt_clust_5="102.87157" pt_clust_6="45.53608"></scales>
<clustering>
<clus scale="   45.536">  1  6  2 -1</clus>
<clus scale="   50.926">  2  3  1 -1</clus>
<clus scale="  102.872">  2  5  1 -1</clus>
<clus scale="   50.926">  2  3  1 -1</clus>
</clustering>
</event>
<event>
 6    0  0.1361744E+002  0.1483512E+03  0.7546771E-02  0.1202514E+00
         -1   -1    0    0    0  501 -0.00000000000E+00  0.00000000000E+00  0.15238801193E+04  0.15238801193E+04  0.00000000000E+00 0.  1.
         21   -1    0    0  505  502  0.00000000000E+00 -0.00000000000E+00 -0.14297000233E+03  0.14297000233E+03  0.00000000000E+00 0.  1.
         21    1    1    2  503  502  0.43014875475E+02 -0.72028985239E+01 -0.80042886070E+01  0.44342190918E+02  0.00000000000E+00 0. -1.
         21    1    1    2  504  503  0.97323325922E+02  0.22252294955E+02 -0.84255529259E+02  0.13063685778E+03  0.00000000000E+00 0.  1.
         21    1    1    2  505  501 -0.16787480614E+02  0.41534723499E+02  0.76851504201E+02  0.88955643213E+02  0.00000000000E+00 0. -1.
         -1    1    1    2    0  504 -0.12355072078E+03 -0.56584119930E+02  0.13963184306E+04  0.14029154297E+04  0.00000000000E+00 0.  1.
<scales pt_clust_3="30.89204" pt_clust_4="30.89204" pt_clust_5="44.79903" pt_clust_6="140.79627"></scales>
<clustering>
<clus scale="   30.892">  3  4 -1 -1</clus>
<clus scale="   44.799">  1  5  2 -1</clus>
<clus scale="  140.796">  1  6  2 -1</clus>
<clus scale="  148.351">  2  3  1 -1</clus>
</clustering>
</event>
<event>
 6    0  0.1361744E+002  0.8957575E+02  0.7546771E-02  0.1303882E+00
          2   -1    0    0  505    0 -0.00000000000E+00  0.00000000000E+00  0.29174620672E+04  0.29174620672E+04  0.00000000000E+00 0.  1.
         21   -1    0    0  503  502  0.00000000000E+00 -0.00000000000E+00 -0.21554695377E+03  0.21554695377E+03  0.00000000000E+00 0.  1.
         21    1    1    2  503  501  0.11455875189E+03 -0.31978480949E+02  0.11288131905E+04  0.11350619146E+04  0.00000000000E+00 0. -1.
         21    1    1    2  504  502 -0.39009521046E+02 -0.29526704454E+01 -0.64696210989E+02  0.75604634192E+02  0.00000000000E+00 0.  1.
         21    1    1    2  505  504 -0.19757784623E+02  0.71113688944E+02 -0.13203320834E+03  0.15126233805E+03  0.00000000000E+00 0.  1.
          2    1    1    2  501    0 -0.55791446217E+02 -0.36182537550E+02  0.17698313423E+04  0.17710801342E+04  0.00000000000E+00 0.  1.
<scales pt_clust_3="89.57575" pt_clust_4="39.12111" pt_clust_5="14000.00000" pt_clust_6="66.64458"></scales>
<clustering>
<clus scale="   39.121">  2  4  1 -1</clus>
<clus scale="   66.645">  1  6  2 -1</clus>
<clus scale="   89.576">  1  3  2 -1</clus>
<clus scale="   39.121">  2  3  1 -1</clus>
</clustering>
</event>
<event>
 6    0  0.1361744E+002  0.5860824E+02  0.7546771E-02  0.1403767E+00
         21   -1    0    0  504  502  0.00000000000E+00  0.00000000000E+00  0.36035570613E+03  0.36035570613E+03  0.00000000000E+00 0.  1.
          2   -1    0    0  505    0 -0.00000000000E+00 -0.00000000000E+00 -0.75961082056E+03  0.75961082056E+03  0.00000000000E+00 0. -1.
         21    1    1    2  503  502  0.93477532702E+01  0.63949433964E+02  0.28572606938E+03  0.29294418806E+03  0.00000000000E+00 0.  1.
         21    1    1    2  504  501  0.38494097598E+02 -0.39999832069E+02  0.48978465854E+02  0.74031562410E+02  0.00000000000E+00 0.  1.
         21    1    1    2  505  503 -0.38922663689E+01  0.55088927678E+02 -0.11630956591E+03  0.12875501859E+03  0.00000000000E+00 0. -1.
          2    1    1    2  501    0 -0.43949584499E+02 -0.79038529573E+02 -0.61765008376E+03  0.62423575763E+03  0.00000000000E+00 0. -1.
<scales pt_clust_3="58.60824" pt_clust_4="14000.00000" pt_clust_5="55.22626" pt_clust_6="54.05351"></scales>
<clustering>
<clus scale="   55.226">  2  5  1 -1</clus>
<clus scale="   54.054">  2  6  1 -1</clus>
<clus scale="   58.608">  1  3  2 -1</clus>
<clus scale="   58.608">  1  3  2 -1</clus>
</clustering>
</event>
<event>
 6    0  0.1361744E+002  0.1329476E+03  0.7546771E-02  0.1223146E+00
          1   -1    0    0  505    0 -0.00000000000E+00  0.00000000000E+00  0.36033698446E+04  0.36033698446E+04  0.00000000000E+00 0. -1.
         21   -1    0    0  503  502  0.00000000000E+00 -0.00000000000E+00 -0.26234480094E+02  0.26234480094E+02  0.00000000000E+00 0.  1.
         21    1    1    2  503  504 -0.18699825653E+02  0.12601511533E+03  0.22134255014E+03  0.25538601621E+03  0.00000000000E+00 0.  1.
         21    1    1    2  504  501 -0.22291217895E+02 -0.55808175141E+02  0.12441446377E+04  0.12455951712E+04  0.00000000000E+00 0.  1.
         21    1    1    2  505  502  0.36245336686E+02  0.97516046313E+00  0.33858826195E+02  0.49609429353E+02  0.00000000000E+00 0.  1.
          1    1    1    2  501    0  0.47457068616E+01 -0.71182100647E+02  0.20777893504E+04  0.20790137080E+04  0.00000000000E+00 0. -1.
<scales pt_clust_3="127.79145" pt_clust_4="33.65256" pt_clust_5="36.25845" pt_clust_6="33.65256"></scales>
<clustering>
<clus scale="   33.653">  4  6 -1 -1</clus>
<clus scale="   36.258">  2  5  1 -1</clus>
<clus scale="  127.791">  2  3  1 -1</clus>
<clus scale="   36.258">  2  3  1 -1</clus>
</clustering>
</event>
<event>
 6    0  0.1361744E+002  0.1081886E+03  0.7546771E-02  0.1263962E+00
          2   -1    0    0  504    0 -0.00000000000E+00  0.00000000000E+00  0.14806220436E+04  0.14806220436E+04  0.00000000000E+00 0. -1.
         21   -1    0    0  503  502  0.00000000000E+00 -0.00000000000E+00 -0.41758798179E+02  0.41758798179E+02  0.00000000000E+00 0. -1.
         21    1    1    2  503  505 -0.33397309449E+02 -0.20289448436E+02  0.26625874922E+02  0.47286141856E+02  0.00000000000E+00 0. -1.
         21    1    1    2  504  502  0.12603329784E+03 -0.92942067870E+00  0.13119236354E+03  0.18192496321E+03  0.00000000000E+00 0. -1.
         21    1    1    2  505  501  0.12654284423E+02  0.38117516264E+02  0.10696113192E+03  0.11425305117E+03  0.00000000000E+00 0. -1.
          2    1    1    2  501    0 -0.10529027281E+03 -0.16898647149E+02  0.11740838750E+04  0.11789166855E+04  0.00000000000E+00 0. -1.
<scales pt_clust_3="39.07738" pt_clust_4="108.18860" pt_clust_5="36.82575" pt_clust_6="14000.00000"></scales>
<clustering>
<clus scale="   39.077">  2  3  1 -1</clus>
<clus scale="   36.826">  2  5  1 -1</clus>
<clus scale="  108.189">  2  4  1 -1</clus>
<clus scale="   39.077">  2  3  1 -1</clus>
</clustering>
</event>
<event>
 6    0  0.1361744E+002  0.1213281E+03  0.7546771E-02  0.1240922E+00
          2   -1    0    0  504    0 -0.00000000000E+00  0.00000000000E+00  0.11386876824E+04  0.11386876824E+04  0.00000000000E+00 0. -1.
         21   -1    0    0  503  502  0.00000000000E+00 -0.00000000000E+00 -0.90963308340E+02  0.90963308340E+02  0.00000000000E+00 0.  1.
         21    1    1    2  503  501 -0.86697866550E+02 -0.28041187314E+02 -0.39967808976E+02  0.99500020124E+02  0.00000000000E+00 0.  1.
         21    1    1    2  504  505  0.19556932060E+02  0.68625798776E+02  0.44540751549E+03  0.45108738477E+03  0.00000000000E+00 0. -1.
         21    1    1    2  505  502 -0.24631685695E+02 -0.42870808245E+02  0.25778053819E+02  0.55759610817E+02  0.00000000000E+00 0.  1.
          2    1    1    2  501    0  0.91772620185E+02  0.22861967828E+01  0.61650661372E+03  0.62330397502E+03  0.00000000000E+00 0. -1.
<scales pt_clust_3="121.32815" pt_clust_4="69.56595" pt_clust_5="49.44316" pt_clust_6="14000.00000"></scales>
<clustering>
<clus scale="   49.443">  2  5  1 -1</clus>
<clus scale="   69.566">  1  4  2 -1</clus>
<clus scale="  121.328">  2  3  1 -1</clus>
<clus scale="   49.443">  2  3  1 -1</clus>
</clustering>
</event>
<event>
 6    0  0.1361744E+002  0.1466724E+03  0.7546771E-02  0.1204623E+00
          1   -1    0    0  503    0 -0.00000000000E+00  0.00000000000E+00  0.51150376554E+02  0.51150376554E+02  0.00000000000E+00 0.  1.
         21   -1    0    0  504  502  0.00000000000E+00 -0.00000000000E+00 -0.17643919785E+04  0.17643919785E+04  0.00000000000E+00 0. -1.
         21    1    1    2  503  502 -0.36170792721E+02  0.60038148102E+01 -0.72537600565E+02  0.81277767772E+02  0.00000000000E+00 0. -1.
         21    1    1    2  504  505  0.89751694188E+02  0.14313108655E+02 -0.86173434355E+03  0.86651388364E+03  0.00000000000E+00 0. -1.
         21    1    1    2  505  501  0.49325643407E+02 -0.26648623089E+02 -0.76103987280E+03  0.76310212698E+03  0.00000000000E+00 0. -1.
          1    1    1    2  501    0 -0.10290654487E+03  0.63316996234E+01 -0.17929784986E+02  0.10464857662E+03  0.00000000000E+00 0.  1.
<scales pt_clust_3="36.66568" pt_clust_4="41.36717" pt_clust_5="41.36717" pt_clust_6="136.94997"></scales>
<clustering>
<clus scale="   36.666">  1  3  2 -1</clus>
<clus scale="   41.367">  4  5 -1 -1</clus>
<clus scale="  136.950">  1  6  2 -1</clus>
<clus scale="  146.672">  2  3  1 -1</clus>
</clustering>
</event>
<event>
 6    0  0.1361744E+002  0.1435061E+03  0.7546771E-02  0.1208688E+00
         21   -1    0    0  501  502  0.00000000000E+00  0.00000000000E+00  0.98793535022E+02  0.98793535022E+02  0.00000000000E+00 0.  1.
          1   -1    0    0  503    0 -0.00000000000E+00 -0.00000000000E+00 -0.62601826159E+03  0.62601826159E+03  0.00000000000E+00 0. -1.
         21    1    1    2  503  504  0.44270090776E+02  0.17438126225E+02 -0.72192788061E+02  0.86462291385E+02  0.00000000000E+00 0. -1.
         21    1    1    2  504  505 -0.68378893117E+02  0.68486148702E+02 -0.36234047636E+01  0.96846035799E+02  0.00000000000E+00 0.  1.
         21    1    1    2  505  502 -0.13162826799E+02  0.41592290818E+02  0.22668546066E+02  0.49163417757E+02  0.00000000000E+00 0.  1.
          1    1    1    2  501    0  0.37271629140E+02 -0.12751656575E+03 -0.47407707981E+03  0.49234005167E+03  0.00000000000E+00 0. -1.
<scales pt_clust_3="47.58076" pt_clust_4="31.41783" pt_clust_5="31.41783" pt_clust_6="135.66239"></scales>
<clustering>
<clus scale="   31.418">  4  5 -1 -1</clus>
<clus scale="   47.581">  2  3  1 -1</clus>
<clus scale="  135.662">  2  6  1 -1</clus>
<clus scale="  143.506">  1  3  2 -1</clus>
</clustering>
</event>
<event>
 6    0  0.1361744E+002  0.6122730E+02  0.7546771E-02  0.1392752E+00
          1   -1    0    0  505    0 -0.00000000000E+00  0.00000000000E+00  0.12316342699E+04  0.12316342699E+04  0.00000000000E+00 0.  1.
         21   -1    0    0  503  502  0.00000000000E+00 -0.00000000000E+00 -0.14212077546E+03  0.14212077546E+03  0.00000000000E+00 0.  1.
         21    1    1    2  503  501 -0.20810307292E+02 -0.47088650376E+02  0.18579063009E+02  0.54731996730E+02  0.00000000000E+00 0.  1.
         21    1    1    2  504  502 -0.10443020724E+02  0.93124977979E+02 -0.98992614338E+02  0.13631161322E+03  0.00000000000E+00 0.  1.
         21    1    1    2  505  504  0.62739316092E+02 -0.84591206311E+02  0.50182001067E+03  0.51275258856E+03  0.00000000000E+00 0.  1.
          1    1    1    2  501    0 -0.31485988076E+02  0.38554878708E+02  0.66810703512E+03  0.66995884687E+03  0.00000000000E+00 0.  1.
<scales pt_clust_3="50.09728" pt_clust_4="14000.00000" pt_clust_5="61.22730" pt_clust_6="49.77797"></scales>
<clustering>
<clus scale="   49.778">  1  6  2 -1</clus>
<clus scale="   50.097">  2  3  1 -1</clus>
<clus scale="   61.227">  1  5  2 -1</clus>
<clus scale="   50.097">  2  3  1 -1</clus>
</clustering>
</event>
<event>
 6    0  0.1361744E+002  0.6662904E+02  0.7546771E-02  0.1371946E+00
          2   -1    0    0  505    0 -0.00000000000E+00  0.00000000000E+00  0.20400258208E+03  0.20400258208E+03  0.00000000000E+00 0.  1.
         21   -1    0    0  504  502  0.00000000000E+00 -0.00000000000E+00 -0.80988391438E+03  0.80988391438E+03  0.00000000000E+00 0. -1.
         21    1    1    2  503  502 -0.10029784292E+03  0.27951870680E+02 -0.62014754608E+03  0.62882743521E+03  0.00000000000E+00 0. -1.
         21    1    1    2  504  501  0.35522873726E+02 -0.19047318968E+02 -0.15658246335E+03  0.16168717557E+03  0.00000000000E+00 0. -1.
         21    1    1    2  505  503  0.15822593049E+02  0.41260364970E+02  0.64546075450E+01  0.44659087841E+02  0.00000000000E+00 0. -1.
          2    1    1    2  501    0  0.48952376148E+02 -0.50164916683E+02  0.16439406958E+03  0.17871279784E+03  0.00000000000E+00 0.  1.
<scales pt_clust_3="14000.00000" pt_clust_4="40.30726" pt_clust_5="44.05713" pt_clust_6="66.62904"></scales>
<clustering>
<clus scale="   40.307">  2  4  1 -1</clus>
<clus scale="   44.057">  1  5  2 -1</clus>
<clus scale="   66.629">  1  6  2 -1</clus>
<clus scale="   40.307">  2  3  1 -1</clus>
</clustering>
</event>
<event>
 6    0  0.1361744E+002  0.3276227E+03  0.7546771E-02  0.1072194E+00
         21   -1    0    0  503  502  0.00000000000E+00  0.00000000000E+00  0.29361292695E+03  0.29361292695E+03  0.00000000000E+00 0.  1.
          2   -1    0    0  502    0 -0.00000000000E+00 -0.00000000000E+00 -0.16104650928E+04  0.16104650928E+04  0.00000000000E+00 0.  1.
         21    1    1    2  503  505  0.18652084209E+03  0.20428135858E+02  0.15750301891E+03  0.24497864036E+03  0.00000000000E+00 0.  1.
         21    1    1    2  504  501 -0.21157456685E+03 -0.33091882348E+02 -0.62329919207E+03  0.65906050773E+03  0.00000000000E+00 0.  1.
         21    1    1    2  505  504  0.12174660547E+03 -0.54723783031E+02  0.72519020224E+01  0.13367691818E+03  0.00000000000E+00 0.  1.
          2    1    1    2  501    0 -0.96692880705E+02  0.67387529521E+02 -0.85830789469E+03  0.86636195346E+03  0.00000000000E+00 0.  1.
<scales pt_clust_3="116.52364" pt_clust_4="295.47556" pt_clust_5="116.52364" pt_clust_6="117.85836"></scales>
<clustering>
<clus scale="  117.858">  2  6  1 -1</clus>
<clus scale="  116.524">  3  5 -1 -1</clus>
<clus scale="  295.476">  2  4  1 -1</clus>
<clus scale="  327.623">  1  3  2 -1</clus>
</clustering>
</event>
<event>
 6    0  0.1361744E+002  0.1024500E+03  0.7546771E-02  0.1275227E+00
          2   -1    0    0  505    0 -0.00000000000E+00  0.00000000000E+00  0.26978232206E+04  0.26978232206E+04  0.00000000000E+00 0. -1.
         21   -1    0    0  504  502  0.00000000000E+00 -0.00000000000E+00 -0.40539122418E+02  0.40539122418E+02  0.00000000000E+00 0. -1.
         21    1    1    2  503  502  0.59199542706E+02  0.89576192749E+02  0.48011347827E+02  0.11761619652E+03  0.00000000000E+00 0. -1.
         21    1    1    2  504  501  0.34803548275E+02 -0.51966171083E+02  0.24872868760E+03  0.25647169424E+03  0.00000000000E+00 0. -1.
         21    1    1    2  505  503 -0.76992889463E+02  0.10561673484E+02  0.11291827164E+04  0.11318538161E+04  0.00000000000E+00 0. -1.
          2    1    1    2  501    0 -0.17010201518E+02 -0.48171695150E+02  0.12313613463E+04  0.12324206362E+04  0.00000000000E+00 0. -1.
<scales pt_clust_3="102.44999" pt_clust_4="68.17582" pt_clust_5="14000.00000" pt_clust_6="51.08678"></scales>
<clustering>
<clus scale="   51.087">  1  6  2 -1</clus>
<clus scale="   68.176">  1  4  2 -1</clus>
<clus scale="  102.450">  2  3  1 -1</clus>
<clus scale="  102.450">  2  3  1 -1</clus>
</clustering>
</event>
<event>
 6    0  0.1361744E+002  0.1069010E+03  0.7546771E-02  0.1266419E+00
          1   -1    0    0  504    0 -0.00000000000E+00  0.00000000000E+00  0.36722039212E+04  0.36722039212E+04  0.00000000000E+00 0.  1.
         21   -1    0    0  503  502  0.00000000000E+00 -0.00000000000E+00 -0.25785228893E+02  0.25785228893E+02  0.00000000000E+00 0. -1.
         21    1    1    2  503  505  0.35428455004E+02 -0.57934607945E+01  0.11898506126E+03  0.12428267947E+03  0.00000000000E+00 0. -1.
         21    1    1    2  504  502 -0.78107785877E+02 -0.84745414031E+02  0.12659352297E+03  0.17119734657E+03  0.00000000000E+00 0. -1.
         21    1    1    2  505  501  0.13468626966E+02  0.41212066251E+02  0.93750032405E+03  0.93850236863E+03  0.00000000000E+00 0. -1.
          1    1    1    2  501    0  0.29210703906E+02  0.49326808575E+02  0.24633397840E+04  0.24640067555E+04  0.00000000000E+00 0.  1.
<scales pt_clust_3="35.89902" pt_clust_4="100.45759" pt_clust_5="31.78829" pt_clust_6="31.78829"></scales>
<clustering>
<clus scale="   31.788">  5  6 -1 -1</clus>
<clus scale="   35.899">  2  3  1 -1</clus>
<clus scale="  100.458">  2  4  1 -1</clus>
<clus scale="   35.899">  2  3  1 -1</clus>
</clustering>
</event>
<event>
 6    0  0.1361744E+002  0.2259259E+03  0.7546771E-02  0.1129541E+00
         21   -1    0    0  505  502  0.00000000000E+00  0.00000000000E+00  0.36819224399E+03  0.36819224399E+03  0.00000000000E+00 0.  1.
          2   -1    0    0  503    0 -0.00000000000E+00 -0.00000000000E+00 -0.18626386940E+04  0.18626386940E+04  0.00000000000E+00 0. -1.
         21    1    1    2  503  504 -0.13555717843E+03  0.85976223634E+02  0.15848600309E+03  0.22557808587E+03  0.00000000000E+00 0.  1.
         21    1    1    2  504  502 -0.17378174705E+02  0.50626234507E+02  0.16483836433E+03  0.17331100060E+03  0.00000000000E+00 0.  1.
         21    1    1    2  505  501  0.12139475224E+02 -0.69740243312E+02 -0.50034280539E+03  0.50532562898E+03  0.00000000000E+00 0. -1.
          2    1    1    2  501    0  0.14079587791E+03 -0.66862214829E+02 -0.13174280120E+04  0.13266162225E+04  0.00000000000E+00 0. -1.
<scales pt_clust_3="203.40047" pt_clust_4="53.52585" pt_clust_5="66.14579" pt_clust_6="66.14579"></scales>
<clustering>
<clus scale="   53.526">  1  4  2 -1</clus>
<clus scale="   66.146">  5  6 -1 -1</clus>
<clus scale="  203.400">  1  3  2 -1</clus>
<clus scale="   53.526">  1  3  2 -1</clus>
</clustering>
</event>
<event>
 6    0  0.1361744E+002  0.1659608E+03  0.7546771E-02  0.1182127E+00
         21   -1    0    0  504  502  0.00000000000E+00  0.00000000000E+00  0.27441156059E+03  0.27441156059E+03  0.00000000000E+00 0. -1.
          2   -1    0    0  503    0 -0.00000000000E+00 -0.00000000000E+00 -0.16528207803E+03  0.16528207803E+03  0.00000000000E+00 0. -1.
         21    1    1    2  503  505 -0.31334501563E+02  0.56647851276E+02  0.67915427146E+02  0.93826090651E+02  0.00000000000E+00 0. -1.
         21    1    1    2  504  501  0.45150502243E+02 -0.70784297496E+02 -0.28429292387E+02  0.88640900777E+02  0.00000000000E+00 0.  1.
         21    1    1    2  505  502 -0.81941349752E+02  0.55962353635E+02  0.12529087077E+03  0.15982481698E+03  0.00000000000E+00 0. -1.
          2    1    1    2  501    0  0.68125349072E+02 -0.41825907415E+02 -0.55647522969E+02  0.97401830219E+02  0.00000000000E+00 0. -1.
<scales pt_clust_3="31.25797" pt_clust_4="43.96976" pt_clust_5="164.34753" pt_clust_6="43.96976"></scales>
<clustering>
<clus scale="   31.258">  3  5 -1 -1</clus>
<clus scale="   43.970">  4  6 -1 -1</clus>
<clus scale="  164.348">  1  3  2 -1</clus>
<clus scale="  164.348">  1  3  2 -1</clus>
</clustering>
</event>
<event>
 6    0  0.1361744E+002  0.1670683E+03  0.7546771E-02  0.1180940E+00
         21   -1    0    0  501  502  0.00000000000E+00  0.00000000000E+00  0.50189182818E+02  0.50189182818E+02  0.00000000000E+00 0.  1.
          2   -1    0    0  503    0 -0.00000000000E+00 -0.00000000000E+00 -0.30935655842E+04  0.30935655842E+04  0.00000000000E+00 0.  1.
         21    1    1    2  503  505  0.23143997412E+02 -0.21787155242E+02 -0.15865622636E+03  0.16180890863E+03  0.00000000000E+00 0.  1.
         21    1    1    2  504  502 -0.30675539201E+02 -0.10527737817E+03 -0.86526898644E+02  0.13968256601E+03  0.00000000000E+00 0.  1.
         21    1    1    2  505  504 -0.44608570067E+02 -0.30661683521E+02 -0.17901897362E+02  0.57013518475E+02  0.00000000000E+00 0. -1.
          2    1    1    2  501    0  0.52140111856E+02  0.15772621693E+03 -0.27802913790E+04  0.27852497739E+04  0.00000000000E+00 0.  1.
<scales pt_clust_3="31.78561" pt_clust_4="42.22960" pt_clust_5="42.22960" pt_clust_6="155.80424"></scales>
<clustering>
<clus scale="   31.786">  2  3  1 -1</clus>
<clus scale="   42.230">  4  5 -1 -1</clus>
<clus scale="  155.804">  2  6  1 -1</clus>
<clus scale="  167.068">  1  3  2 -1</clus>
</clustering>
</event>
<event>
 6    0  0.1361744E+002  0.1084026E+03  0.7546771E-02  0.1263557E+00
          2   -1    0    0  505    0 -0.00000000000E+00  0.00000000000E+00  0.22502351429E+04  0.22502351429E+04  0.00000000000E+00 0.  1.
         21   -1    0    0  503  502  0.00000000000E+00 -0.00000000000E+00 -0.18612706863E+02  0.18612706863E+02  0.00000000000E+00 0.  1.
         21    1    1    2  503  504 -0.47172177085E+02  0.40494410459E+02  0.32062331144E+03  0.32659503886E+03  0.00000000000E+00 0.  1.
         21    1    1    2  504  501 -0.64260466449E+02 -0.99577864773E+02  0.59425069313E+03  0.60595300559E+03  0.00000000000E+00 0.  1.
         21    1    1    2  505  502  0.99924105901E+02 -0.47361121034E+02  0.47127760705E+03  0.48407694185E+03  0.00000000000E+00 0.  1.
          2    1    1    2  501    0  0.11508537634E+02  0.10644457535E+03  0.84547082438E+03  0.85222286342E+03  0.00000000000E+00 0.  1.
<scales pt_clust_3="62.16922" pt_clust_4="14000.00000" pt_clust_5="86.28165" pt_clust_6="108.40256"></scales>
<clustering>
<clus scale="   62.169">  2  3  1 -1</clus>
<clus scale="   86.282">  2  5  1 -1</clus>
<clus scale="  108.403">  1  6  2 -1</clus>
<clus scale="   62.169">  2  3  1 -1</clus>
</clustering>
</event>
<event>
 6    0  0.1361744E+002  0.7541716E+02  0.7546771E-02  0.1342584E+00
          2   -1    0    0  503    0 -0.00000000000E+00  0.00000000000E+00  0.65149061823E+03  0.65149061823E+03  0.00000000000E+00 0.  1.
         21   -1    0    0  501  502  0.00000000000E+00 -0.00000000000E+00 -0.74497144006E+02  0.74497144006E+02  0.00000000000E+00 0.  1.
         21    1    1    2  503  505 -0.40141938063E+02  0.11133284911E+02  0.14668767414E+03  0.15248802894E+03  0.00000000000E+00 0.  1.
         21    1    1    2  504  502 -0.10280874996E+01  0.59675259277E+02 -0.16446267317E+02  0.61908587792E+02  0.00000000000E+00 0.  1.
         21    1    1    2  505  504 -0.61281345421E+02 -0.13956844676E+02  0.15538772129E+02  0.64742955209E+02  0.00000000000E+00 0.  1.
          2    1    1    2  501    0  0.10245137098E+03 -0.56851699512E+02  0.43121329527E+03  0.44684819030E+03  0.00000000000E+00 0.  1.
<scales pt_clust_3="41.65723" pt_clust_4="60.24675" pt_clust_5="75.41716" pt_clust_6="14000.00000"></scales>
<clustering>
<clus scale="   41.657">  1  3  2 -1</clus>
<clus scale="   60.247">  2  4  1 -1</clus>
<clus scale="   75.417">  2  5  1 -1</clus>
<clus scale="   60.247">  2  3  1 -1</clus>
</clustering>
</event>
<event>
 6    0  0.1361744E+002  0.1941001E+03  0.7546771E-02  0.1154814E+00
          2   -1    0    0  503    0 -0.00000000000E+00  0.00000000000E+00  0.38039804270E+04  0.38039804270E+04  0.00000000000E+00 0. -1.
         21   -1    0    0  505  502  0.00000000000E+00 -0.00000000000E+00 -0.51500814051E+02  0.51500814051E+02  0.00000000000E+00 0. -1.
         21    1    1    2  503  504  0.11935458256E+03 -0.82937119489E+02  0.24932473729E+03  0.28859471027E+03  0.00000000000E+00 0. -1.
         21    1    1    2  504  502  0.18179739108E+02 -0.46329250207E+02 -0.77096510353E+01  0.50362099418E+02  0.00000000000E+00 0. -1.
         21    1    1    2  505  501 -0.67924189609E+02  0.55232277258E+02  0.10823896560E+04  0.10859243378E+04  0.00000000000E+00 0.  1.
          2    1    1    2  501    0 -0.69610132057E+02  0.74034092437E+02  0.24284748707E+04  0.24306000935E+04  0.00000000000E+00 0. -1.
<scales pt_clust_3="183.10106" pt_clust_4="49.76849" pt_clust_5="59.25679" pt_clust_6="59.25679"></scales>
<clustering>
<clus scale="   49.768">  2  4  1 -1</clus>
<clus scale="   59.257">  5  6 -1 -1</clus>
<clus scale="  183.101">  2  3  1 -1</clus>
<clus scale="   49.768">  2  3  1 -1</clus>
</clustering>
</event>
<event>
 6    0  0.1361744E+002  0.8989178E+02  0.7546771E-02  0.1303114E+00
          1   -1    0    0  505    0 -0.00000000000E+00  0.00000000000E+00  0.18322195154E+04  0.18322195154E+04  0.00000000000E+00 0. -1.
         21   -1    0    0  503  502  0.00000000000E+00 -0.00000000000E+00 -0.59417121250E+02  0.59417121250E+02  0.00000000000E+00 0. -1.
         21    1    1    2  503  501 -0.51591895605E+02 -0.25317804135E+02  0.41272053358E+02  0.70753779311E+02  0.00000000000E+00 0. -1.
         21    1    1    2  504  502  0.13933377370E+03  0.72773445204E+01  0.72855811186E+02  0.15740022064E+03  0.00000000000E+00 0. -1.
         21    1    1    2  505  504 -0.25219659271E+02  0.19946660123E+02  0.14527037771E+03  0.14878636734E+03  0.00000000000E+00 0. -1.
          1    1    1    2  501    0 -0.62522218819E+02 -0.19062005088E+01  0.15134041519E+04  0.15146962694E+04  0.00000000000E+00 0. -1.
<scales pt_clust_3="57.93773" pt_clust_4="14000.00000" pt_clust_5="32.15432" pt_clust_6="89.89178"></scales>
<clustering>
<clus scale="   32.154">  1  5  2 -1</clus>
<clus scale="   57.938">  2  3  1 -1</clus>
<clus scale="   89.892">  1  6  2 -1</clus>
<clus scale="   57.938">  2  3  1 -1</clus>
</clustering>
</event>
<event>
 6    0  0.1361744E+002  0.2233722E+03  0.7546771E-02  0.1131394E+00
          2   -1    0    0  503    0 -0.00000000000E+00  0.00000000000E+00  0.41087300316E+03  0.41087300316E+03  0.00000000000E+00 0.  1.
         21   -1    0    0  504  502  0.00000000000E+00 -0.00000000000E+00 -0.14924498653E+03  0.14924498653E+03  0.00000000000E+00 0.  1.
         21    1    1    2  503  505 -0.28264533026E+02 -0.22692112812E+02 -0.13778498360E+00  0.36246859115E+02  0.00000000000E+00 0.  1.
         21    1    1    2  504  501 -0.16431576175E+02  0.75335075633E+02  0.49525035109E+02  0.91641144792E+02  0.00000000000E+00 0. -1.
         21    1    1    2  505  502  0.48542115916E+01 -0.18441477441E+03  0.63895158950E+01  0.18458926920E+03  0.00000000000E+00 0.  1.
          2    1    1    2  501    0  0.39841897609E+02  0.13177181159E+03  0.20585125061E+03  0.24764071659E+03  0.00000000000E+00 0.  1.
<scales pt_clust_3="32.23404" pt_clust_4="60.12351" pt_clust_5="220.74762" pt_clust_6="60.12351"></scales>
<clustering>
<clus scale="   32.234">  3  5 -1 -1</clus>
<clus scale="   60.124">  4  6 -1 -1</clus>
<clus scale="  220.748">  2  3  1 -1</clus>
<clus scale="  220.748">  2  3  1 -1</clus>
</clustering>
</event>
<event>
 6    0  0.1361744E+002  0.7900279E+02  0.7546771E-02  0.1331905E+00
         -1   -1    0    0    0  501 -0.00000000000E+00  0.00000000000E+00  0.28121448517E+03  0.28121448517E+03  0.00000000000E+00 0. -1.
         21   -1    0    0  503  502  0.00000000000E+00 -0.00000000000E+00 -0.24820698420E+03  0.24820698420E+03  0.00000000000E+00 0. -1.
         21    1    1    2  503  504 -0.41487987058E+02 -0.53938822142E+02  0.55788171750E+02  0.87994145893E+02  0.00000000000E+00 0. -1.
         21    1    1    2  504  501  0.19430353735E+02  0.26181778501E+02  0.63132340203E+01  0.33209653650E+02  0.00000000000E+00 0. -1.
         21    1    1    2  505  502 -0.73761548089E+02 -0.24815291262E+02 -0.19476808192E+03  0.20974072183E+03  0.00000000000E+00 0. -1.
         -1    1    1    2    0  505  0.95819181412E+02  0.52572334902E+02  0.16567417712E+03  0.19847694800E+03  0.00000000000E+00 0. -1.
<scales pt_clust_3="59.08534" pt_clust_4="32.60405" pt_clust_5="14000.00000" pt_clust_6="79.00279"></scales>
<clustering>
<clus scale="   32.604">  1  4  2 -1</clus>
<clus scale="   59.085">  1  3  2 -1</clus>
<clus scale="   79.003">  1  6  2 -1</clus>
<clus scale="   79.003">  2  3  1 -1</clus>
</clustering>
</event>
<event>
 6    0  0.1361744E+002  0.1346737E+03  0.7546771E-02  0.1220681E+00
         21   -1    0    0  501  502  0.00000000000E+00  0.00000000000E+00  0.11017979951E+02  0.11017979951E+02  0.00000000000E+00 0. -1.
         -1   -1    0    0    0  501 -0.00000000000E+00 -0.00000000000E+00 -0.23970516846E+04  0.23970516846E+04  0.00000000000E+00 0. -1.
         21    1    1    2  503  502  0.14408407993E+02  0.32124829623E+02 -0.14131068051E+03  0.14563074993E+03  0.00000000000E+00 0. -1.
         21    1    1    2  504  505 -0.29744091859E+02  0.29935460018E+02 -0.45540404320E+03  0.45735509764E+03  0.00000000000E+00 0. -1.
         21    1    1    2  505  503  0.10873690119E+03 -0.47028202333E+02 -0.57457301637E+03  0.58665962588E+03  0.00000000000E+00 0. -1.
         -1    1    1    2    0  504 -0.93401217326E+02 -0.15032087308E+02 -0.12147459646E+04  0.12184241911E+04  0.00000000000E+00 0. -1.
<scales pt_clust_3="35.20805" pt_clust_4="40.75827" pt_clust_5="121.19695" pt_clust_6="40.75827"></scales>
<clustering>
<clus scale="   35.208">  1  3  2 -1</clus>
<clus scale="   40.758">  4  6 -1 -1</clus>
<clus scale="  121.197">  1  5  2 -1</clus>
<clus scale="   35.208">  1  3  2 -1</clus>
</clustering>
</event>
<event>
 6    0  0.1361744E+002  0.1660466E+03  0.7546771E-02  0.1182034E+00
          2   -1    0    0  505    0 -0.00000000000E+00  0.00000000000E+00  0.28686056767E+03  0.28686056767E+03  0.00000000000E+00 0.  1.
         21   -1    0    0  504  502  0.00000000000E+00 -0.00000000000E+00 -0.29879706487E+03  0.29879706487E+03  0.00000000000E+00 0. -1.
         21    1    1    2  503  501 -0.46191907359E+02 -0.73005138662E+02  0.16676279396E+03  0.18781179949E+03  0.00000000000E+00 0.  1.
         21    1    1    2  504  503  0.66557922756E+02  0.11124021052E+03 -0.23405660282E+03  0.26755716182E+03  0.00000000000E+00 0. -1.
         21    1    1    2  505  502  0.16188168530E+02  0.26616658083E+02 -0.84089012463E+01  0.32267830854E+02  0.00000000000E+00 0.  1.
          2    1    1    2  501    0 -0.36554183927E+02 -0.64851729942E+02  0.63766212905E+02  0.98020840372E+02  0.00000000000E+00 0.  1.
<scales pt_clust_3="47.98488" pt_clust_4="157.69028" pt_clust_5="31.15290" pt_clust_6="47.98488"></scales>
<clustering>
<clus scale="   31.153">  2  5  1 -1</clus>
<clus scale="   47.985">  3  6 -1 -1</clus>
<clus scale="  157.690">  2  4  1 -1</clus>
<clus scale="   31.153">  2  3  1 -1</clus>
</clustering>
</event>
<event>
 6    0  0.1361744E+002  0.8059816E+02  0.7546771E-02  0.1327362E+00
         21   -1    0    0  505  502  0.00000000000E+00  0.00000000000E+00  0.64727344502E+02  0.64727344502E+02  0.00000000000E+00 0.  1.
          1   -1    0    0  503    0 -0.00000000000E+00 -0.00000000000E+00 -0.10396577451E+04  0.10396577451E+04  0.00000000000E+00 0.  1.
         21    1    1    2  503  504 -0.48320121910E+02  0.66065510414E+02 -0.47997058550E+03  0.48689962908E+03  0.00000000000E+00 0.  1.
         21    1    1    2  504  502 -0.16172704166E+02  0.36012130373E+02 -0.42665170445E+01  0.39706838979E+02  0.00000000000E+00 0.  1.
         21    1    1    2  505  501  0.82442482400E+02 -0.77013113192E+02 -0.30926806508E+02  0.11697969853E+03  0.00000000000E+00 0.  1.
          1    1    1    2  501    0 -0.17949656323E+02 -0.25064527595E+02 -0.45976649154E+03  0.46079892301E+03  0.00000000000E+00 0.  1.
<scales pt_clust_3="14000.00000" pt_clust_4="38.90146" pt_clust_5="80.59816" pt_clust_6="30.82889"></scales>
<clustering>
<clus scale="   30.829">  2  6  1 -1</clus>
<clus scale="   38.901">  1  4  2 -1</clus>
<clus scale="   80.598">  1  5  2 -1</clus>
<clus scale="   38.901">  1  3  2 -1</clus>
</clustering>
</event>
<event>
 6    0  0.1361744E+002  0.8067441E+02  0.7546771E-02  0.1327148E+00
         21   -1    0    0  504  502  0.00000000000E+00  0.00000000000E+00  0.68397632482E+03  0.68397632482E+03  0.00000000000E+00 0. -1.
          1   -1    0    0  503    0 -0.00000000000E+00 -0.00000000000E+00 -0.21964692670E+03  0.21964692670E+03  0.00000000000E+00 0.  1.
         21    1    1    2  503  502  0.70813391624E+02  0.62405011036E+02 -0.21970660762E+02  0.96910431688E+02  0.00000000000E+00 0.  1.
         21    1    1    2  504  505 -0.24913408054E+02 -0.30333388748E+02  0.26988256201E+03  0.27272218401E+03  0.00000000000E+00 0.  1.
         21    1    1    2  505  501  0.30115609265E+02 -0.56420923281E+02  0.36219112018E+03  0.36779434204E+03  0.00000000000E+00 0. -1.
          1    1    1    2  501    0 -0.76015592835E+02  0.24349300993E+02 -0.14577362331E+03  0.16619629378E+03  0.00000000000E+00 0.  1.
<scales pt_clust_3="14000.00000" pt_clust_4="39.25293" pt_clust_5="80.67441" pt_clust_6="80.18336"></scales>
<clustering>
<clus scale="   39.253">  1  4  2 -1</clus>
<clus scale="   80.183">  2  6  1 -1</clus>
<clus scale="   80.674">  1  5  2 -1</clus>
<clus scale="   39.253">  1  3  2 -1</clus>
</clustering>
</event>
<event>
 6    0  0.1361744E+002  0.9071460E+02  0.7546771E-02  0.1301130E+00
         21   -1    0    0  503  502  0.00000000000E+00  0.00000000000E+00  0.27479168437E+03  0.27479168437E+03  0.00000000000E+00 0.  1.
          1   -1    0    0  504    0 -0.00000000000E+00 -0.00000000000E+00 -0.93629310701E+03  0.93629310701E+03  0.00000000000E+00 0.  1.
         21    1    1    2  503  501 -0.20799457319E+02  0.32162479325E+02  0.14992069650E+03  0.15473609062E+03  0.00000000000E+00 0.  1.
         21    1    1    2  504  505 -0.13814823542E+02  0.32991103986E+02 -0.32718029824E+02  0.48474031886E+02  0.00000000000E+00 0.  1.
         21    1    1    2  505  502 -0.57620777421E+02  0.18524064990E+02  0.10189378545E+03  0.11851429656E+03  0.00000000000E+00 0.  1.
          1    1    1    2  501    0  0.92235058283E+02 -0.83677648301E+02 -0.88059787477E+03  0.88936037232E+03  0.00000000000E+00 0.  1.
<scales pt_clust_3="38.39663" pt_clust_4="35.76678" pt_clust_5="90.71460" pt_clust_6="14000.00000"></scales>
<clustering>
<clus scale="   35.767">  2  4  1 -1</clus>
<clus scale="   38.397">  1  3  2 -1</clus>
<clus scale="   90.715">  1  5  2 -1</clus>
<clus scale="   38.397">  1  3  2 -1</clus>
</clustering>
</event>
<event>
 6    0  0.1361744E+002  0.7972451E+02  0.7546771E-02  0.1329835E+00
          1   -1    0    0  505    0 -0.00000000000E+00  0.00000000000E+00  0.44306869567E+02  0.44306869567E+02  0.00000000000E+00 0. -1.
         21   -1    0    0  503  502  0.00000000000E+00 -0.00000000000E+00 -0.10086687975E+04  0.10086687975E+04  0.00000000000E+00 0. -1.
         21    1    1    2  503  501 -0.80464465323E+02  0.33362650297E+01 -0.79100134954E+03  0.79509043248E+03  0.00000000000E+00 0. -1.
         21    1    1    2  504  502  0.33506507935E+02 -0.50058437816E+02 -0.21131684778E+02  0.63836364026E+02  0.00000000000E+00 0. -1.
         21    1    1    2  505  504 -0.26561028772E+02  0.25150357189E+02 -0.83341560275E+02  0.91015627148E+02  0.00000000000E+00 0. -1.
          1    1    1    2  501    0  0.73518986160E+02  0.21571815598E+02 -0.68887333349E+02  0.10303324342E+03  0.00000000000E+00 0. -1.
<scales pt_clust_3="79.72451" pt_clust_4="41.63388" pt_clust_5="36.57907" pt_clust_6="14000.00000"></scales>
<clustering>
<clus scale="   36.579">  1  5  2 -1</clus>
<clus scale="   41.634">  1  4  2 -1</clus>
<clus scale="   79.725">  2  3  1 -1</clus>
<clus scale="   79.725">  2  3  1 -1</clus>
</clustering>
</event>
<event>
 6    0  0.1361744E+002  0.8230508E+02  0.7546771E-02  0.1322634E+00
          2   -1    0    0  505    0 -0.00000000000E+00  0.00000000000E+00  0.18572083511E+04  0.18572083511E+04  0.00000000000E+00 0. -1.
         21   -1    0    0  504  502  0.00000000000E+00 -0.00000000000E+00 -0.94067841484E+02  0.94067841484E+02  0.00000000000E+00 0.  1.
         21    1    1    2  503  502  0.44259479268E+02  0.25694604860E+02 -0.53237724550E+02  0.73846933174E+02  0.00000000000E+00 0.  1.
         21    1    1    2  504  501  0.29574311089E+01 -0.88414151928E+02  0.55093369569E+02  0.10421654394E+03  0.00000000000E+00 0.  1.
         21    1    1    2  505  503  0.34387814945E+02 -0.15386208513E+02  0.12042887174E+04  0.12048778246E+04  0.00000000000E+00 0.  1.
          2    1    1    2  501    0 -0.81604725322E+02  0.78105755582E+02  0.55699614717E+03  0.56833489089E+03  0.00000000000E+00 0. -1.
<scales pt_clust_3="51.52714" pt_clust_4="82.30508" pt_clust_5="37.67303" pt_clust_6="14000.00000"></scales>
<clustering>
<clus scale="   37.673">  1  5  2 -1</clus>
<clus scale="   51.527">  2  3  1 -1</clus>
<clus scale="   82.305">  2  4  1 -1</clus>
<clus scale="   51.527">  2  3  1 -1</clus>
</clustering>
</event>
<event>
 6    0  0.1361744E+002  0.1802450E+03  0.7546771E-02  0.1167566E+00
         21   -1    0    0  505  502  0.00000000000E+00  0.00000000000E+00  0.24557923275E+03  0.24557923275E+03  0.00000000000E+00 0.  1.
          2   -1    0    0  502    0 -0.00000000000E+00 -0.00000000000E+00 -0.19279780606E+04  0.19279780606E+04  0.00000000000E+00 0.  1.
         21    1    1    2  503  504 -0.31009945625E+02  0.44179138106E+02  0.31184615468E+02  0.62336932980E+02  0.00000000000E+00 0. -1.
         21    1    1    2  504  501  0.84658400606E+02 -0.66835484702E+02 -0.31845376923E+03  0.33622437440E+03  0.00000000000E+00 0. -1.
         21    1    1    2  505  503 -0.53218663114E+02  0.11806847051E+03  0.16622958541E+03  0.21072414408E+03  0.00000000000E+00 0.  1.
          2    1    1    2  501    0 -0.42979186693E+00 -0.95412123914E+02 -0.15613592595E+04  0.15642718419E+04  0.00000000000E+00 0.  1.
<scales pt_clust_3="30.08193" pt_clust_4="174.11779" pt_clust_5="30.08193" pt_clust_6="95.41309"></scales>
<clustering>
<clus scale="   30.082">  3  5 -1 -1</clus>
<clus scale="   95.413">  2  6  1 -1</clus>
<clus scale="  174.118">  2  4  1 -1</clus>
<clus scale="  180.245">  1  3  2 -1</clus>
</clustering>
</event>
<event>
 6    0  0.1361744E+002  0.6730003E+02  0.7546771E-02  0.1369523E+00
         21   -1    0    0  503  502  0.00000000000E+00  0.00000000000E+00  0.12464912801E+04  0.12464912801E+04  0.00000000000E+00 0. -1.
          1   -1    0    0  504    0 -0.00000000000E+00 -0.00000000000E+00 -0.10807952202E+04  0.10807952202E+04  0.00000000000E+00 0.  1.
         21    1    1    2  503  505 -0.29505019854E+02 -0.41729392955E+02  0.94901489033E+03  0.95038999916E+03  0.00000000000E+00 0. -1.
         21    1    1    2  504  502 -0.30324981241E+02  0.65957108268E+01 -0.99454527843E+02  0.10418402467E+03  0.00000000000E+00 0.  1.
         21    1    1    2  505  501 -0.37171625541E+01  0.99718068168E+02  0.28379147925E+03  0.30082405840E+03  0.00000000000E+00 0. -1.
          1    1    1    2  501    0  0.63547163649E+02 -0.64584386040E+02 -0.96765578191E+03  0.97188841807E+03  0.00000000000E+00 0.  1.
<scales pt_clust_3="51.11516" pt_clust_4="31.03398" pt_clust_5="67.30003" pt_clust_6="14000.00000"></scales>
<clustering>
<clus scale="   31.034">  2  4  1 -1</clus>
<clus scale="   51.115">  1  3  2 -1</clus>
<clus scale="   67.300">  1  5  2 -1</clus>
<clus scale="   51.115">  1  3  2 -1</clus>
</clustering>
</event>
<event>
 6    0  0.1361744E+002  0.2053884E+03  0.7546771E-02  0.1145271E+00
          2   -1    0    0  505    0 -0.00000000000E+00  0.00000000000E+00  0.60574799852E+03  0.60574799852E+03  0.00000000000E+00 0. -1.
         21   -1    0    0  503  502  0.00000000000E+00 -0.00000000000E+00 -0.44244258426E+03  0.44244258426E+03  0.00000000000E+00 0. -1.
         21    1    1    2  503  504 -0.99899992226E+01  0.29614456031E+02 -0.12533669309E+03  0.12917469847E+03  0.00000000000E+00 0. -1.
         21    1    1    2  504  501  0.45467322663E+02  0.17707965578E+03 -0.21725807021E+03  0.28394638754E+03  0.00000000000E+00 0. -1.
         21    1    1    2  505  502  0.12305060632E+03 -0.14743578191E+02  0.10152796196E+03  0.16020846380E+03  0.00000000000E+00 0.  1.
          2    1    1    2  501    0 -0.15852792976E+03 -0.19195053362E+03  0.40437221561E+03  0.47486103297E+03  0.00000000000E+00 0. -1.
<scales pt_clust_3="31.25406" pt_clust_4="205.38841" pt_clust_5="122.70753" pt_clust_6="14000.00000"></scales>
<clustering>
<clus scale="   31.254">  2  3  1 -1</clus>
<clus scale="  122.708">  1  5  2 -1</clus>
<clus scale="  205.388">  2  4  1 -1</clus>
<clus scale="   31.254">  2  3  1 -1</clus>
</clustering>
</event>
<event>
 6    0  0.1361744E+002  0.1316534E+03  0.7546771E-02  0.1225023E+00
          1   -1    0    0  504    0 -0.00000000000E+00  0.00000000000E+00  0.25449546684E+03  0.25449546684E+03  0.00000000000E+00 0. -1.
         21   -1    0    0  505  502  0.00000000000E+00 -0.00000000000E+00 -0.64017446402E+03  0.64017446402E+03  0.00000000000E+00 0.  1.
         21    1    1    2  503  502  0.69864810858E+02  0.75970220746E+02 -0.36988673940E+03  0.38401662233E+03  0.00000000000E+00 0.  1.
         21    1    1    2  504  503  0.61316550142E+02 -0.31751826909E+02  0.61055720763E+02  0.92172115475E+02  0.00000000000E+00 0. -1.
         21    1    1    2  505  501  0.56075737073E+02 -0.32695431344E+02 -0.18904638323E+03  0.19988000033E+03  0.00000000000E+00 0.  1.
          1    1    1    2  501    0 -0.18725709807E+03 -0.11522962493E+02  0.11219840470E+03  0.21860119272E+03  0.00000000000E+00 0. -1.
<scales pt_clust_3="131.65340" pt_clust_4="71.31304" pt_clust_5="64.91132" pt_clust_6="14000.00000"></scales>
<clustering>
<clus scale="   64.911">  2  5  1 -1</clus>
<clus scale="   71.313">  1  4  2 -1</clus>
<clus scale="  131.653">  2  3  1 -1</clus>
<clus scale="   64.911">  2  3  1 -1</clus>
</clustering>
</event>
<event>
 6    0  0.1361744E+002  0.1612015E+03  0.7546771E-02  0.1187347E+00
         21   -1    0    0  505  502  0.00000000000E+00  0.00000000000E+00  0.98221525379E+03  0.98221525379E+03  0.00000000000E+00 0.  1.
         -2   -1    0    0    0  501 -0.00000000000E+00 -0.00000000000E+00 -0.30683941181E+03  0.30683941181E+03  0.00000000000E+00 0.  1.
         21    1    1    2  503  504 -0.35157694216E+02  0.95224468105E+02  0.42812283111E+03  0.43999195596E+03  0.00000000000E+00 0.  1.
         21    1    1    2  504  501 -0.68755331806E+02  0.46487469599E+01 -0.16666325255E+02  0.70899033122E+02  0.00000000000E+00 0.  1.
         21    1    1    2  505  503 -0.18124935521E+02  0.41575317768E+02  0.48591131241E+03  0.48802338454E+03  0.00000000000E+00 0.  1.
         -2    1    1    2    0  502  0.12203796154E+03 -0.14144853283E+03 -0.22199197628E+03  0.29014029198E+03  0.00000000000E+00 0.  1.
<scales pt_clust_3="43.32400" pt_clust_4="68.91231" pt_clust_5="43.32400" pt_clust_6="147.59771"></scales>
<clustering>
<clus scale="   43.324">  3  5 -1 -1</clus>
<clus scale="   68.912">  2  4  1 -1</clus>
<clus scale="  147.598">  2  6  1 -1</clus>
<clus scale="  161.201">  1  3  2 -1</clus>
</clustering>
</event>
<event>
 6    0  0.1361744E+002  0.1343831E+03  0.7546771E-02  0.1221093E+00
         21   -1    0    0  504  502  0.00000000000E+00  0.00000000000E+00  0.25231918171E+03  0.25231918171E+03  0.00000000000E+00 0.  1.
         -2   -1    0    0    0  501 -0.00000000000E+00 -0.00000000000E+00 -0.43770724965E+03  0.43770724965E+03  0.00000000000E+00 0.  1.
         21    1    1    2  503  505  0.33871682482E+01 -0.75366370887E+02  0.84339275034E+02  0.11315774866E+03  0.00000000000E+00 0.  1.
         21    1    1    2  504  501  0.11239238468E+02 -0.68515360897E+02 -0.16704333461E+03  0.18089817798E+03  0.00000000000E+00 0. -1.
         21    1    1    2  505  502  0.19699961326E+02 -0.45960503146E+02  0.10267666045E+03  0.11420574822E+03  0.00000000000E+00 0.  1.
         -2    1    1    2    0  503 -0.34326368042E+02  0.18984223493E+03 -0.20536066882E+03  0.28176475650E+03  0.00000000000E+00 0.  1.
<scales pt_clust_3="31.17167" pt_clust_4="69.43108" pt_clust_5="31.17167" pt_clust_6="128.81324"></scales>
<clustering>
<clus scale="   31.172">  3  5 -1 -1</clus>
<clus scale="   69.431">  2  4  1 -1</clus>
<clus scale="  128.813">  2  6  1 -1</clus>
<clus scale="  134.383">  1  3  2 -1</clus>
</clustering>
</event>
<event>
 6    0  0.1361744E+002  0.1291575E+03  0.7546771E-02  0.1228711E+00
         21   -1    0    0  505  502  0.00000000000E+00  0.00000000000E+00  0.43017133749E+02  0.43017133749E+02  0.00000000000E+00 0. -1.
         -4   -1    0    0    0  501 -0.00000000000E+00 -0.00000000000E+00 -0.66673954682E+03  0.66673954682E+03  0.00000000000E+00 0. -1.
         21    1    1    2  503  501  0.11432563871E+02  0.64672352319E+02 -0.19603762269E+03  0.20674613946E+03  0.00000000000E+00 0. -1.
         21    1    1    2  504  503 -0.39023054884E+02  0.69353907821E+01 -0.85715390955E+02  0.94435304332E+02  0.00000000000E+00 0. -1.
         21    1    1    2  505  504 -0.83616646621E+02 -0.19698500559E+02 -0.72255761852E+02  0.11225270436E+03  0.00000000000E+00 0. -1.
         -4    1    1    2    0  502  0.11120713763E+03 -0.51909242542E+02 -0.26971363757E+03  0.29632253241E+03  0.00000000000E+00 0. -1.
<scales pt_clust_3="65.67508" pt_clust_4="34.37847" pt_clust_5="34.37847" pt_clust_6="118.82767"></scales>
<clustering>
<clus scale="   34.378">  4  5 -1 -1</clus>
<clus scale="   65.675">  2  3  1 -1</clus>
<clus scale="  118.828">  2  6  1 -1</clus>
<clus scale="  129.158">  1  3  2 -1</clus>
</clustering>
</event>
<event>
 6    0  0.1361744E+002  0.1152668E+03  0.7546771E-02  0.1251116E+00
         21   -1    0    0  503  502  0.00000000000E+00  0.00000000000E+00  0.73976650812E+03  0.73976650812E+03  0.00000000000E+00 0. -1.
          2   -1    0    0  504    0 -0.00000000000E+00 -0.00000000000E+00 -0.48125720902E+02  0.48125720902E+02  0.00000000000E+00 0.  1.
         21    1    1    2  503  505 -0.36969483999E+02 -0.10049037367E+02  0.15955880542E+03  0.16409368753E+03  0.00000000000E+00 0.  1.
         21    1    1    2  504  502 -0.23750503410E+01 -0.45475930848E+02  0.10902312865E+03  0.11815135941E+03  0.00000000000E+00 0. -1.
         21    1    1    2  505  501 -0.61558253383E+02  0.57684896911E+02  0.39063524882E+03  0.39964091821E+03  0.00000000000E+00 0. -1.
          2    1    1    2  501    0  0.10090278772E+03 -0.21599286964E+01  0.32423604335E+02  0.10600626387E+03  0.00000000000E+00 0.  1.
<scales pt_clust_3="37.55869" pt_clust_4="45.53791" pt_clust_5="37.55869" pt_clust_6="100.89653"></scales>
<clustering>
<clus scale="   37.559">  3  5 -1 -1</clus>
<clus scale="   45.538">  1  4  2 -1</clus>
<clus scale="  100.897">  2  6  1 -1</clus>
<clus scale="   45.538">  1  3  2 -1</clus>
</clustering>
</event>
<event>
 6    0  0.1361744E+002  0.1731239E+03  0.7546771E-02  0.1174629E+00
         21   -1    0    0  503  502  0.00000000000E+00  0.00000000000E+00  0.45375705978E+03  0.45375705978E+03  0.00000000000E+00 0. -1.
         -3   -1    0    0    0  501 -0.00000000000E+00 -0.00000000000E+00 -0.12912923055E+04  0.12912923055E+04  0.00000000000E+00 0. -1.
         21    1    1    2  503  505 -0.18175070910E+03  0.53085181615E+02  0.30759303554E+03  0.36119915874E+03  0.00000000000E+00 0. -1.
         21    1    1    2  504  502  0.11507286085E+03 -0.98635873003E+02  0.60127146447E+02  0.16305236118E+03  0.00000000000E+00 0. -1.
         21    1    1    2  505  501  0.33429146757E+02  0.76703500609E+02 -0.11280618593E+04  0.11311606841E+04  0.00000000000E+00 0. -1.
         -3    1    1    2    0  504  0.33248701487E+02 -0.31152809220E+02 -0.77193568407E+02  0.89637161247E+02  0.00000000000E+00 0. -1.
<scales pt_clust_3="14000.00000" pt_clust_4="173.12389" pt_clust_5="80.16304" pt_clust_6="45.56285"></scales>
<clustering>
<clus scale="   45.563">  2  6  1 -1</clus>
<clus scale="   80.163">  2  5  1 -1</clus>
<clus scale="  173.124">  2  4  1 -1</clus>
<clus scale="  173.124">  1  3  2 -1</clus>
</clustering>
</event>
<event>
 6    0  0.1361744E+002  0.1440652E+03  0.7546771E-02  0.1207961E+00
         -1   -1    0    0    0  501 -0.00000000000E+00  0.00000000000E+00  0.36393270980E+03  0.36393270980E+03  0.00000000000E+00 0. -1.
         21   -1    0    0  505  502  0.00000000000E+00 -0.00000000000E+00 -0.18158874463E+03  0.18158874463E+03  0.00000000000E+00 0. -1.
         21    1    1    2  503  502  0.45029276097E+02  0.10168663560E+03 -0.11006287765E+03  0.15646611327E+03  0.00000000000E+00 0. -1.
         21    1    1    2  504  503 -0.17556735611E+02  0.31719630565E+02 -0.19155708415E+02  0.41003842422E+02  0.00000000000E+00 0. -1.
         21    1    1    2  505  501 -0.28513657498E+02 -0.45777678788E+02  0.55411809201E+02  0.77324595945E+02  0.00000000000E+00 0. -1.
         -1    1    1    2    0  504  0.10411170107E+01 -0.87628587378E+02  0.25615074203E+03  0.27072690279E+03  0.00000000000E+00 0. -1.
<scales pt_clust_3="34.94062" pt_clust_4="34.94062" pt_clust_5="53.93167" pt_clust_6="130.42165"></scales>
<clustering>
<clus scale="   34.941">  3  4 -1 -1</clus>
<clus scale="   53.932">  1  5  2 -1</clus>
<clus scale="  130.422">  1  6  2 -1</clus>
<clus scale="  144.065">  2  3  1 -1</clus>
</clustering>
</event>
<event>
 6    0  0.1361744E+002  0.1381428E+03  0.7546771E-02  0.1215850E+00
         -2   -1    0    0    0  501 -0.00000000000E+00  0.00000000000E+00  0.12408709982E+04  0.12408709982E+04  0.00000000000E+00 0.  1.
         21   -1    0    0  505  502  0.00000000000E+00 -0.00000000000E+00 -0.12695101538E+03  0.12695101538E+03  0.00000000000E+00 0. -1.
         21    1    1    2  503  504 -0.73672462207E+02 -0.19722584146E+02 -0.61539405665E+02  0.97998522757E+02  0.00000000000E+00 0. -1.
         21    1    1    2  504  501  0.51415042369E+02 -0.27899206663E+02  0.21938723921E+03  0.22705204919E+03  0.00000000000E+00 0.  1.
         21    1    1    2  505  503 -0.49616384417E+02 -0.33672575414E+02 -0.18052256083E+02  0.62621976073E+02  0.00000000000E+00 0. -1.
         -2    1    1    2    0  502  0.71873804255E+02  0.81294366222E+02  0.97412440533E+03  0.98014946553E+03  0.00000000000E+00 0.  1.
<scales pt_clust_3="33.33008" pt_clust_4="58.49677" pt_clust_5="33.33008" pt_clust_6="132.93041"></scales>
<clustering>
<clus scale="   33.330">  3  5 -1 -1</clus>
<clus scale="   58.497">  1  4  2 -1</clus>
<clus scale="  132.930">  1  6  2 -1</clus>
<clus scale="  138.143">  2  3  1 -1</clus>
</clustering>
</event>
<event>
 6    0  0.1361744E+002  0.8437356E+02  0.7546771E-02  0.1317079E+00
         -2   -1    0    0    0  501 -0.00000000000E+00  0.00000000000E+00  0.31094905853E+02  0.31094905853E+02  0.00000000000E+00 0. -1.
         21   -1    0    0  503  502  0.00000000000E+00 -0.00000000000E+00 -0.10131648144E+04  0.10131648144E+04  0.00000000000E+00 0.  1.
         21    1    1    2  503  505  0.20521169404E+02  0.47572319742E+02 -0.43010048280E+03  0.43320972901E+03  0.00000000000E+00 0.  1.
         21    1    1    2  504  501 -0.34915187795E+02  0.44406464764E+02 -0.28536480009E+03  0.29090217184E+03  0.00000000000E+00 0. -1.
         21    1    1    2  505  504 -0.60551831105E+02 -0.32239850783E+02 -0.17332429755E+03  0.18640612745E+03  0.00000000000E+00 0. -1.
         -2    1    1    2    0  502  0.74945849496E+02 -0.59738933722E+02 -0.93280328135E+02  0.13374169199E+03  0.00000000000E+00 0. -1.
<scales pt_clust_3="51.80969" pt_clust_4="14000.00000" pt_clust_5="56.96723" pt_clust_6="84.37356"></scales>
<clustering>
<clus scale="   51.810">  2  3  1 -1</clus>
<clus scale="   56.967">  2  5  1 -1</clus>
<clus scale="   84.374">  1  6  2 -1</clus>
<clus scale="   51.810">  2  3  1 -1</clus>
</clustering>
</event>
<event>
 6    0  0.1361744E+002  0.1062979E+03  0.7546771E-02  0.1267583E+00
         21   -1    0    0  505  502  0.00000000000E+00  0.00000000000E+00  0.12426141767E+04  0.12426141767E+04  0.00000000000E+00 0. -1.
          1   -1    0    0  503    0 -0.00000000000E+00 -0.00000000000E+00 -0.16600606778E+04  0.16600606778E+04  0.00000000000E+00 0. -1.
         21    1    1    2  503  502 -0.21915135449E+02  0.64419121410E+02 -0.48104079437E+03  0.48582954029E+03  0.00000000000E+00 0. -1.
         21    1    1    2  504  501  0.18749025373E+01 -0.10692906197E+03  0.91295490167E+03  0.91919747173E+03  0.00000000000E+00 0. -1.
         21    1    1    2  505  504 -0.42887673218E+02  0.85875260225E+01  0.32157300211E+03  0.32453396402E+03  0.00000000000E+00 0. -1.
          1    1    1    2  501    0  0.62927906129E+02  0.33922414539E+02 -0.11709336105E+04  0.11731138784E+04  0.00000000000E+00 0. -1.
<scales pt_clust_3="68.10202" pt_clust_4="106.29791" pt_clust_5="43.73898" pt_clust_6="14000.00000"></scales>
<clustering>
<clus scale="   43.739">  1  5  2 -1</clus>
<clus scale="   68.102">  2  3  1 -1</clus>
<clus scale="  106.298">  1  4  2 -1</clus>
<clus scale="   43.739">  1  3  2 -1</clus>
</clustering>
</event>
<event>
 6    0  0.1361744E+002  0.1703714E+03  0.7546771E-02  0.1177461E+00
         21   -1    0    0  501  502  0.00000000000E+00  0.00000000000E+00  0.60262961845E+02  0.60262961845E+02  0.00000000000E+00 0.  1.
          2   -1    0    0  505    0 -0.00000000000E+00 -0.00000000000E+00 -0.12884657184E+04  0.12884657184E+04  0.00000000000E+00 0.  1.
         21    1    1    2  503  504  0.25651372331E+02  0.11396082727E+03 -0.49143309344E+02  0.12672855995E+03  0.00000000000E+00 0.  1.
         21    1    1    2  504  502 -0.14192960293E+01  0.59529380918E+02 -0.58062644970E+02  0.83168698046E+02  0.00000000000E+00 0.  1.
         21    1    1    2  505  503  0.30499755801E+02 -0.55599741680E+02 -0.52565733786E+03  0.52946879344E+03  0.00000000000E+00 0.  1.
          2    1    1    2  501    0 -0.54731832102E+02 -0.11789046651E+03 -0.59533946434E+03  0.60936262877E+03  0.00000000000E+00 0.  1.
<scales pt_clust_3="30.93828" pt_clust_4="30.93828" pt_clust_5="63.41582" pt_clust_6="164.76871"></scales>
<clustering>
<clus scale="   30.938">  3  4 -1 -1</clus>
<clus scale="   63.416">  2  5  1 -1</clus>
<clus scale="  164.769">  2  6  1 -1</clus>
<clus scale="  170.371">  1  3  2 -1</clus>
</clustering>
</event>
<event>
 6    0  0.2527617E+002  0.1210977E+03  0.7546771E-02  0.1241297E+00
         21   -1    0    0  505  502  0.00000000000E+00  0.00000000000E+00  0.28042950290E+04  0.28042950290E+04  0.00000000000E+00 0. -1.
         -4   -1    0    0    0  501 -0.00000000000E+00 -0.00000000000E+00 -0.86973180397E+03  0.86973180397E+03  0.00000000000E+00 0. -1.
         21    1    1    2  503  504  0.86085859866E+02  0.33575503105E+02  0.10382993338E+03  0.13899188733E+03  0.00000000000E+00 0. -1.
         21    1    1    2  504  502  0.11359980006E+02  0.76314399190E+02  0.24944632539E+04  0.24956561986E+04  0.00000000000E+00 0. -1.
         21    1    1    2  505  501  0.37890390442E+00 -0.36562384261E+02  0.18160476113E+03  0.18524913165E+03  0.00000000000E+00 0. -1.
         -4    1    1    2    0  503 -0.97824743777E+02 -0.73327518034E+02 -0.84533472335E+03  0.85412961539E+03  0.00000000000E+00 0. -1.
<scales pt_clust_3="121.09770" pt_clust_4="43.13020" pt_clust_5="36.56435" pt_clust_6="14000.00000"></scales>
<clustering>
<clus scale="   36.564">  1  5  2 -1</clus>
<clus scale="   43.130">  1  4  2 -1</clus>
<clus scale="  121.098">  1  3  2 -1</clus>
<clus scale="   36.564">  1  3  2 -1</clus>
</clustering>
</event>
<event>
 6    0  0.1361744E+002  0.1252225E+03  0.7546771E-02  0.1234722E+00
         21   -1    0    0  503  502  0.00000000000E+00  0.00000000000E+00  0.17649972919E+02  0.17649972919E+02  0.00000000000E+00 0. -1.
          2   -1    0    0  504    0 -0.00000000000E+00 -0.00000000000E+00 -0.22198913609E+04  0.22198913609E+04  0.00000000000E+00 0. -1.
         21    1    1    2  503  505  0.97481651094E+02 -0.15424104538E+02 -0.19970531307E+03  0.22276172779E+03  0.00000000000E+00 0. -1.
         21    1    1    2  504  502  0.32658051913E+01 -0.57090930105E+02 -0.21543903520E+03  0.22289911995E+03  0.00000000000E+00 0. -1.
         21    1    1    2  505  501 -0.30160326508E+02  0.46881952040E+02 -0.76054211411E+03  0.76258236936E+03  0.00000000000E+00 0. -1.
          2    1    1    2  501    0 -0.70587129777E+02  0.25633082604E+02 -0.10265549256E+04  0.10292981167E+04  0.00000000000E+00 0. -1.
<scales pt_clust_3="118.19180" pt_clust_4="57.18426" pt_clust_5="35.64220" pt_clust_6="35.64220"></scales>
<clustering>
<clus scale="   35.642">  5  6 -1 -1</clus>
<clus scale="   57.184">  1  4  2 -1</clus>
<clus scale="  118.192">  1  3  2 -1</clus>
<clus scale="   57.184">  1  3  2 -1</clus>
</clustering>
</event>
<event>
 6    0  0.1361744E+002  0.1476089E+03  0.7546771E-02  0.1203442E+00
         21   -1    0    0  505  502  0.00000000000E+00  0.00000000000E+00  0.57110737768E+03  0.57110737768E+03  0.00000000000E+00 0. -1.
          2   -1    0    0  503    0 -0.00000000000E+00 -0.00000000000E+00 -0.99729727688E+03  0.99729727688E+03  0.00000000000E+00 0.  1.
         21    1    1    2  503  502  0.56915043590E+02 -0.77915735135E+02  0.46251079663E+03  0.47246843383E+03  0.00000000000E+00 0. -1.
         21    1    1    2  504  501 -0.77923793971E+02  0.32187561619E+02 -0.29251367831E+03  0.30442143287E+03  0.00000000000E+00 0.  1.
         21    1    1    2  505  504  0.70215179924E+02 -0.10607392286E+02  0.82423205815E+02  0.10879463737E+03  0.00000000000E+00 0. -1.
          2    1    1    2  501    0 -0.49206429544E+02  0.56335565803E+02 -0.67861022333E+03  0.68272015050E+03  0.00000000000E+00 0.  1.
<scales pt_clust_3="14000.00000" pt_clust_4="147.60886" pt_clust_5="71.01189" pt_clust_6="74.56564"></scales>
<clustering>
<clus scale="   71.012">  1  5  2 -1</clus>
<clus scale="   74.566">  2  6  1 -1</clus>
<clus scale="  147.609">  2  4  1 -1</clus>
<clus scale="   71.012">  1  3  2 -1</clus>
</clustering>
</event>
<event>
 6    0  0.1361744E+002  0.1796919E+03  0.7546771E-02  0.1168102E+00
          2   -1    0    0  505    0 -0.00000000000E+00  0.00000000000E+00  0.50015815065E+03  0.50015815065E+03  0.00000000000E+00 0. -1.
         21   -1    0    0  501  502  0.00000000000E+00 -0.00000000000E+00 -0.94819194664E+03  0.94819194664E+03  0.00000000000E+00 0.  1.
         21    1    1    2  503  502  0.18211807996E+02  0.66112880556E+02 -0.31888057331E+03  0.32617081868E+03  0.00000000000E+00 0.  1.
         21    1    1    2  504  503 -0.23944644037E+02  0.10782737976E+03 -0.59528232481E+03  0.60544292549E+03  0.00000000000E+00 0.  1.
         21    1    1    2  505  504 -0.32824899187E+02  0.10169798314E+02  0.59590941244E+02  0.68789382049E+02  0.00000000000E+00 0. -1.
          2    1    1    2  501    0  0.38557735228E+02 -0.18411005863E+03  0.40653816088E+03  0.44794697107E+03  0.00000000000E+00 0. -1.
<scales pt_clust_3="34.51769" pt_clust_4="34.51769" pt_clust_5="34.36421" pt_clust_6="174.26099"></scales>
<clustering>
<clus scale="   34.364">  1  5  2 -1</clus>
<clus scale="   34.518">  3  4 -1 -1</clus>
<clus scale="  174.261">  1  6  2 -1</clus>
<clus scale="  179.692">  2  3  1 -1</clus>
</clustering>
</event>
<event>
 6    0  0.1361744E+002  0.8670428E+02  0.7546771E-02  0.1311035E+00
         21   -1    0    0  503  502  0.00000000000E+00  0.00000000000E+00  0.54946564905E+03  0.54946564905E+03  0.00000000000E+00 0.  1.
         -3   -1    0    0    0  501 -0.00000000000E+00 -0.00000000000E+00 -0.94148962897E+02  0.94148962897E+02  0.00000000000E+00 0.  1.
         21    1    1    2  503  501 -0.89585094479E+02 -0.34829960526E+02  0.58904895463E+02  0.11273154843E+03  0.00000000000E+00 0.  1.
         21    1    1    2  504  505  0.42647396640E+02 -0.76153979190E+01  0.24384879567E+03  0.24766717561E+03  0.00000000000E+00 0.  1.
         21    1    1    2  505  502  0.29121207380E+02 -0.34258213134E+02  0.19055258725E+03  0.19578549076E+03  0.00000000000E+00 0.  1.
         -3    1    1    2    0  504  0.17816490458E+02  0.76703571579E+02 -0.37989592231E+02  0.87430397134E+02  0.00000000000E+00 0.  1.
<scales pt_clust_3="80.47396" pt_clust_4="31.67902" pt_clust_5="31.67902" pt_clust_6="78.74557"></scales>
<clustering>
<clus scale="   31.679">  4  5 -1 -1</clus>
<clus scale="   78.746">  2  6  1 -1</clus>
<clus scale="   80.474">  2  3  1 -1</clus>
<clus scale="   86.704">  1  3  2 -1</clus>
</clustering>
</event>
<event>
 6    0  0.1361744E+002  0.1017780E+03  0.7546771E-02  0.1276601E+00
          1   -1    0    0  503    0 -0.00000000000E+00  0.00000000000E+00  0.17718072269E+04  0.17718072269E+04  0.00000000000E+00 0. -1.
         21   -1    0    0  501  502  0.00000000000E+00 -0.00000000000E+00 -0.15373149040E+03  0.15373149040E+03  0.00000000000E+00 0. -1.
         21    1    1    2  503  505  0.47696584395E+02 -0.97216543456E+01  0.57160380625E+03  0.57367271684E+03  0.00000000000E+00 0.  1.
         21    1    1    2  504  502 -0.25187091204E+02 -0.29048316576E+02 -0.89565092569E+02  0.97468456775E+02  0.00000000000E+00 0. -1.
         21    1    1    2  505  504 -0.41571102136E+02  0.10787521963E+03 -0.49289497426E+00  0.11560909345E+03  0.00000000000E+00 0. -1.
          1    1    1    2  501    0  0.19061608946E+02 -0.69105248708E+02  0.11365299178E+04  0.11387884503E+04  0.00000000000E+00 0. -1.
<scales pt_clust_3="48.35636" pt_clust_4="38.44729" pt_clust_5="14000.00000" pt_clust_6="101.77802"></scales>
<clustering>
<clus scale="   38.447">  2  4  1 -1</clus>
<clus scale="   48.356">  1  3  2 -1</clus>
<clus scale="  101.778">  1  6  2 -1</clus>
<clus scale="   38.447">  2  3  1 -1</clus>
</clustering>
</event>
<event>
 6    0  0.1361744E+002  0.1118553E+03  0.7546771E-02  0.1257172E+00
          1   -1    0    0  503    0 -0.00000000000E+00  0.00000000000E+00  0.96870262696E+03  0.96870262696E+03  0.00000000000E+00 0. -1.
         21   -1    0    0  505  502  0.00000000000E+00 -0.00000000000E+00 -0.26420885569E+02  0.26420885569E+02  0.00000000000E+00 0. -1.
         21    1    1    2  503  504  0.33963575065E+02  0.73824484138E+02  0.28596226193E+03  0.29728436578E+03  0.00000000000E+00 0. -1.
         21    1    1    2  504  502 -0.54958081191E+02  0.46945969054E+02  0.91219001038E+02  0.11638393725E+03  0.00000000000E+00 0. -1.
         21    1    1    2  505  501 -0.85973249949E+01 -0.90506142478E+02  0.31737421623E+03  0.33013886314E+03  0.00000000000E+00 0. -1.
          1    1    1    2  501    0  0.29591831121E+02 -0.30264310714E+02  0.24772626219E+03  0.25131634637E+03  0.00000000000E+00 0. -1.
<scales pt_clust_3="93.73505" pt_clust_4="72.27942" pt_clust_5="41.64656" pt_clust_6="41.64656"></scales>
<clustering>
<clus scale="   41.647">  5  6 -1 -1</clus>
<clus scale="   72.279">  2  4  1 -1</clus>
<clus scale="   93.735">  1  3  2 -1</clus>
<clus scale="   72.279">  2  3  1 -1</clus>
</clustering>
</event>
<event>
 6    0  0.1361744E+002  0.8666947E+02  0.7546771E-02  0.1311124E+00
         21   -1    0    0  503  502  0.00000000000E+00  0.00000000000E+00  0.82441681316E+02  0.82441681316E+02  0.00000000000E+00 0. -1.
         -3   -1    0    0    0  501 -0.00000000000E+00 -0.00000000000E+00 -0.38103812181E+03  0.38103812181E+03  0.00000000000E+00 0. -1.
         21    1    1    2  503  501  0.61469312430E+02 -0.47460201336E+02 -0.15673585189E+02  0.79225048780E+02  0.00000000000E+00 0. -1.
         21    1    1    2  504  502 -0.87461784754E+02 -0.26653569273E+02 -0.40535914041E+01  0.91522719314E+02  0.00000000000E+00 0. -1.
         21    1    1    2  505  504 -0.10142422945E+02  0.31712946509E+02 -0.10663412914E+03  0.11171131195E+03  0.00000000000E+00 0. -1.
         -3    1    1    2    0  505  0.36134895269E+02  0.42400824099E+02 -0.17223513475E+03  0.18102072308E+03  0.00000000000E+00 0. -1.
<scales pt_clust_3="77.65917" pt_clust_4="75.86882" pt_clust_5="32.39137" pt_clust_6="32.39137"></scales>
<clustering>
<clus scale="   32.391">  5  6 -1 -1</clus>
<clus scale="   77.659">  1  3  2 -1</clus>
<clus scale="   75.869">  1  4  2 -1</clus>
<clus scale="   77.659">  1  3  2 -1</clus>
</clustering>
</event>
<event>
 6    0  0.1361744E+002  0.1377229E+03  0.7546771E-02  0.1216426E+00
         21   -1    0    0  504  502  0.00000000000E+00  0.00000000000E+00  0.15104689517E+03  0.15104689517E+03  0.00000000000E+00 0.  1.
          2   -1    0    0  503    0 -0.00000000000E+00 -0.00000000000E+00 -0.29636891684E+04  0.29636891684E+04  0.00000000000E+00 0. -1.
         21    1    1    2  503  505 -0.43769746478E+02 -0.39151770866E+02 -0.16897032578E+03  0.17888438407E+03  0.00000000000E+00 0. -1.
         21    1    1    2  504  501  0.44423883591E+01  0.17336907037E+03  0.76630377678E+02  0.18960164598E+03  0.00000000000E+00 0.  1.
         21    1    1    2  505  502  0.10499498197E+02 -0.36887239346E+02 -0.18570406483E+02  0.42611828005E+02  0.00000000000E+00 0.  1.
          2    1    1    2  501    0  0.28827859922E+02 -0.97330060159E+02 -0.27017319186E+04  0.27036382055E+04  0.00000000000E+00 0. -1.
<scales pt_clust_3="59.33580" pt_clust_4="137.72290" pt_clust_5="38.35242" pt_clust_6="14000.00000"></scales>
<clustering>
<clus scale="   38.352">  1  5  2 -1</clus>
<clus scale="   59.336">  2  3  1 -1</clus>
<clus scale="  137.723">  1  4  2 -1</clus>
<clus scale="   38.352">  1  3  2 -1</clus>
</clustering>
</event>
<event>
 6    0  0.1361744E+002  0.1166628E+03  0.7546771E-02  0.1248706E+00
          2   -1    0    0  505    0 -0.00000000000E+00  0.00000000000E+00  0.29830001685E+04  0.29830001685E+04  0.00000000000E+00 0.  1.
         21   -1    0    0  503  502  0.00000000000E+00 -0.00000000000E+00 -0.34525688538E+03  0.34525688538E+03  0.00000000000E+00 0. -1.
         21    1    1    2  503  501  0.30231200478E+02 -0.17984490847E+02 -0.67360293165E+01  0.35815380556E+02  0.00000000000E+00 0. -1.
         21    1    1    2  504  502 -0.23471275607E+02 -0.74505941688E+02 -0.29314338872E+03  0.30337284400E+03  0.00000000000E+00 0. -1.
         21    1    1    2  505  504  0.93436256743E+02  0.14832753239E+03  0.28933957520E+03  0.33830279443E+03  0.00000000000E+00 0.  1.
          2    1    1    2  501    0 -0.10019618161E+03 -0.55837099859E+02  0.26482831260E+04  0.26507660349E+04  0.00000000000E+00 0.  1.
<scales pt_clust_3="35.17623" pt_clust_4="91.16682" pt_clust_5="14000.00000" pt_clust_6="116.66277"></scales>
<clustering>
<clus scale="   35.176">  2  3  1 -1</clus>
<clus scale="   91.167">  2  4  1 -1</clus>
<clus scale="  116.663">  1  6  2 -1</clus>
<clus scale="   35.176">  2  3  1 -1</clus>
</clustering>
</event>
<event>
 6    0  0.1361744E+002  0.1316014E+03  0.7546771E-02  0.1225099E+00
          2   -1    0    0  503    0 -0.00000000000E+00  0.00000000000E+00  0.12487964343E+04  0.12487964343E+04  0.00000000000E+00 0.  1.
         21   -1    0    0  504  502  0.00000000000E+00 -0.00000000000E+00 -0.14207232698E+03  0.14207232698E+03  0.00000000000E+00 0.  1.
         21    1    1    2  503  505  0.37729529303E+02 -0.92189721678E+02  0.60973639158E+02  0.11679146731E+03  0.00000000000E+00 0.  1.
         21    1    1    2  504  501  0.25222408916E+02  0.25648408677E+02  0.37133377092E+02  0.51700081948E+02  0.00000000000E+00 0.  1.
         21    1    1    2  505  502  0.38929136159E+02 -0.26304189942E+02 -0.97222667750E+02  0.10797979059E+03  0.00000000000E+00 0.  1.
          2    1    1    2  501    0 -0.10188107438E+03  0.92845502943E+02  0.11058397589E+04  0.11143974215E+04  0.00000000000E+00 0.  1.
<scales pt_clust_3="131.60138" pt_clust_4="35.97236" pt_clust_5="58.52255" pt_clust_6="14000.00000"></scales>
<clustering>
<clus scale="   35.972">  2  4  1 -1</clus>
<clus scale="   58.523">  2  5  1 -1</clus>
<clus scale="  131.601">  2  3  1 -1</clus>
<clus scale="   35.972">  2  3  1 -1</clus>
</clustering>
</event>
<event>
 6    0  0.1361744E+002  0.8478566E+02  0.7546771E-02  0.1315994E+00
         21   -1    0    0  504  502  0.00000000000E+00  0.00000000000E+00  0.26067623482E+02  0.26067623482E+02  0.00000000000E+00 0. -1.
          2   -1    0    0  503    0 -0.00000000000E+00 -0.00000000000E+00 -0.41590683677E+04  0.41590683677E+04  0.00000000000E+00 0.  1.
         21    1    1    2  503  505  0.38107247857E+02 -0.22278331132E+02 -0.63966405240E+03  0.64118529795E+03  0.00000000000E+00 0. -1.
         21    1    1    2  504  501 -0.30143350287E+02 -0.97165316417E+02 -0.12512117904E+03  0.16126075072E+03  0.00000000000E+00 0. -1.
         21    1    1    2  505  502 -0.36696051255E+02  0.43470833801E+02 -0.11347949603E+03  0.12694057503E+03  0.00000000000E+00 0. -1.
          2    1    1    2  501    0  0.28732153684E+02  0.75972813748E+02 -0.32547360168E+04  0.32557493675E+04  0.00000000000E+00 0.  1.
<scales pt_clust_3="44.14166" pt_clust_4="14000.00000" pt_clust_5="55.46952" pt_clust_6="84.78566"></scales>
<clustering>
<clus scale="   44.142">  2  3  1 -1</clus>
<clus scale="   55.470">  1  5  2 -1</clus>
<clus scale="   84.786">  2  6  1 -1</clus>
<clus scale="   55.470">  1  3  2 -1</clus>
</clustering>
</event>
<event>
 6    0  0.1361744E+002  0.1369789E+03  0.7546771E-02  0.1217453E+00
         21   -1    0    0  504  502  0.00000000000E+00  0.00000000000E+00  0.65006394991E+03  0.65006394991E+03  0.00000000000E+00 0.  1.
          2   -1    0    0  503    0 -0.00000000000E+00 -0.00000000000E+00 -0.77439660321E+03  0.77439660321E+03  0.00000000000E+00 0. -1.
         21    1    1    2  503  502  0.78961515705E+02  0.48413008625E+02  0.59705486611E+03  0.60419637000E+03  0.00000000000E+00 0.  1.
         21    1    1    2  504  505  0.33947865926E+02  0.17896129521E+02  0.34738830506E+02  0.51764035756E+02  0.00000000000E+00 0.  1.
         21    1    1    2  505  501 -0.62866989071E+02 -0.58829522565E+02 -0.43915372871E+03  0.44751443382E+03  0.00000000000E+00 0. -1.
          2    1    1    2  501    0 -0.50042392560E+02 -0.74796155813E+01 -0.31697262121E+03  0.32098571354E+03  0.00000000000E+00 0. -1.
<scales pt_clust_3="130.54970" pt_clust_4="38.37615" pt_clust_5="31.79287" pt_clust_6="31.79287"></scales>
<clustering>
<clus scale="   31.793">  5  6 -1 -1</clus>
<clus scale="   38.376">  1  4  2 -1</clus>
<clus scale="  130.550">  1  3  2 -1</clus>
<clus scale="   38.376">  1  3  2 -1</clus>
</clustering>
</event>
<event>
 6    0  0.1361744E+002  0.1219740E+03  0.7546771E-02  0.1239876E+00
         21   -1    0    0  501  502  0.00000000000E+00  0.00000000000E+00  0.12205188528E+04  0.12205188528E+04  0.00000000000E+00 0.  1.
          1   -1    0    0  504    0 -0.00000000000E+00 -0.00000000000E+00 -0.62631782048E+03  0.62631782048E+03  0.00000000000E+00 0. -1.
         21    1    1    2  503  505 -0.71747167560E+02  0.31151118906E+02 -0.22158034173E+02  0.81295920810E+02  0.00000000000E+00 0.  1.
         21    1    1    2  504  503  0.11082940448E+02  0.31757496794E+02 -0.26934844589E+03  0.27144051922E+03  0.00000000000E+00 0. -1.
         21    1    1    2  505  502  0.94238500658E+02 -0.82086431266E+02  0.11853767827E+04  0.11919468085E+04  0.00000000000E+00 0.  1.
          1    1    1    2  501    0 -0.33574273546E+02  0.19177815566E+02 -0.29966927039E+03  0.30215342472E+03  0.00000000000E+00 0. -1.
<scales pt_clust_3="14000.00000" pt_clust_4="33.63585" pt_clust_5="121.97398" pt_clust_6="52.00306"></scales>
<clustering>
<clus scale="   33.636">  2  4  1 -1</clus>
<clus scale="   52.003">  2  6  1 -1</clus>
<clus scale="  121.974">  1  5  2 -1</clus>
<clus scale="  121.974">  1  3  2 -1</clus>
</clustering>
</event>
<event>
 6    0  0.1361744E+002  0.1964134E+03  0.7546771E-02  0.1152801E+00
         21   -1    0    0  504  502  0.00000000000E+00  0.00000000000E+00  0.47966217865E+03  0.47966217865E+03  0.00000000000E+00 0.  1.
          1   -1    0    0  505    0 -0.00000000000E+00 -0.00000000000E+00 -0.86182967366E+02  0.86182967366E+02  0.00000000000E+00 0.  1.
         21    1    1    2  503  502 -0.77732299013E+02  0.82474522141E+02  0.20305656870E+03  0.23254317277E+03  0.00000000000E+00 0.  1.
         21    1    1    2  504  501  0.48748998944E+02 -0.67828703813E+02  0.84009542933E+02  0.11846856656E+03  0.00000000000E+00 0.  1.
         21    1    1    2  505  503 -0.62341956359E+02  0.29345644168E+02  0.88065748362E+02  0.11181798777E+03  0.00000000000E+00 0.  1.
          1    1    1    2  501    0  0.91325256428E+02 -0.43991462497E+02  0.18347351292E+02  0.10301541891E+03  0.00000000000E+00 0.  1.
<scales pt_clust_3="183.93587" pt_clust_4="72.92435" pt_clust_5="32.22318" pt_clust_6="72.92435"></scales>
<clustering>
<clus scale="   32.223">  3  5 -1 -1</clus>
<clus scale="   72.924">  4  6 -1 -1</clus>
<clus scale="  183.936">  1  3  2 -1</clus>
<clus scale="  183.936">  1  3  2 -1</clus>
</clustering>
</event>
<event>
 6    0  0.1528635E+002  0.1365391E+03  0.7546771E-02  0.1218063E+00
          2   -1    0    0  503    0 -0.00000000000E+00  0.00000000000E+00  0.10053936635E+04  0.10053936635E+04  0.00000000000E+00 0. -1.
         21   -1    0    0  505  502  0.00000000000E+00 -0.00000000000E+00 -0.14016372741E+04  0.14016372741E+04  0.00000000000E+00 0.  1.
         21    1    1    2  503  504 -0.18740045855E+03 -0.18554841639E+02  0.14812013436E+03  0.23958878984E+03  0.00000000000E+00 0.  1.
         21    1    1    2  504  502 -0.29187656433E+02 -0.27987831944E+02 -0.11438949638E+02  0.42024844959E+02  0.00000000000E+00 0. -1.
         21    1    1    2  505  501  0.86877657631E+02  0.32427250921E+02 -0.13221910772E+04  0.13254389834E+04  0.00000000000E+00 0.  1.
          2    1    1    2  501    0  0.12971045735E+03  0.14115422662E+02  0.78926628187E+03  0.79997831945E+03  0.00000000000E+00 0. -1.
<scales pt_clust_3="136.53911" pt_clust_4="40.43808" pt_clust_5="59.02945" pt_clust_6="14000.00000"></scales>
<clustering>
<clus scale="   40.438">  2  4  1 -1</clus>
<clus scale="   59.029">  2  5  1 -1</clus>
<clus scale="  136.539">  2  3  1 -1</clus>
<clus scale="   40.438">  2  3  1 -1</clus>
</clustering>
</event>
<event>
 6    0  0.1361744E+002  0.1096348E+03  0.7546771E-02  0.1261248E+00
          2   -1    0    0  504    0 -0.00000000000E+00  0.00000000000E+00  0.12083256096E+04  0.12083256096E+04  0.00000000000E+00 0. -1.
         21   -1    0    0  503  502  0.00000000000E+00 -0.00000000000E+00 -0.76416403213E+02  0.76416403213E+02  0.00000000000E+00 0.  1.
         21    1    1    2  503  501 -0.11358711868E+03 -0.10338479219E+02  0.34092148184E+01  0.11410758269E+03  0.00000000000E+00 0.  1.
         21    1    1    2  504  505  0.48861728514E+02 -0.37765228698E+02  0.13579618293E+03  0.14917869926E+03  0.00000000000E+00 0.  1.
         21    1    1    2  505  502  0.73986315444E+02  0.96881541296E+02  0.26094370703E+03  0.28801323955E+03  0.00000000000E+00 0.  1.
          2    1    1    2  501    0 -0.92609252798E+01 -0.48777833379E+02  0.73176010160E+03  0.73344249131E+03  0.00000000000E+00 0. -1.
<scales pt_clust_3="14000.00000" pt_clust_4="69.76560" pt_clust_5="109.63477" pt_clust_6="49.64919"></scales>
<clustering>
<clus scale="   49.649">  1  6  2 -1</clus>
<clus scale="   69.766">  1  4  2 -1</clus>
<clus scale="  109.635">  1  5  2 -1</clus>
<clus scale="  109.635">  2  3  1 -1</clus>
</clustering>
</event>
<event>
 6    0  0.1361744E+002  0.1108436E+03  0.7546771E-02  0.1259016E+00
          2   -1    0    0  503    0 -0.00000000000E+00  0.00000000000E+00  0.14061432390E+04  0.14061432390E+04  0.00000000000E+00 0. -1.
         21   -1    0    0  501  502  0.00000000000E+00 -0.00000000000E+00 -0.31616410251E+02  0.31616410251E+02  0.00000000000E+00 0. -1.
         21    1    1    2  503  504  0.10048836747E+02 -0.37526330292E+02  0.22864330189E+03  0.23192016748E+03  0.00000000000E+00 0. -1.
         21    1    1    2  504  505 -0.21947080253E+02  0.46746534629E+02  0.14693088947E+03  0.15574209165E+03  0.00000000000E+00 0.  1.
         21    1    1    2  505  502 -0.88810804694E+02 -0.57637958776E+02  0.88204095307E+03  0.88837252108E+03  0.00000000000E+00 0. -1.
          2    1    1    2  501    0  0.10070904820E+03  0.48417754439E+02  0.11691168432E+03  0.16172486903E+03  0.00000000000E+00 0. -1.
<scales pt_clust_3="38.84848" pt_clust_4="46.72896" pt_clust_5="110.84361" pt_clust_6="14000.00000"></scales>
<clustering>
<clus scale="   38.848">  1  3  2 -1</clus>
<clus scale="   46.729">  1  4  2 -1</clus>
<clus scale="  110.844">  1  5  2 -1</clus>
<clus scale="  110.844">  2  3  1 -1</clus>
</clustering>
</event>
<event>
 6    0  0.1361744E+002  0.1358505E+03  0.7546771E-02  0.1219024E+00
         21   -1    0    0  505  502  0.00000000000E+00  0.00000000000E+00  0.26066220683E+03  0.26066220683E+03  0.00000000000E+00 0. -1.
          1   -1    0    0  503    0 -0.00000000000E+00 -0.00000000000E+00 -0.71183344554E+03  0.71183344554E+03  0.00000000000E+00 0. -1.
         21    1    1    2  503  504 -0.28686241583E+02 -0.83870886314E+02 -0.55196515679E+02  0.10442165183E+03  0.00000000000E+00 0.  1.
         21    1    1    2  504  502 -0.49690356023E+02 -0.26779774000E+01  0.18319796412E+03  0.18983623759E+03  0.00000000000E+00 0. -1.
         21    1    1    2  505  501 -0.25820085196E+02 -0.31300350277E+02  0.29113934254E+02  0.49940063023E+02  0.00000000000E+00 0.  1.
          1    1    1    2  501    0  0.10419668280E+03  0.11784921399E+03 -0.60828662141E+03  0.62829769993E+03  0.00000000000E+00 0. -1.
<scales pt_clust_3="14000.00000" pt_clust_4="77.15750" pt_clust_5="40.57572" pt_clust_6="135.85048"></scales>
<clustering>
<clus scale="   40.576">  1  5  2 -1</clus>
<clus scale="   77.157">  1  4  2 -1</clus>
<clus scale="  135.850">  2  6  1 -1</clus>
<clus scale="   40.576">  1  3  2 -1</clus>
</clustering>
</event>
<event>
 6    0  0.1361744E+002  0.1459798E+03  0.7546771E-02  0.1205502E+00
         21   -1    0    0  501  502  0.00000000000E+00  0.00000000000E+00  0.27301285245E+03  0.27301285245E+03  0.00000000000E+00 0.  1.
          3   -1    0    0  504    0 -0.00000000000E+00 -0.00000000000E+00 -0.20000890546E+03  0.20000890546E+03  0.00000000000E+00 0.  1.
         21    1    1    2  503  502  0.38565787515E+02  0.60585348948E+02  0.73895995156E+02  0.10304621572E+03  0.00000000000E+00 0. -1.
         21    1    1    2  504  505 -0.42570041823E+02  0.65092063379E+01 -0.47458927900E+02  0.64085318642E+02  0.00000000000E+00 0.  1.
         21    1    1    2  505  503  0.64570034070E+02  0.36426061798E+02  0.13693791081E+03  0.15571813861E+03  0.00000000000E+00 0.  1.
          3    1    1    2  501    0 -0.60565779761E+02 -0.10352061708E+03 -0.90371031070E+02  0.15017208494E+03  0.00000000000E+00 0.  1.
<scales pt_clust_3="48.98133" pt_clust_4="43.06481" pt_clust_5="48.98133" pt_clust_6="137.29628"></scales>
<clustering>
<clus scale="   43.065">  2  4  1 -1</clus>
<clus scale="   48.981">  3  5 -1 -1</clus>
<clus scale="  137.296">  2  6  1 -1</clus>
<clus scale="  145.980">  1  3  2 -1</clus>
</clustering>
</event>
<event>
 6    0  0.1361744E+002  0.1142933E+03  0.7546771E-02  0.1252820E+00
          2   -1    0    0  503    0 -0.00000000000E+00  0.00000000000E+00  0.15249713696E+04  0.15249713696E+04  0.00000000000E+00 0. -1.
         21   -1    0    0  505  502  0.00000000000E+00 -0.00000000000E+00 -0.69200053643E+03  0.69200053643E+03  0.00000000000E+00 0.  1.
         21    1    1    2  503  504  0.31633752379E+02 -0.99669828409E+01  0.37006525803E+03  0.37154855704E+03  0.00000000000E+00 0. -1.
         21    1    1    2  504  502 -0.29455298575E+02 -0.16958658522E+02 -0.19044185419E+01  0.34041702704E+02  0.00000000000E+00 0.  1.
         21    1    1    2  505  501  0.99511852884E+02 -0.72660507137E+02 -0.66313844381E+03  0.67448851275E+03  0.00000000000E+00 0.  1.
          2    1    1    2  501    0 -0.10169030669E+03  0.99586148500E+02  0.11279484375E+04  0.11368931335E+04  0.00000000000E+00 0. -1.
<scales pt_clust_3="33.16678" pt_clust_4="33.67767" pt_clust_5="14000.00000" pt_clust_6="114.29334"></scales>
<clustering>
<clus scale="   33.167">  1  3  2 -1</clus>
<clus scale="   33.678">  2  4  1 -1</clus>
<clus scale="  114.293">  1  6  2 -1</clus>
<clus scale="   33.678">  2  3  1 -1</clus>
</clustering>
</event>
<event>
 6    0  0.1361744E+002  0.9093490E+02  0.7546771E-02  0.1300603E+00
          2   -1    0    0  503    0 -0.00000000000E+00  0.00000000000E+00  0.17536174652E+03  0.17536174652E+03  0.00000000000E+00 0.  1.
         21   -1    0    0  501  502  0.00000000000E+00 -0.00000000000E+00 -0.39690250237E+03  0.39690250237E+03  0.00000000000E+00 0. -1.
         21    1    1    2  503  504 -0.32758417217E+02  0.12408177828E+02 -0.35662998789E+01  0.35210726639E+02  0.00000000000E+00 0.  1.
         21    1    1    2  504  505  0.13679884018E+02 -0.58786644399E+02  0.25156313289E+02  0.65389975414E+02  0.00000000000E+00 0.  1.
         21    1    1    2  505  502 -0.79601097977E+02  0.44552576554E+02 -0.32864728323E+03  0.34107228508E+03  0.00000000000E+00 0. -1.
          2    1    1    2  501    0  0.98679631177E+02  0.18258900159E+01  0.85516513976E+02  0.13059126175E+03  0.00000000000E+00 0.  1.
<scales pt_clust_3="35.02966" pt_clust_4="55.43913" pt_clust_5="90.93490" pt_clust_6="14000.00000"></scales>
<clustering>
<clus scale="   35.030">  1  3  2 -1</clus>
<clus scale="   55.439">  1  4  2 -1</clus>
<clus scale="   90.935">  2  5  1 -1</clus>
<clus scale="   90.935">  2  3  1 -1</clus>
</clustering>
</event>
<event>
 6    0  0.1361744E+002  0.1452289E+03  0.7546771E-02  0.1206461E+00
         21   -1    0    0  505  502  0.00000000000E+00  0.00000000000E+00  0.27784818855E+03  0.27784818855E+03  0.00000000000E+00 0.  1.
         -3   -1    0    0    0  501 -0.00000000000E+00 -0.00000000000E+00 -0.15990995835E+04  0.15990995835E+04  0.00000000000E+00 0.  1.
         21    1    1    2  503  501 -0.63645427322E+02  0.16178940947E+02 -0.20437208742E+03  0.21466357089E+03  0.00000000000E+00 0. -1.
         21    1    1    2  504  503  0.92591198827E+02 -0.40174063830E+02  0.17633448195E+03  0.20317710262E+03  0.00000000000E+00 0.  1.
         21    1    1    2  505  504  0.37186458411E+02  0.25522753431E+02  0.75957353488E+02  0.88338910910E+02  0.00000000000E+00 0.  1.
         -3    1    1    2    0  502 -0.66132229916E+02 -0.15276305477E+01 -0.13691711430E+04  0.13707681876E+04  0.00000000000E+00 0.  1.
<scales pt_clust_3="65.66962" pt_clust_4="43.69994" pt_clust_5="43.69994" pt_clust_6="129.68392"></scales>
<clustering>
<clus scale="   43.700">  4  5 -1 -1</clus>
<clus scale="   65.670">  2  3  1 -1</clus>
<clus scale="  129.684">  2  6  1 -1</clus>
<clus scale="  145.229">  1  3  2 -1</clus>
</clustering>
</event>
<event>
 6    0  0.1361744E+002  0.1299402E+03  0.7546771E-02  0.1227544E+00
         21   -1    0    0  503  502  0.00000000000E+00  0.00000000000E+00  0.10049067655E+03  0.10049067655E+03  0.00000000000E+00 0. -1.
          1   -1    0    0  504    0 -0.00000000000E+00 -0.00000000000E+00 -0.90562755978E+03  0.90562755978E+03  0.00000000000E+00 0. -1.
         21    1    1    2  503  505 -0.39543040085E+01  0.92282880740E+02  0.26091083837E+02  0.95981827727E+02  0.00000000000E+00 0. -1.
         21    1    1    2  504  502  0.51257953309E+02  0.13816746000E+02 -0.25757155237E+03  0.26298552211E+03  0.00000000000E+00 0. -1.
         21    1    1    2  505  501 -0.29278821714E+02  0.22776897643E+02  0.18085756542E+02  0.41269008431E+02  0.00000000000E+00 0. -1.
          1    1    1    2  501    0 -0.18024827587E+02 -0.12887652438E+03 -0.59174217124E+03  0.60588187807E+03  0.00000000000E+00 0. -1.
<scales pt_clust_3="31.95740" pt_clust_4="53.08748" pt_clust_5="31.95740" pt_clust_6="119.75579"></scales>
<clustering>
<clus scale="   31.957">  3  5 -1 -1</clus>
<clus scale="   53.087">  2  4  1 -1</clus>
<clus scale="  119.756">  2  6  1 -1</clus>
<clus scale="  129.940">  1  3  2 -1</clus>
</clustering>
</event>
<event>
 6    0  0.1361744E+002  0.1462246E+03  0.7546771E-02  0.1205190E+00
         21   -1    0    0  503  502  0.00000000000E+00  0.00000000000E+00  0.30923831526E+04  0.30923831526E+04  0.00000000000E+00 0. -1.
         -4   -1    0    0    0  501 -0.00000000000E+00 -0.00000000000E+00 -0.69047062205E+02  0.69047062205E+02  0.00000000000E+00 0. -1.
         21    1    1    2  503  501  0.54274246608E+01 -0.37847270010E+02  0.10817366425E+03  0.11473192416E+03  0.00000000000E+00 0. -1.
         21    1    1    2  504  502 -0.18358987469E+02  0.83050483664E+02  0.21151922561E+04  0.21169016783E+04  0.00000000000E+00 0. -1.
         21    1    1    2  505  504  0.18059753334E+02  0.54171766919E+02  0.82517375398E+03  0.82714718115E+03  0.00000000000E+00 0.  1.
         -4    1    1    2    0  505 -0.51281905253E+01 -0.99374980573E+02 -0.25203583864E+02  0.10264943128E+03  0.00000000000E+00 0. -1.
<scales pt_clust_3="38.23445" pt_clust_4="43.60676" pt_clust_5="43.60676" pt_clust_6="136.16265"></scales>
<clustering>
<clus scale="   38.234">  2  3  1 -1</clus>
<clus scale="   43.607">  4  5 -1 -1</clus>
<clus scale="  136.163">  2  6  1 -1</clus>
<clus scale="  146.225">  1  3  2 -1</clus>
</clustering>
</event>
<event>
 6    0  0.1361744E+002  0.1265776E+03  0.7546771E-02  0.1232624E+00
         21   -1    0    0  501  502  0.00000000000E+00  0.00000000000E+00  0.19098206575E+03  0.19098206575E+03  0.00000000000E+00 0. -1.
          1   -1    0    0  504    0 -0.00000000000E+00 -0.00000000000E+00 -0.34274703502E+03  0.34274703502E+03  0.00000000000E+00 0. -1.
         21    1    1    2  503  505 -0.58019876679E+02 -0.28023789475E+02  0.60014609045E+02  0.88053348404E+02  0.00000000000E+00 0.  1.
         21    1    1    2  504  503  0.26556697292E+02  0.17608184008E+02 -0.28381963165E+02  0.42671327003E+02  0.00000000000E+00 0.  1.
         21    1    1    2  505  502 -0.62360456496E+02 -0.20729722522E+01  0.92356740373E+02  0.11145802457E+03  0.00000000000E+00 0. -1.
          1    1    1    2  501    0  0.93823635882E+02  0.12488577719E+02 -0.27575435553E+03  0.29154640080E+03  0.00000000000E+00 0. -1.
<scales pt_clust_3="34.10753" pt_clust_4="31.86387" pt_clust_5="34.10753" pt_clust_6="121.78410"></scales>
<clustering>
<clus scale="   31.864">  2  4  1 -1</clus>
<clus scale="   34.108">  3  5 -1 -1</clus>
<clus scale="  121.784">  2  6  1 -1</clus>
<clus scale="  126.578">  1  3  2 -1</clus>
</clustering>
</event>
<event>
 6    0  0.1361744E+002  0.1176459E+03  0.7546771E-02  0.1247032E+00
         21   -1    0    0  503  502  0.00000000000E+00  0.00000000000E+00  0.32947768521E+03  0.32947768521E+03  0.00000000000E+00 0.  1.
          2   -1    0    0  504    0 -0.00000000000E+00 -0.00000000000E+00 -0.68219150943E+03  0.68219150943E+03  0.00000000000E+00 0.  1.
         21    1    1    2  503  505 -0.56207992137E+02  0.12556425137E+02  0.14409031621E+03  0.15517416478E+03  0.00000000000E+00 0.  1.
         21    1    1    2  504  502  0.20534548267E+02  0.24337397362E+02 -0.37433689075E+03  0.37568881320E+03  0.00000000000E+00 0.  1.
         21    1    1    2  505  501 -0.38230134673E+02  0.46388065115E+02  0.16335400657E+03  0.17406299792E+03  0.00000000000E+00 0.  1.
          2    1    1    2  501    0  0.73903578542E+02 -0.83281887615E+02 -0.28582125624E+03  0.30674321874E+03  0.00000000000E+00 0.  1.
<scales pt_clust_3="37.56464" pt_clust_4="31.84300" pt_clust_5="37.56464" pt_clust_6="111.16872"></scales>
<clustering>
<clus scale="   31.843">  2  4  1 -1</clus>
<clus scale="   37.565">  3  5 -1 -1</clus>
<clus scale="  111.169">  2  6  1 -1</clus>
<clus scale="  117.646">  1  3  2 -1</clus>
</clustering>
</event>
<event>
 6    0  0.1361744E+002  0.1933153E+03  0.7546771E-02  0.1155505E+00
         21   -1    0    0  503  502  0.00000000000E+00  0.00000000000E+00  0.18699352289E+03  0.18699352289E+03  0.00000000000E+00 0.  1.
          1   -1    0    0  504    0 -0.00000000000E+00 -0.00000000000E+00 -0.24736961361E+04  0.24736961361E+04  0.00000000000E+00 0. -1.
         21    1    1    2  503  501 -0.79834641572E+02 -0.30499553780E+02  0.25921457772E+01  0.85501532124E+02  0.00000000000E+00 0.  1.
         21    1    1    2  504  505 -0.24567585076E+02 -0.57956101814E+02 -0.17068234196E+03  0.18192014136E+03  0.00000000000E+00 0.  1.
         21    1    1    2  505  502 -0.11078748679E+03  0.83869928167E+02  0.95571314896E+02  0.16864728966E+03  0.00000000000E+00 0.  1.
          1    1    1    2  501    0  0.21518971343E+03  0.45857274276E+01 -0.22141837320E+04  0.22246206959E+04  0.00000000000E+00 0. -1.
<scales pt_clust_3="86.25344" pt_clust_4="62.94820" pt_clust_5="14000.00000" pt_clust_6="193.31526"></scales>
<clustering>
<clus scale="   62.948">  2  4  1 -1</clus>
<clus scale="   86.253">  1  3  2 -1</clus>
<clus scale="  193.315">  2  6  1 -1</clus>
<clus scale="   86.253">  1  3  2 -1</clus>
</clustering>
</event>
<event>
 6    0  0.1361744E+002  0.1114851E+03  0.7546771E-02  0.1257844E+00
         21   -1    0    0  504  502  0.00000000000E+00  0.00000000000E+00  0.48153134882E+03  0.48153134882E+03  0.00000000000E+00 0.  1.
          2   -1    0    0  505    0 -0.00000000000E+00 -0.00000000000E+00 -0.29659992650E+03  0.29659992650E+03  0.00000000000E+00 0. -1.
         21    1    1    2  503  502 -0.18465629696E+02 -0.30253976339E+02  0.22098060608E+03  0.22380507329E+03  0.00000000000E+00 0.  1.
         21    1    1    2  504  501 -0.24585153987E+02 -0.27488359682E+02 -0.69087583528E+02  0.78314327631E+02  0.00000000000E+00 0.  1.
         21    1    1    2  505  503  0.11495941813E+03  0.52094183244E+02  0.23214855949E+03  0.26423933359E+03  0.00000000000E+00 0.  1.
          2    1    1    2  501    0 -0.71908634445E+02  0.56481527781E+01 -0.19911015973E+03  0.21177254082E+03  0.00000000000E+00 0. -1.
<scales pt_clust_3="35.44408" pt_clust_4="35.26465" pt_clust_5="99.98304" pt_clust_6="35.26465"></scales>
<clustering>
<clus scale="   35.265">  4  6 -1 -1</clus>
<clus scale="   35.444">  1  3  2 -1</clus>
<clus scale="   99.983">  1  5  2 -1</clus>
<clus scale="   35.444">  1  3  2 -1</clus>
</clustering>
</event>
<event>
 6    0  0.1361744E+002  0.5962487E+02  0.7546771E-02  0.1399413E+00
         21   -1    0    0  504  502  0.00000000000E+00  0.00000000000E+00  0.62433649333E+03  0.62433649333E+03  0.00000000000E+00 0.  1.
         -4   -1    0    0    0  501 -0.00000000000E+00 -0.00000000000E+00 -0.43945668977E+03  0.43945668977E+03  0.00000000000E+00 0.  1.
         21    1    1    2  503  502 -0.20099120117E+02  0.63426661226E+02  0.38102348485E+03  0.38678910532E+03  0.00000000000E+00 0.  1.
         21    1    1    2  504  501 -0.37012675769E+02 -0.52643430147E+02  0.19027623451E+03  0.20086391991E+03  0.00000000000E+00 0.  1.
         21    1    1    2  505  503  0.63259402943E+02  0.45430997142E+02  0.74436919750E+01  0.78237689844E+02  0.00000000000E+00 0.  1.
         -4    1    1    2    0  505 -0.61476070567E+01 -0.56214228221E+02 -0.39386360778E+03  0.39790246803E+03  0.00000000000E+00 0.  1.
<scales pt_clust_3="14000.00000" pt_clust_4="59.62487" pt_clust_5="58.26587" pt_clust_6="56.54938"></scales>
<clustering>
<clus scale="   56.549">  2  6  1 -1</clus>
<clus scale="   58.266">  2  5  1 -1</clus>
<clus scale="   59.625">  2  4  1 -1</clus>
<clus scale="   59.625">  1  3  2 -1</clus>
</clustering>
</event>
<event>
 6    0  0.1361744E+002  0.1954496E+03  0.7546771E-02  0.1153636E+00
          2   -1    0    0  503    0 -0.00000000000E+00  0.00000000000E+00  0.17131904306E+04  0.17131904306E+04  0.00000000000E+00 0.  1.
         21   -1    0    0  505  502  0.00000000000E+00 -0.00000000000E+00 -0.55468793623E+02  0.55468793623E+02  0.00000000000E+00 0. -1.
         21    1    1    2  503  504 -0.31975257741E+02  0.16060769057E+02  0.13623468292E+03  0.14085543738E+03  0.00000000000E+00 0.  1.
         21    1    1    2  504  502  0.29804089975E+02 -0.10214983285E+02  0.56893857134E+02  0.65034918638E+02  0.00000000000E+00 0. -1.
         21    1    1    2  505  501  0.34602670643E+02 -0.18211282722E+03  0.15692040243E+03  0.24287124027E+03  0.00000000000E+00 0. -1.
          2    1    1    2  501    0 -0.32431502877E+02  0.17626704145E+03  0.13076726945E+04  0.13198976279E+04  0.00000000000E+00 0.  1.
<scales pt_clust_3="34.37945" pt_clust_4="31.50603" pt_clust_5="14000.00000" pt_clust_6="195.44958"></scales>
<clustering>
<clus scale="   31.506">  2  4  1 -1</clus>
<clus scale="   34.379">  1  3  2 -1</clus>
<clus scale="  195.450">  1  6  2 -1</clus>
<clus scale="   31.506">  2  3  1 -1</clus>
</clustering>
</event>
<event>
 6    0  0.1361744E+002  0.1220157E+03  0.7546771E-02  0.1239808E+00
          1   -1    0    0  504    0 -0.00000000000E+00  0.00000000000E+00  0.58047711282E+03  0.58047711282E+03  0.00000000000E+00 0. -1.
         21   -1    0    0  503  502  0.00000000000E+00 -0.00000000000E+00 -0.10451908411E+03  0.10451908411E+03  0.00000000000E+00 0.  1.
         21    1    1    2  503  501  0.25841585228E+02  0.49227318604E+02  0.36773877378E+03  0.37191789708E+03  0.00000000000E+00 0. -1.
         21    1    1    2  504  505  0.17579298402E+02 -0.85561973787E+02 -0.21676580961E+02  0.89998651395E+02  0.00000000000E+00 0.  1.
         21    1    1    2  505  502 -0.55633932522E+02 -0.20600814589E+02 -0.19731432752E+02  0.62520856105E+02  0.00000000000E+00 0.  1.
          1    1    1    2  501    0  0.12213048892E+02  0.56935469773E+02  0.14962726864E+03  0.16055879235E+03  0.00000000000E+00 0. -1.
<scales pt_clust_3="54.79880" pt_clust_4="108.36385" pt_clust_5="59.32561" pt_clust_6="54.79880"></scales>
<clustering>
<clus scale="   54.799">  3  6 -1 -1</clus>
<clus scale="   59.326">  2  5  1 -1</clus>
<clus scale="  108.364">  2  4  1 -1</clus>
<clus scale="   59.326">  2  3  1 -1</clus>
</clustering>
</event>
<event>
 6    0  0.1361744E+002  0.1054832E+03  0.7546771E-02  0.1269170E+00
          2   -1    0    0  505    0 -0.00000000000E+00  0.00000000000E+00  0.46274941187E+03  0.46274941187E+03  0.00000000000E+00 0.  1.
         21   -1    0    0  503  502  0.00000000000E+00 -0.00000000000E+00 -0.22967964668E+03  0.22967964668E+03  0.00000000000E+00 0.  1.
         21    1    1    2  503  501  0.13857875548E+03 -0.26784518853E+02 -0.17312342314E+03  0.22336786152E+03  0.00000000000E+00 0.  1.
         21    1    1    2  504  502 -0.31985243639E+02  0.12049071636E+02 -0.96025123408E+01  0.35502734841E+02  0.00000000000E+00 0. -1.
         21    1    1    2  505  504 -0.41612406973E+02  0.22222941709E+02  0.93900381902E+02  0.10508441023E+03  0.00000000000E+00 0. -1.
          2    1    1    2  501    0 -0.64981104865E+02 -0.74874944918E+01  0.32189531877E+03  0.32847405196E+03  0.00000000000E+00 0.  1.
<scales pt_clust_3="105.48322" pt_clust_4="34.17947" pt_clust_5="48.08980" pt_clust_6="14000.00000"></scales>
<clustering>
<clus scale="   34.179">  2  4  1 -1</clus>
<clus scale="   48.090">  1  5  2 -1</clus>
<clus scale="  105.483">  2  3  1 -1</clus>
<clus scale="   34.179">  2  3  1 -1</clus>
</clustering>
</event>
<event>
 6    0  0.1361744E+002  0.1043027E+03  0.7546771E-02  0.1271500E+00
         21   -1    0    0  505  502  0.00000000000E+00  0.00000000000E+00  0.27159961690E+03  0.27159961690E+03  0.00000000000E+00 0. -1.
          2   -1    0    0  504    0 -0.00000000000E+00 -0.00000000000E+00 -0.49410036546E+03  0.49410036546E+03  0.00000000000E+00 0. -1.
         21    1    1    2  503  501 -0.19976507919E+02  0.66796076724E+02  0.38362541578E+02  0.79576763761E+02  0.00000000000E+00 0. -1.
         21    1    1    2  504  502 -0.47408502031E+02 -0.64785878086E+01 -0.92667402787E+02  0.10429182952E+03  0.00000000000E+00 0. -1.
         21    1    1    2  505  503  0.41422401459E+02  0.46645185385E+02  0.19373652382E+03  0.20353237906E+03  0.00000000000E+00 0. -1.
          2    1    1    2  501    0  0.25962608491E+02 -0.10696267430E+03 -0.36193241117E+03  0.37829901003E+03  0.00000000000E+00 0. -1.
<scales pt_clust_3="104.30272" pt_clust_4="47.84912" pt_clust_5="61.93410" pt_clust_6="14000.00000"></scales>
<clustering>
<clus scale="   47.849">  2  4  1 -1</clus>
<clus scale="   61.934">  1  5  2 -1</clus>
<clus scale="  104.303">  1  3  2 -1</clus>
<clus scale="   61.934">  1  3  2 -1</clus>
</clustering>
</event>
<event>
 6    0  0.1361744E+002  0.8390510E+02  0.7546771E-02  0.1318321E+00
          2   -1    0    0  503    0 -0.00000000000E+00  0.00000000000E+00  0.40903519300E+04  0.40903519300E+04  0.00000000000E+00 0. -1.
         21   -1    0    0  504  502  0.00000000000E+00 -0.00000000000E+00 -0.37366292293E+03  0.37366292293E+03  0.00000000000E+00 0.  1.
         21    1    1    2  503  505 -0.56564526700E+01 -0.64684253572E+02  0.79934574283E+03  0.80197859367E+03  0.00000000000E+00 0. -1.
         21    1    1    2  504  501 -0.48009427128E+02  0.27632616563E+02 -0.35619820543E+03  0.36047971946E+03  0.00000000000E+00 0.  1.
         21    1    1    2  505  502  0.55678539274E+01 -0.46852818389E+02  0.28599228534E+02  0.55173394504E+02  0.00000000000E+00 0. -1.
          2    1    1    2  501    0  0.48098025871E+02  0.83904455399E+02  0.32449422411E+04  0.32463831452E+04  0.00000000000E+00 0. -1.
<scales pt_clust_3="14000.00000" pt_clust_4="46.51092" pt_clust_5="47.18249" pt_clust_6="83.90510"></scales>
<clustering>
<clus scale="   47.182">  2  5  1 -1</clus>
<clus scale="   46.511">  2  4  1 -1</clus>
<clus scale="   83.905">  1  6  2 -1</clus>
<clus scale="   47.182">  2  3  1 -1</clus>
</clustering>
</event>
<event>
 6    0  0.1361744E+002  0.1314501E+03  0.7546771E-02  0.1225320E+00
         21   -1    0    0  503  502  0.00000000000E+00  0.00000000000E+00  0.59770478794E+03  0.59770478794E+03  0.00000000000E+00 0.  1.
          2   -1    0    0  505    0 -0.00000000000E+00 -0.00000000000E+00 -0.98738799198E+03  0.98738799198E+03  0.00000000000E+00 0.  1.
         21    1    1    2  503  501 -0.69978208137E+02  0.15987817758E+01  0.44793116440E+03  0.45336721734E+03  0.00000000000E+00 0.  1.
         21    1    1    2  504  502  0.32224022390E+02 -0.66894433363E+01  0.65631730444E+02  0.73421116255E+02  0.00000000000E+00 0. -1.
         21    1    1    2  505  504 -0.80608017931E+02 -0.56923103501E+02  0.39384571702E+02  0.10624987885E+03  0.00000000000E+00 0. -1.
          2    1    1    2  501    0  0.11836220368E+03  0.62013765061E+02 -0.94263067059E+03  0.95205456748E+03  0.00000000000E+00 0.  1.
<scales pt_clust_3="42.68244" pt_clust_4="32.91104" pt_clust_5="131.45009" pt_clust_6="14000.00000"></scales>
<clustering>
<clus scale="   32.911">  1  4  2 -1</clus>
<clus scale="   42.682">  1  3  2 -1</clus>
<clus scale="  131.450">  1  5  2 -1</clus>
<clus scale="   32.911">  1  3  2 -1</clus>
</clustering>
</event>
<event>
 6    0  0.1361744E+002  0.1042535E+03  0.7546771E-02  0.1271598E+00
         21   -1    0    0  504  502  0.00000000000E+00  0.00000000000E+00  0.10438179907E+04  0.10438179907E+04  0.00000000000E+00 0. -1.
          2   -1    0    0  505    0 -0.00000000000E+00 -0.00000000000E+00 -0.24718081124E+04  0.24718081124E+04  0.00000000000E+00 0.  1.
         21    1    1    2  503  502 -0.56491615975E+02 -0.28430734287E+02  0.13753488899E+03  0.15137851571E+03  0.00000000000E+00 0. -1.
         21    1    1    2  504  501  0.34388731335E+02 -0.73363447688E+02  0.89111047188E+03  0.89478637305E+03  0.00000000000E+00 0. -1.
         21    1    1    2  505  503 -0.72825126735E+02 -0.37126265899E+02 -0.92821565354E+03  0.93180800500E+03  0.00000000000E+00 0. -1.
          2    1    1    2  501    0  0.94928011375E+02  0.13892044787E+03 -0.15284198291E+04  0.15376532093E+04  0.00000000000E+00 0.  1.
<scales pt_clust_3="63.24246" pt_clust_4="104.25346" pt_clust_5="81.86894" pt_clust_6="14000.00000"></scales>
<clustering>
<clus scale="   63.242">  1  3  2 -1</clus>
<clus scale="   81.869">  2  5  1 -1</clus>
<clus scale="  104.253">  1  4  2 -1</clus>
<clus scale="   63.242">  1  3  2 -1</clus>
</clustering>
</event>
<event>
 6    0  0.1361744E+002  0.2845692E+03  0.7546771E-02  0.1093219E+00
         21   -1    0    0  503  502  0.00000000000E+00  0.00000000000E+00  0.81727143968E+02  0.81727143968E+02  0.00000000000E+00 0.  1.
          1   -1    0    0  504    0 -0.00000000000E+00 -0.00000000000E+00 -0.10121594738E+04  0.10121594738E+04  0.00000000000E+00 0.  1.
         21    1    1    2  503  501 -0.15242259600E+02 -0.86690130553E+02 -0.15116695670E+03  0.17492556706E+03  0.00000000000E+00 0.  1.
         21    1    1    2  504  505  0.66442960376E+02  0.13254532397E+03 -0.22824784033E+03  0.27217642533E+03  0.00000000000E+00 0.  1.
         21    1    1    2  505  502  0.74449772757E+02  0.10084292688E+03 -0.33139207112E+03  0.35430603913E+03  0.00000000000E+00 0.  1.
          1    1    1    2  501    0 -0.12565047353E+03 -0.14669812030E+03 -0.21962546173E+03  0.29247858629E+03  0.00000000000E+00 0.  1.
<scales pt_clust_3="55.08539" pt_clust_4="281.57317" pt_clust_5="64.77270" pt_clust_6="55.08539"></scales>
<clustering>
<clus scale="   55.085">  3  6 -1 -1</clus>
<clus scale="   64.773">  4  5 -1 -1</clus>
<clus scale="  281.573">  2  4  1 -1</clus>
<clus scale="  284.569">  1  3  2 -1</clus>
</clustering>
</event>
<event>
 6    0  0.1361744E+002  0.1267948E+03  0.7546771E-02  0.1232291E+00
         21   -1    0    0  504  502  0.00000000000E+00  0.00000000000E+00  0.64350195295E+02  0.64350195295E+02  0.00000000000E+00 0.  1.
         -4   -1    0    0    0  501 -0.00000000000E+00 -0.00000000000E+00 -0.84465040717E+03  0.84465040717E+03  0.00000000000E+00 0. -1.
         21    1    1    2  503  505  0.66113836875E+02 -0.10886016515E+02 -0.45978336433E+02  0.81262243404E+02  0.00000000000E+00 0.  1.
         21    1    1    2  504  503  0.60831988481E+02 -0.32308973999E+02  0.51756968726E+01  0.69073789975E+02  0.00000000000E+00 0.  1.
         21    1    1    2  505  501 -0.55690423346E+02  0.13455072503E+02 -0.56437592544E+03  0.56727651762E+03  0.00000000000E+00 0. -1.
         -4    1    1    2    0  502 -0.71255402010E+02  0.29739918011E+02 -0.17512164687E+03  0.19138805146E+03  0.00000000000E+00 0. -1.
<scales pt_clust_3="53.61487" pt_clust_4="53.61487" pt_clust_5="57.29278" pt_clust_6="114.55083"></scales>
<clustering>
<clus scale="   53.615">  3  4 -1 -1</clus>
<clus scale="   57.293">  2  5  1 -1</clus>
<clus scale="  114.551">  2  6  1 -1</clus>
<clus scale="  126.795">  1  3  2 -1</clus>
</clustering>
</event>
<event>
 6    0  0.1361744E+002  0.1169502E+03  0.7546771E-02  0.1248215E+00
         21   -1    0    0  503  502  0.00000000000E+00  0.00000000000E+00  0.10721324912E+02  0.10721324912E+02  0.00000000000E+00 0.  1.
          1   -1    0    0  505    0 -0.00000000000E+00 -0.00000000000E+00 -0.50459521731E+04  0.50459521731E+04  0.00000000000E+00 0.  1.
         21    1    1    2  503  501  0.15935326311E+02 -0.57552984373E+02 -0.54212622908E+03  0.54540547200E+03  0.00000000000E+00 0.  1.
         21    1    1    2  504  502 -0.53189887279E+02  0.13532452503E+02 -0.12834382459E+03  0.13958663507E+03  0.00000000000E+00 0.  1.
         21    1    1    2  505  504  0.13338524749E+03  0.63616566169E+02 -0.26143488384E+04  0.26185222055E+04  0.00000000000E+00 0.  1.
          1    1    1    2  501    0 -0.96130686519E+02 -0.19596034299E+02 -0.17504119562E+04  0.17531591855E+04  0.00000000000E+00 0.  1.
<scales pt_clust_3="53.21507" pt_clust_4="54.88435" pt_clust_5="14000.00000" pt_clust_6="116.95019"></scales>
<clustering>
<clus scale="   54.884">  1  4  2 -1</clus>
<clus scale="   53.215">  1  3  2 -1</clus>
<clus scale="  116.950">  2  6  1 -1</clus>
<clus scale="   54.884">  1  3  2 -1</clus>
</clustering>
</event>
<event>
 6    0  0.1361744E+002  0.1329850E+03  0.7546771E-02  0.1223093E+00
         21   -1    0    0  504  502  0.00000000000E+00  0.00000000000E+00  0.38479286799E+03  0.38479286799E+03  0.00000000000E+00 0. -1.
          2   -1    0    0  503    0 -0.00000000000E+00 -0.00000000000E+00 -0.98419656737E+03  0.98419656737E+03  0.00000000000E+00 0.  1.
         21    1    1    2  503  502 -0.31932215241E+02  0.64092538383E+02  0.32356046756E+03  0.33138934204E+03  0.00000000000E+00 0. -1.
         21    1    1    2  504  505 -0.69082803482E+02 -0.25018428257E+01  0.29960705478E+02  0.75341468178E+02  0.00000000000E+00 0. -1.
         21    1    1    2  505  501  0.44586633442E+02  0.58705955184E+01 -0.27507884080E+03  0.27873069516E+03  0.00000000000E+00 0. -1.
          2    1    1    2  501    0  0.56428385281E+02 -0.67461291076E+02 -0.67784603163E+03  0.68352792997E+03  0.00000000000E+00 0.  1.
<scales pt_clust_3="117.50156" pt_clust_4="69.12809" pt_clust_5="44.53250" pt_clust_6="44.53250"></scales>
<clustering>
<clus scale="   44.533">  5  6 -1 -1</clus>
<clus scale="   69.128">  1  4  2 -1</clus>
<clus scale="  117.502">  1  3  2 -1</clus>
<clus scale="   69.128">  1  3  2 -1</clus>
</clustering>
</event>
<event>
 6    0  0.1361744E+002  0.1136299E+03  0.7546771E-02  0.1253992E+00
         21   -1    0    0  503  502  0.00000000000E+00  0.00000000000E+00  0.58863492439E+02  0.58863492439E+02  0.00000000000E+00 0. -1.
          2   -1    0    0  504    0 -0.00000000000E+00 -0.00000000000E+00 -0.16994897158E+04  0.16994897158E+04  0.00000000000E+00 0. -1.
         21    1    1    2  503  505  0.36393442120E+02 -0.75437924001E+02 -0.88292531771E+02  0.12170018148E+03  0.00000000000E+00 0. -1.
         21    1    1    2  504  502  0.76292860242E+02 -0.33229441773E+02 -0.98275842402E+03  0.98627527410E+03  0.00000000000E+00 0. -1.
         21    1    1    2  505  501 -0.14503675694E+03  0.13431892671E+01 -0.12370081636E+03  0.19062884617E+03  0.00000000000E+00 0. -1.
          2    1    1    2  501    0  0.32350454583E+02  0.10732417651E+03 -0.44587445122E+03  0.45974890650E+03  0.00000000000E+00 0. -1.
<scales pt_clust_3="93.36194" pt_clust_4="83.21536" pt_clust_5="14000.00000" pt_clust_6="113.62986"></scales>
<clustering>
<clus scale="   83.215">  2  4  1 -1</clus>
<clus scale="   93.362">  1  3  2 -1</clus>
<clus scale="  113.630">  2  6  1 -1</clus>
<clus scale="   93.362">  1  3  2 -1</clus>
</clustering>
</event>
<event>
 6    0  0.1361744E+002  0.7884436E+02  0.7546771E-02  0.1332363E+00
          1   -1    0    0  504    0 -0.00000000000E+00  0.00000000000E+00  0.19028487336E+04  0.19028487336E+04  0.00000000000E+00 0.  1.
         21   -1    0    0  505  502  0.00000000000E+00 -0.00000000000E+00 -0.97665387239E+02  0.97665387239E+02  0.00000000000E+00 0.  1.
         21    1    1    2  503  502 -0.52094989510E+02 -0.13036902510E+03  0.63637092151E+01  0.14053635626E+03  0.00000000000E+00 0.  1.
         21    1    1    2  504  503  0.25645364352E+02  0.16315574108E+02  0.23322961591E+03  0.23520190562E+03  0.00000000000E+00 0.  1.
         21    1    1    2  505  501 -0.24950397269E+01  0.72751576917E+02  0.16212752490E+02  0.74577949224E+02  0.00000000000E+00 0.  1.
          1    1    1    2  501    0  0.28944664885E+02  0.41301874071E+02  0.15493772687E+04  0.15501979097E+04  0.00000000000E+00 0.  1.
<scales pt_clust_3="14000.00000" pt_clust_4="30.39544" pt_clust_5="73.21751" pt_clust_6="78.84436"></scales>
<clustering>
<clus scale="   30.395">  1  4  2 -1</clus>
<clus scale="   73.218">  2  5  1 -1</clus>
<clus scale="   78.844">  1  6  2 -1</clus>
<clus scale="   73.218">  2  3  1 -1</clus>
</clustering>
</event>
<event>
 6    0  0.1361744E+002  0.2553568E+03  0.7546771E-02  0.1109966E+00
         -2   -1    0    0    0  501 -0.00000000000E+00  0.00000000000E+00  0.28388167714E+03  0.28388167714E+03  0.00000000000E+00 0.  1.
         21   -1    0    0  505  502  0.00000000000E+00 -0.00000000000E+00 -0.58377623000E+03  0.58377623000E+03  0.00000000000E+00 0. -1.
         21    1    1    2  503  504 -0.81358551699E+02  0.19838358420E+03 -0.31786857920E+03  0.38342625635E+03  0.00000000000E+00 0. -1.
         21    1    1    2  504  501  0.38099808529E+02 -0.82167911060E+01  0.15787762994E+02  0.42051926548E+02  0.00000000000E+00 0.  1.
         21    1    1    2  505  503  0.67121161075E+02  0.74369085248E+02 -0.11443926974E+03  0.15209325285E+03  0.00000000000E+00 0. -1.
         -2    1    1    2    0  502 -0.23862417905E+02 -0.26453587835E+03  0.11662553308E+03  0.29008647140E+03  0.00000000000E+00 0.  1.
<scales pt_clust_3="14000.00000" pt_clust_4="38.97578" pt_clust_5="101.64508" pt_clust_6="255.35675"></scales>
<clustering>
<clus scale="   38.976">  1  4  2 -1</clus>
<clus scale="  101.645">  2  5  1 -1</clus>
<clus scale="  255.357">  1  6  2 -1</clus>
<clus scale="  101.645">  2  3  1 -1</clus>
</clustering>
</event>
<event>
 6    0  0.1361744E+002  0.6742811E+02  0.7546771E-02  0.1369064E+00
         21   -1    0    0  504  502  0.00000000000E+00  0.00000000000E+00  0.20087016911E+03  0.20087016911E+03  0.00000000000E+00 0.  1.
          2   -1    0    0  505    0 -0.00000000000E+00 -0.00000000000E+00 -0.15078210956E+04  0.15078210956E+04  0.00000000000E+00 0.  1.
         21    1    1    2  503  501  0.35169683800E+02 -0.75447859487E+02 -0.10377554654E+04  0.10410887052E+04  0.00000000000E+00 0.  1.
         21    1    1    2  504  503  0.27630286930E+02 -0.12673605424E+02  0.95599592663E+01  0.31866061122E+02  0.00000000000E+00 0. -1.
         21    1    1    2  505  502 -0.32253678306E+00  0.74534383587E+02  0.16833457087E+03  0.18409781671E+03  0.00000000000E+00 0.  1.
          2    1    1    2  501    0 -0.62477433946E+02  0.13587081323E+02 -0.44708999123E+03  0.45163868168E+03  0.00000000000E+00 0.  1.
<scales pt_clust_3="67.42811" pt_clust_4="30.39824" pt_clust_5="14000.00000" pt_clust_6="63.56298"></scales>
<clustering>
<clus scale="   30.398">  1  4  2 -1</clus>
<clus scale="   63.563">  2  6  1 -1</clus>
<clus scale="   67.428">  2  3  1 -1</clus>
<clus scale="   30.398">  1  3  2 -1</clus>
</clustering>
</event>
<event>
 6    0  0.1361744E+002  0.6179832E+02  0.7546771E-02  0.1390436E+00
         -2   -1    0    0    0  501 -0.00000000000E+00  0.00000000000E+00  0.12888217159E+03  0.12888217159E+03  0.00000000000E+00 0.  1.
         21   -1    0    0  503  502  0.00000000000E+00 -0.00000000000E+00 -0.15389507230E+04  0.15389507230E+04  0.00000000000E+00 0.  1.
         21    1    1    2  503  505 -0.28500212313E+02 -0.40008288602E+02 -0.89380606142E+03  0.89515484732E+03  0.00000000000E+00 0.  1.
         21    1    1    2  504  502  0.54320076514E+02  0.94635914085E+02 -0.60914149704E+03  0.61883761228E+03  0.00000000000E+00 0.  1.
         21    1    1    2  505  501  0.30746983534E+02 -0.44189812944E+02  0.12958297681E+02  0.55371780206E+02  0.00000000000E+00 0.  1.
         -2    1    1    2    0  504 -0.56566847734E+02 -0.10437812539E+02  0.79920709362E+02  0.98468654800E+02  0.00000000000E+00 0.  1.
<scales pt_clust_3="49.12154" pt_clust_4="61.79832" pt_clust_5="54.40047" pt_clust_6="14000.00000"></scales>
<clustering>
<clus scale="   49.122">  2  3  1 -1</clus>
<clus scale="   54.400">  1  5  2 -1</clus>
<clus scale="   61.798">  2  4  1 -1</clus>
<clus scale="   49.122">  2  3  1 -1</clus>
</clustering>
</event>
<event>
 6    0  0.1361744E+002  0.1115510E+03  0.7546771E-02  0.1257724E+00
          2   -1    0    0  503    0 -0.00000000000E+00  0.00000000000E+00  0.20405227539E+04  0.20405227539E+04  0.00000000000E+00 0. -1.
         21   -1    0    0  504  502  0.00000000000E+00 -0.00000000000E+00 -0.17140895499E+03  0.17140895499E+03  0.00000000000E+00 0.  1.
         21    1    1    2  503  505 -0.59366802392E+02 -0.15256386296E+03  0.82599169863E+03  0.84205845148E+03  0.00000000000E+00 0. -1.
         21    1    1    2  504  501  0.93632957430E+02  0.56462418366E+02 -0.11259644730E+03  0.15694934008E+03  0.00000000000E+00 0.  1.
         21    1    1    2  505  502 -0.30021468592E+02 -0.40644817629E+01 -0.17795389025E+02  0.35135231022E+02  0.00000000000E+00 0.  1.
          2    1    1    2  501    0 -0.42446864466E+01  0.10016592636E+03  0.11735139366E+04  0.11777886863E+04  0.00000000000E+00 0. -1.
<scales pt_clust_3="14000.00000" pt_clust_4="84.22816" pt_clust_5="30.29536" pt_clust_6="111.55101"></scales>
<clustering>
<clus scale="   30.295">  2  5  1 -1</clus>
<clus scale="   84.228">  2  4  1 -1</clus>
<clus scale="  111.551">  1  6  2 -1</clus>
<clus scale="   30.295">  2  3  1 -1</clus>
</clustering>
</event>
<event>
 6    0  0.1361744E+002  0.1447647E+03  0.7546771E-02  0.1207058E+00
          2   -1    0    0  503    0 -0.00000000000E+00  0.00000000000E+00  0.27145231936E+04  0.27145231936E+04  0.00000000000E+00 0.  1.
         21   -1    0    0  504  502  0.00000000000E+00 -0.00000000000E+00 -0.87536716605E+02  0.87536716605E+02  0.00000000000E+00 0.  1.
         21    1    1    2  503  505 -0.15697007701E+02 -0.63485821715E+02  0.38092753692E+03  0.38650049675E+03  0.00000000000E+00 0.  1.
         21    1    1    2  504  501  0.36390093632E+02  0.10449756155E+03  0.13356596536E+03  0.17344695554E+03  0.00000000000E+00 0.  1.
         21    1    1    2  505  502 -0.14354949689E+03  0.21507408828E+01  0.19281644134E+02  0.14485463591E+03  0.00000000000E+00 0.  1.
          2    1    1    2  501    0  0.12285641096E+03 -0.43162480721E+02  0.20932113306E+04  0.20972578220E+04  0.00000000000E+00 0.  1.
<scales pt_clust_3="65.39760" pt_clust_4="106.36469" pt_clust_5="14000.00000" pt_clust_6="144.76474"></scales>
<clustering>
<clus scale="   65.398">  1  3  2 -1</clus>
<clus scale="  106.365">  2  4  1 -1</clus>
<clus scale="  144.765">  1  6  2 -1</clus>
<clus scale="  106.365">  2  3  1 -1</clus>
</clustering>
</event>
<event>
 6    0  0.1361744E+002  0.1862248E+03  0.7546771E-02  0.1161911E+00
          2   -1    0    0  503    0 -0.00000000000E+00  0.00000000000E+00  0.16788400877E+04  0.16788400877E+04  0.00000000000E+00 0.  1.
         21   -1    0    0  504  502  0.00000000000E+00 -0.00000000000E+00 -0.36799899072E+03  0.36799899072E+03  0.00000000000E+00 0. -1.
         21    1    1    2  503  505 -0.45034091545E+02 -0.22640483194E+02  0.59749959713E+03  0.59962190541E+03  0.00000000000E+00 0.  1.
         21    1    1    2  504  501  0.18883401070E+03 -0.50368592049E+00 -0.23006243209E+03  0.29763612005E+03  0.00000000000E+00 0. -1.
         21    1    1    2  505  502 -0.57230080003E+02 -0.13613378936E+03 -0.37259717606E+02  0.15230225612E+03  0.00000000000E+00 0. -1.
          2    1    1    2  501    0 -0.86569839155E+02  0.15927795847E+03  0.98066364957E+03  0.99727879687E+03  0.00000000000E+00 0.  1.
<scales pt_clust_3="50.40497" pt_clust_4="14000.00000" pt_clust_5="149.72504" pt_clust_6="186.22485"></scales>
<clustering>
<clus scale="   50.405">  1  3  2 -1</clus>
<clus scale="  149.725">  2  5  1 -1</clus>
<clus scale="  186.225">  1  6  2 -1</clus>
<clus scale="  149.725">  2  3  1 -1</clus>
</clustering>
</event>
<event>
 6    0  0.1361744E+002  0.1105220E+03  0.7546771E-02  0.1259606E+00
         -2   -1    0    0    0  501 -0.00000000000E+00  0.00000000000E+00  0.10174806135E+03  0.10174806135E+03  0.00000000000E+00 0. -1.
         21   -1    0    0  503  502  0.00000000000E+00 -0.00000000000E+00 -0.93243033860E+03  0.93243033860E+03  0.00000000000E+00 0. -1.
         21    1    1    2  503  504 -0.77126961744E+02 -0.96900478128E+02 -0.73279372808E+03  0.74318565567E+03  0.00000000000E+00 0. -1.
         21    1    1    2  504  501  0.30339247318E+02 -0.14111602207E+02  0.24558322011E+02  0.41505643287E+02  0.00000000000E+00 0. -1.
         21    1    1    2  505  502  0.51743521538E+02  0.66903360812E+02 -0.16662539358E+03  0.18686217781E+03  0.00000000000E+00 0. -1.
         -2    1    1    2    0  505 -0.49558071113E+01  0.44108719524E+02  0.44178522398E+02  0.62624923181E+02  0.00000000000E+00 0. -1.
<scales pt_clust_3="14000.00000" pt_clust_4="33.46053" pt_clust_5="110.52201" pt_clust_6="38.01544"></scales>
<clustering>
<clus scale="   33.461">  1  4  2 -1</clus>
<clus scale="   38.015">  1  6  2 -1</clus>
<clus scale="  110.522">  1  5  2 -1</clus>
<clus scale="  110.522">  2  3  1 -1</clus>
</clustering>
</event>
<event>
 6    0  0.1361744E+002  0.1817474E+03  0.7546771E-02  0.1166122E+00
          2   -1    0    0  505    0 -0.00000000000E+00  0.00000000000E+00  0.26314957982E+03  0.26314957982E+03  0.00000000000E+00 0. -1.
         21   -1    0    0  504  502  0.00000000000E+00 -0.00000000000E+00 -0.43814874646E+03  0.43814874646E+03  0.00000000000E+00 0. -1.
         21    1    1    2  503  502  0.49995225433E+02  0.85226660120E+02 -0.28440413032E+03  0.30107941728E+03  0.00000000000E+00 0. -1.
         21    1    1    2  504  501 -0.53773766953E+02 -0.35542696202E+02  0.74082960330E+02  0.98199726461E+02  0.00000000000E+00 0. -1.
         21    1    1    2  505  503  0.36381484715E+02  0.62982529872E+02 -0.99544085198E+02  0.12328599433E+03  0.00000000000E+00 0. -1.
          2    1    1    2  501    0 -0.32602943196E+02 -0.11266649379E+03  0.13486608855E+03  0.17873318822E+03  0.00000000000E+00 0. -1.
<scales pt_clust_3="180.74781" pt_clust_4="44.51213" pt_clust_5="48.85850" pt_clust_6="44.51213"></scales>
<clustering>
<clus scale="   44.512">  4  6 -1 -1</clus>
<clus scale="   48.859">  3  5 -1 -1</clus>
<clus scale="  180.748">  2  3  1 -1</clus>
<clus scale="  180.748">  2  3  1 -1</clus>
</clustering>
</event>
<event>
 6    0  0.1361744E+002  0.1419485E+03  0.7546771E-02  0.1210731E+00
         21   -1    0    0  505  502  0.00000000000E+00  0.00000000000E+00  0.41569071140E+02  0.41569071140E+02  0.00000000000E+00 0. -1.
          1   -1    0    0  503    0 -0.00000000000E+00 -0.00000000000E+00 -0.17203271839E+04  0.17203271839E+04  0.00000000000E+00 0. -1.
         21    1    1    2  503  502 -0.12582405096E+02 -0.53023534765E+02 -0.14849710020E+03  0.15818091201E+03  0.00000000000E+00 0.  1.
         21    1    1    2  504  501 -0.20261699468E+02  0.48350750223E+02 -0.34857883416E+03  0.35249898601E+03  0.00000000000E+00 0. -1.
         21    1    1    2  505  504  0.50790594041E+02 -0.79333345757E+02 -0.33731870768E+02  0.10005650053E+03  0.00000000000E+00 0. -1.
          1    1    1    2  501    0 -0.17946489477E+02  0.84006130299E+02 -0.11479503076E+04  0.11511598565E+04  0.00000000000E+00 0. -1.
<scales pt_clust_3="54.49598" pt_clust_4="38.36860" pt_clust_5="133.18083" pt_clust_6="38.36860"></scales>
<clustering>
<clus scale="   38.369">  4  6 -1 -1</clus>
<clus scale="   54.496">  1  3  2 -1</clus>
<clus scale="  133.181">  1  5  2 -1</clus>
<clus scale="   54.496">  1  3  2 -1</clus>
</clustering>
</event>
<event>
 6    0  0.1361744E+002  0.8710411E+02  0.7546771E-02  0.1310020E+00
         -3   -1    0    0    0  501 -0.00000000000E+00  0.00000000000E+00  0.27612237141E+04  0.27612237141E+04  0.00000000000E+00 0.  1.
         21   -1    0    0  504  502  0.00000000000E+00 -0.00000000000E+00 -0.64561860971E+03  0.64561860971E+03  0.00000000000E+00 0. -1.
         21    1    1    2  503  501 -0.79945666492E+02 -0.35196465175E+02 -0.21756854970E+03  0.23444866084E+03  0.00000000000E+00 0. -1.
         21    1    1    2  504  503  0.91654258259E+02 -0.24718983279E+02 -0.41290952853E+03  0.42368125984E+03  0.00000000000E+00 0. -1.
         21    1    1    2  505  502  0.26679325423E+02  0.38556448801E+02  0.49854727674E+03  0.50074721496E+03  0.00000000000E+00 0. -1.
         -3    1    1    2    0  505 -0.38387917190E+02  0.21358999653E+02  0.22475359058E+04  0.22479651881E+04  0.00000000000E+00 0.  1.
<scales pt_clust_3="87.10411" pt_clust_4="14000.00000" pt_clust_5="60.29286" pt_clust_6="43.92993"></scales>
<clustering>
<clus scale="   43.930">  1  6  2 -1</clus>
<clus scale="   60.293">  1  5  2 -1</clus>
<clus scale="   87.104">  1  3  2 -1</clus>
<clus scale="   87.104">  2  3  1 -1</clus>
</clustering>
</event>
<event>
 6    0  0.1361744E+002  0.1128494E+03  0.7546771E-02  0.1255382E+00
         21   -1    0    0  504  502  0.00000000000E+00  0.00000000000E+00  0.31839469816E+02  0.31839469816E+02  0.00000000000E+00 0.  1.
          1   -1    0    0  502    0 -0.00000000000E+00 -0.00000000000E+00 -0.28176861552E+04  0.28176861552E+04  0.00000000000E+00 0. -1.
         21    1    1    2  503  505 -0.89293775292E+02  0.21612788078E+02 -0.39440022520E+03  0.40495929246E+03  0.00000000000E+00 0.  1.
         21    1    1    2  504  503 -0.62832244837E+02  0.38534731302E+02 -0.37172342316E+02  0.82550587769E+02  0.00000000000E+00 0.  1.
         21    1    1    2  505  501  0.76028533330E+02 -0.80369185899E+02 -0.15272755224E+04  0.15312772659E+04  0.00000000000E+00 0. -1.
          1    1    1    2  501    0  0.76097486799E+02  0.20221666519E+02 -0.82699859549E+03  0.83073847884E+03  0.00000000000E+00 0. -1.
<scales pt_clust_3="112.84938" pt_clust_4="73.70764" pt_clust_5="14000.00000" pt_clust_6="69.21629"></scales>
<clustering>
<clus scale="   73.708">  1  4  2 -1</clus>
<clus scale="   69.216">  2  6  1 -1</clus>
<clus scale="  112.849">  1  3  2 -1</clus>
<clus scale="   73.708">  1  3  2 -1</clus>
</clustering>
</event>
<event>
 6    0  0.1361744E+002  0.8534394E+02  0.7546771E-02  0.1314536E+00
         21   -1    0    0  503  502  0.00000000000E+00  0.00000000000E+00  0.91976831777E+02  0.91976831777E+02  0.00000000000E+00 0.  1.
          2   -1    0    0  504    0 -0.00000000000E+00 -0.00000000000E+00 -0.10735114223E+04  0.10735114223E+04  0.00000000000E+00 0.  1.
         21    1    1    2  503  505 -0.46023566987E+02 -0.30869872198E+02  0.54802866078E+02  0.77938898235E+02  0.00000000000E+00 0.  1.
         21    1    1    2  504  502  0.14421135694E+02  0.43838922614E+02 -0.11170780722E+02  0.47482698245E+02  0.00000000000E+00 0.  1.
         21    1    1    2  505  501 -0.49683488462E+02  0.44951405124E+02 -0.26335143843E+03  0.27174079188E+03  0.00000000000E+00 0.  1.
          2    1    1    2  501    0  0.81285919755E+02 -0.57920455540E+02 -0.76181523745E+03  0.76832586571E+03  0.00000000000E+00 0.  1.
<scales pt_clust_3="34.14430" pt_clust_4="46.14998" pt_clust_5="85.34394" pt_clust_6="14000.00000"></scales>
<clustering>
<clus scale="   46.150">  1  4  2 -1</clus>
<clus scale="   34.144">  1  3  2 -1</clus>
<clus scale="   85.344">  1  5  2 -1</clus>
<clus scale="   46.150">  1  3  2 -1</clus>
</clustering>
</event>
<event>
 6    0  0.1361744E+002  0.8476608E+02  0.7546771E-02  0.1316045E+00
          2   -1    0    0  505    0 -0.00000000000E+00  0.00000000000E+00  0.19607703075E+04  0.19607703075E+04  0.00000000000E+00 0.  1.
         21   -1    0    0  504  502  0.00000000000E+00 -0.00000000000E+00 -0.20777720281E+02  0.20777720281E+02  0.00000000000E+00 0.  1.
         21    1    1    2  503  501 -0.73193191033E+02 -0.14940406321E+02  0.25655316543E+03  0.26720775746E+03  0.00000000000E+00 0.  1.
         21    1    1    2  504  503  0.71568333373E+02  0.63143317150E+02  0.15275059382E+03  0.18011620902E+03  0.00000000000E+00 0.  1.
         21    1    1    2  505  502  0.32889123362E+02 -0.85913442999E+00  0.23479297483E+03  0.23708684817E+03  0.00000000000E+00 0.  1.
          2    1    1    2  501    0 -0.31264265702E+02 -0.47343776399E+02  0.12958958532E+04  0.12971372132E+04  0.00000000000E+00 0.  1.
<scales pt_clust_3="84.76608" pt_clust_4="14000.00000" pt_clust_5="32.90034" pt_clust_6="48.43346"></scales>
<clustering>
<clus scale="   32.900">  1  5  2 -1</clus>
<clus scale="   48.433">  1  6  2 -1</clus>
<clus scale="   84.766">  1  3  2 -1</clus>
<clus scale="   84.766">  2  3  1 -1</clus>
</clustering>
</event>
<event>
 6    0  0.1361744E+002  0.1706936E+03  0.7546771E-02  0.1177126E+00
         21   -1    0    0  503  502  0.00000000000E+00  0.00000000000E+00  0.40900538755E+03  0.40900538755E+03  0.00000000000E+00 0.  1.
          2   -1    0    0  505    0 -0.00000000000E+00 -0.00000000000E+00 -0.10299647581E+04  0.10299647581E+04  0.00000000000E+00 0.  1.
         21    1    1    2  503  501  0.11876347947E+03  0.59748701959E+02  0.81015070765E+02  0.15568594392E+03  0.00000000000E+00 0.  1.
         21    1    1    2  504  502 -0.13457137397E+03 -0.18497383651E+03  0.23343391139E+03  0.32682742521E+03  0.00000000000E+00 0.  1.
         21    1    1    2  505  504 -0.22791758500E+02  0.21963363131E+02 -0.27647832943E+02  0.42026851441E+02  0.00000000000E+00 0. -1.
          2    1    1    2  501    0  0.38599652993E+02  0.10326177142E+03 -0.90776051979E+03  0.91442992511E+03  0.00000000000E+00 0.  1.
<scales pt_clust_3="14000.00000" pt_clust_4="170.69360" pt_clust_5="31.65207" pt_clust_6="124.63833"></scales>
<clustering>
<clus scale="   31.652">  2  5  1 -1</clus>
<clus scale="  124.638">  2  6  1 -1</clus>
<clus scale="  170.694">  2  4  1 -1</clus>
<clus scale="  170.694">  1  3  2 -1</clus>
</clustering>
</event>
<event>
 6    0  0.1361744E+002  0.1260302E+03  0.7546771E-02  0.1233468E+00
         21   -1    0    0  503  502  0.00000000000E+00  0.00000000000E+00  0.11610150933E+03  0.11610150933E+03  0.00000000000E+00 0. -1.
          2   -1    0    0  505    0 -0.00000000000E+00 -0.00000000000E+00 -0.29105341922E+04  0.29105341922E+04  0.00000000000E+00 0. -1.
         21    1    1    2  503  504  0.75667130390E+02 -0.11247808258E+02  0.53904512864E+02  0.93582713783E+02  0.00000000000E+00 0. -1.
         21    1    1    2  504  501  0.36720961461E+02 -0.33553081378E+02  0.23553524511E+02  0.55036413377E+02  0.00000000000E+00 0.  1.
         21    1    1    2  505  502 -0.48947057623E+02 -0.42543184743E+02 -0.16787470715E+04  0.16799992462E+04  0.00000000000E+00 0. -1.
          2    1    1    2  501    0 -0.63441034227E+02  0.87344074379E+02 -0.11931436487E+04  0.11980173282E+04  0.00000000000E+00 0. -1.
<scales pt_clust_3="30.70238" pt_clust_4="30.70238" pt_clust_5="64.85165" pt_clust_6="120.14125"></scales>
<clustering>
<clus scale="   30.702">  3  4 -1 -1</clus>
<clus scale="   64.852">  2  5  1 -1</clus>
<clus scale="  120.141">  2  6  1 -1</clus>
<clus scale="  126.030">  1  3  2 -1</clus>
</clustering>
</event>
<event>
 6    0  0.1361744E+002  0.1973379E+03  0.7546771E-02  0.1152005E+00
         -2   -1    0    0    0  501 -0.00000000000E+00  0.00000000000E+00  0.37000312572E+03  0.37000312572E+03  0.00000000000E+00 0. -1.
         21   -1    0    0  504  502  0.00000000000E+00 -0.00000000000E+00 -0.80914255317E+03  0.80914255317E+03  0.00000000000E+00 0.  1.
         21    1    1    2  503  501  0.40344638722E+02 -0.17723402676E+02 -0.23951249082E+02  0.50154473466E+02  0.00000000000E+00 0. -1.
         21    1    1    2  504  503  0.75606557466E+02  0.11305253723E+02 -0.13134336243E+03  0.15197117868E+03  0.00000000000E+00 0.  1.
         21    1    1    2  505  502 -0.57350849994E+02  0.19617523970E+03 -0.58308742814E+03  0.61787117874E+03  0.00000000000E+00 0.  1.
         -2    1    1    2    0  505 -0.58600346194E+02 -0.18975709075E+03  0.29924261220E+03  0.35914884800E+03  0.00000000000E+00 0. -1.
<scales pt_clust_3="43.29912" pt_clust_4="129.37683" pt_clust_5="197.33793" pt_clust_6="14000.00000"></scales>
<clustering>
<clus scale="   43.299">  3  4 -1 -1</clus>
<clus scale="  129.377">  2  3  1 -1</clus>
<clus scale="  197.338">  2  5  1 -1</clus>
<clus scale="  129.377">  2  3  1 -1</clus>
</clustering>
</event>
<event>
 6    0  0.1361744E+002  0.1584858E+03  0.7546771E-02  0.1190417E+00
         21   -1    0    0  504  502  0.00000000000E+00  0.00000000000E+00  0.12633453486E+03  0.12633453486E+03  0.00000000000E+00 0. -1.
          2   -1    0    0  503    0 -0.00000000000E+00 -0.00000000000E+00 -0.61080825611E+03  0.61080825611E+03  0.00000000000E+00 0.  1.
         21    1    1    2  503  502 -0.21513279890E+01 -0.49694848028E+02 -0.19017627788E+02  0.53252946391E+02  0.00000000000E+00 0.  1.
         21    1    1    2  504  505 -0.57749934172E+02 -0.87891301682E+02  0.68523192325E+02  0.12552037163E+03  0.00000000000E+00 0. -1.
         21    1    1    2  505  501  0.41859209020E+02  0.25310101728E+02 -0.13955883528E+03  0.14788327537E+03  0.00000000000E+00 0.  1.
          2    1    1    2  501    0  0.18042053141E+02  0.11227604798E+03 -0.39442045050E+03  0.41048619758E+03  0.00000000000E+00 0.  1.
<scales pt_clust_3="49.74139" pt_clust_4="144.89057" pt_clust_5="42.12107" pt_clust_6="42.12107"></scales>
<clustering>
<clus scale="   42.121">  5  6 -1 -1</clus>
<clus scale="   49.741">  1  3  2 -1</clus>
<clus scale="  144.891">  1  4  2 -1</clus>
<clus scale="   49.741">  1  3  2 -1</clus>
</clustering>
</event>
<event>
 6    0  0.1361744E+002  0.1801678E+03  0.7546771E-02  0.1167641E+00
         21   -1    0    0  503  502  0.00000000000E+00  0.00000000000E+00  0.26551653831E+02  0.26551653831E+02  0.00000000000E+00 0. -1.
          2   -1    0    0  504    0 -0.00000000000E+00 -0.00000000000E+00 -0.34796258507E+04  0.34796258507E+04  0.00000000000E+00 0. -1.
         21    1    1    2  503  505  0.42088141234E+01  0.42448744368E+02 -0.45585069536E+02  0.62430830359E+02  0.00000000000E+00 0. -1.
         21    1    1    2  504  502  0.42021721668E+02  0.14608671675E+02 -0.11271863192E+04  0.11280639328E+04  0.00000000000E+00 0. -1.
         21    1    1    2  505  501 -0.84073479821E+02  0.10240211188E+03 -0.29218969096E+03  0.32082605572E+03  0.00000000000E+00 0. -1.
          2    1    1    2  501    0  0.37842944030E+02 -0.15945952792E+03 -0.19881131172E+04  0.19948566856E+04  0.00000000000E+00 0. -1.
<scales pt_clust_3="41.82671" pt_clust_4="44.48863" pt_clust_5="41.82671" pt_clust_6="164.39742"></scales>
<clustering>
<clus scale="   41.827">  3  5 -1 -1</clus>
<clus scale="   44.489">  2  4  1 -1</clus>
<clus scale="  164.397">  2  6  1 -1</clus>
<clus scale="  180.168">  1  3  2 -1</clus>
</clustering>
</event>
<event>
 6    0  0.1361744E+002  0.1766765E+03  0.7546771E-02  0.1171059E+00
         21   -1    0    0  504  502  0.00000000000E+00  0.00000000000E+00  0.17216140136E+03  0.17216140136E+03  0.00000000000E+00 0.  1.
         -1   -1    0    0    0  501 -0.00000000000E+00 -0.00000000000E+00 -0.64160520752E+03  0.64160520752E+03  0.00000000000E+00 0. -1.
         21    1    1    2  503  505  0.59790899358E+02  0.27218131955E+02  0.55572802167E+02  0.86047165519E+02  0.00000000000E+00 0.  1.
         21    1    1    2  504  501 -0.10272777381E+02 -0.88223052974E+02 -0.19234167341E+03  0.21185881233E+03  0.00000000000E+00 0. -1.
         21    1    1    2  505  502  0.57814057593E+02  0.10040556694E+03  0.42684826173E+02  0.12347363084E+03  0.00000000000E+00 0.  1.
         -1    1    1    2    0  503 -0.10733217957E+03 -0.39400645919E+02 -0.37535976109E+03  0.39238700018E+03  0.00000000000E+00 0. -1.
<scales pt_clust_3="48.36637" pt_clust_4="88.81913" pt_clust_5="48.36637" pt_clust_6="164.58711"></scales>
<clustering>
<clus scale="   48.366">  3  5 -1 -1</clus>
<clus scale="   88.819">  2  4  1 -1</clus>
<clus scale="  164.587">  2  6  1 -1</clus>
<clus scale="  176.676">  1  3  2 -1</clus>
</clustering>
</event>
<event>
 6    0  0.1361744E+002  0.7861273E+02  0.7546771E-02  0.1333035E+00
          2   -1    0    0  504    0 -0.00000000000E+00  0.00000000000E+00  0.36943652292E+03  0.36943652292E+03  0.00000000000E+00 0. -1.
         21   -1    0    0  501  502  0.00000000000E+00 -0.00000000000E+00 -0.22636334451E+03  0.22636334451E+03  0.00000000000E+00 0.  1.
         21    1    1    2  503  502 -0.57624915138E+02  0.51095868200E+02 -0.18505167273E+03  0.20043837001E+03  0.00000000000E+00 0.  1.
         21    1    1    2  504  505 -0.28782580138E+02  0.97377516274E+01  0.12163900410E+03  0.12537666468E+03  0.00000000000E+00 0. -1.
         21    1    1    2  505  503  0.52507678515E+01  0.33909383258E+02  0.74940102484E+01  0.35122315208E+02  0.00000000000E+00 0.  1.
          2    1    1    2  501    0  0.81156727425E+02 -0.94743003086E+02  0.19899183678E+03  0.23486251754E+03  0.00000000000E+00 0. -1.
<scales pt_clust_3="14000.00000" pt_clust_4="30.38521" pt_clust_5="34.86228" pt_clust_6="78.61273"></scales>
<clustering>
<clus scale="   30.385">  1  4  2 -1</clus>
<clus scale="   34.862">  1  5  2 -1</clus>
<clus scale="   78.613">  1  6  2 -1</clus>
<clus scale="   78.613">  2  3  1 -1</clus>
</clustering>
</event>
<event>
 6    0  0.1361744E+002  0.1642474E+03  0.7546771E-02  0.1183983E+00
          1   -1    0    0  504    0 -0.00000000000E+00  0.00000000000E+00  0.18175158916E+04  0.18175158916E+04  0.00000000000E+00 0. -1.
         21   -1    0    0  505  502  0.00000000000E+00 -0.00000000000E+00 -0.28290054814E+03  0.28290054814E+03  0.00000000000E+00 0. -1.
         21    1    1    2  503  502  0.41858045774E+02  0.79215135188E+02 -0.57037675840E+02  0.10620936919E+03  0.00000000000E+00 0. -1.
         21    1    1    2  504  503  0.76316230270E+02 -0.12830497266E+03  0.62472897312E+03  0.64231816327E+03  0.00000000000E+00 0. -1.
         21    1    1    2  505  501  0.22143011749E+01 -0.81231049821E+02 -0.17675006984E+03  0.19453527642E+03  0.00000000000E+00 0. -1.
          1    1    1    2  501    0 -0.12038857722E+03  0.13032088729E+03  0.11436741160E+04  0.11573536308E+04  0.00000000000E+00 0. -1.
<scales pt_clust_3="45.08937" pt_clust_4="164.24740" pt_clust_5="81.26122" pt_clust_6="14000.00000"></scales>
<clustering>
<clus scale="   81.261">  2  5  1 -1</clus>
<clus scale="   45.089">  2  3  1 -1</clus>
<clus scale="  164.247">  2  4  1 -1</clus>
<clus scale="   81.261">  2  3  1 -1</clus>
</clustering>
</event>
<event>
 6    0  0.1361744E+002  0.1435402E+03  0.7546771E-02  0.1208643E+00
         21   -1    0    0  501  502  0.00000000000E+00  0.00000000000E+00  0.79254390069E+02  0.79254390069E+02  0.00000000000E+00 0. -1.
          2   -1    0    0  504    0 -0.00000000000E+00 -0.00000000000E+00 -0.28865227798E+04  0.28865227798E+04  0.00000000000E+00 0. -1.
         21    1    1    2  503  502 -0.11355185323E+03 -0.88900671732E+02 -0.96160171542E-01  0.14421290529E+03  0.00000000000E+00 0. -1.
         21    1    1    2  504  505  0.28610644118E+02 -0.40485599306E+02 -0.25420804186E+03  0.25899687499E+03  0.00000000000E+00 0. -1.
         21    1    1    2  505  503 -0.13017013898E+02  0.56359511326E+02 -0.26028634714E+03  0.26663611848E+03  0.00000000000E+00 0. -1.
          2    1    1    2  501    0  0.97958223007E+02  0.73026759712E+02 -0.22926778405E+04  0.22959312711E+04  0.00000000000E+00 0. -1.
<scales pt_clust_3="143.54016" pt_clust_4="49.57472" pt_clust_5="53.27964" pt_clust_6="14000.00000"></scales>
<clustering>
<clus scale="   49.575">  2  4  1 -1</clus>
<clus scale="   53.280">  2  5  1 -1</clus>
<clus scale="  143.540">  1  3  2 -1</clus>
<clus scale="  143.540">  1  3  2 -1</clus>
</clustering>
</event>
<event>
 6    0  0.1361744E+002  0.1282806E+03  0.7546771E-02  0.1230030E+00
          3   -1    0    0  503    0 -0.00000000000E+00  0.00000000000E+00  0.20942072650E+04  0.20942072650E+04  0.00000000000E+00 0. -1.
         21   -1    0    0  504  502  0.00000000000E+00 -0.00000000000E+00 -0.75117380425E+02  0.75117380425E+02  0.00000000000E+00 0. -1.
         21    1    1    2  503  505  0.19550161621E+02 -0.45030844526E+02  0.11037174929E+04  0.11048087119E+04  0.00000000000E+00 0. -1.
         21    1    1    2  504  501 -0.95991752541E+01  0.73663633003E+02 -0.18675764182E+02  0.76598036270E+02  0.00000000000E+00 0. -1.
         21    1    1    2  505  502 -0.87006833705E+02  0.37651410701E+02  0.69836525572E+02  0.11774955687E+03  0.00000000000E+00 0.  1.
          3    1    1    2  501    0  0.77055847338E+02 -0.66284199178E+02  0.86421163027E+03  0.87016834036E+03  0.00000000000E+00 0. -1.
<scales pt_clust_3="49.09161" pt_clust_4="72.90727" pt_clust_5="128.28062" pt_clust_6="14000.00000"></scales>
<clustering>
<clus scale="   49.092">  1  3  2 -1</clus>
<clus scale="   72.907">  2  4  1 -1</clus>
<clus scale="  128.281">  2  5  1 -1</clus>
<clus scale="   72.907">  2  3  1 -1</clus>
</clustering>
</event>
<event>
 6    0  0.1361744E+002  0.3398653E+03  0.7546771E-02  0.1066853E+00
         21   -1    0    0  504  502  0.00000000000E+00  0.00000000000E+00  0.19328328203E+03  0.19328328203E+03  0.00000000000E+00 0. -1.
         -2   -1    0    0    0  501 -0.00000000000E+00 -0.00000000000E+00 -0.69787312666E+03  0.69787312666E+03  0.00000000000E+00 0. -1.
         21    1    1    2  503  501 -0.13055907098E+03  0.21883253885E+03 -0.19748792669E+03  0.32238925581E+03  0.00000000000E+00 0. -1.
         21    1    1    2  504  503 -0.89134415687E+02  0.15951197016E+02 -0.34692662320E+02  0.96968889676E+02  0.00000000000E+00 0. -1.
         21    1    1    2  505  502 -0.36708496350E+02 -0.65761780743E+02 -0.32180925687E+02  0.81900778316E+02  0.00000000000E+00 0.  1.
         -2    1    1    2    0  505  0.25640198302E+03 -0.16902195513E+03 -0.24022832994E+03  0.38989748488E+03  0.00000000000E+00 0. -1.
<scales pt_clust_3="85.80373" pt_clust_4="85.80373" pt_clust_5="75.31351" pt_clust_6="311.35772"></scales>
<clustering>
<clus scale="   75.314">  1  5  2 -1</clus>
<clus scale="   85.804">  3  4 -1 -1</clus>
<clus scale="  311.358">  2  6  1 -1</clus>
<clus scale="   75.314">  1  3  2 -1</clus>
</clustering>
</event>
<event>
 6    0  0.1361744E+002  0.1086976E+03  0.7546771E-02  0.1263001E+00
         -3   -1    0    0    0  501 -0.00000000000E+00  0.00000000000E+00  0.78233793311E+03  0.78233793311E+03  0.00000000000E+00 0. -1.
         21   -1    0    0  505  502  0.00000000000E+00 -0.00000000000E+00 -0.97960278383E+02  0.97960278383E+02  0.00000000000E+00 0.  1.
         21    1    1    2  503  501 -0.63576881361E+02  0.53235132387E+02  0.26892463777E+03  0.28141865604E+03  0.00000000000E+00 0. -1.
         21    1    1    2  504  503  0.92648889117E+01 -0.89665695862E+02 -0.37083368196E+02  0.97472823791E+02  0.00000000000E+00 0.  1.
         21    1    1    2  505  504 -0.30059140358E+02 -0.27492953666E+02  0.44396085847E+01  0.40977122211E+02  0.00000000000E+00 0. -1.
         -3    1    1    2    0  502  0.84371132808E+02  0.63923517140E+02  0.44809677657E+03  0.46042960946E+03  0.00000000000E+00 0. -1.
<scales pt_clust_3="83.40474" pt_clust_4="108.69764" pt_clust_5="40.73591" pt_clust_6="14000.00000"></scales>
<clustering>
<clus scale="   40.736">  2  5  1 -1</clus>
<clus scale="   83.405">  1  3  2 -1</clus>
<clus scale="  108.698">  2  4  1 -1</clus>
<clus scale="   40.736">  2  3  1 -1</clus>
</clustering>
</event>
<event>
 6    0  0.1361744E+002  0.1427811E+03  0.7546771E-02  0.1209635E+00
          1   -1    0    0  504    0 -0.00000000000E+00  0.00000000000E+00  0.28388354437E+03  0.28388354437E+03  0.00000000000E+00 0.  1.
         21   -1    0    0  501  502  0.00000000000E+00 -0.00000000000E+00 -0.70842581070E+03  0.70842581070E+03  0.00000000000E+00 0.  1.
         21    1    1    2  503  502 -0.29019643365E+02  0.66396998870E+02 -0.32666733319E+03  0.33460760262E+03  0.00000000000E+00 0.  1.
         21    1    1    2  504  505 -0.46951347672E+02 -0.34243508874E+02  0.62651041842E+02  0.85452910963E+02  0.00000000000E+00 0.  1.
         21    1    1    2  505  503  0.36867874963E+02  0.61113062572E+02 -0.35014563918E+03  0.35734579228E+03  0.00000000000E+00 0.  1.
          1    1    1    2  501    0  0.39103116073E+02 -0.93266552568E+02  0.18961966419E+03  0.21490304922E+03  0.00000000000E+00 0.  1.
<scales pt_clust_3="65.53583" pt_clust_4="58.11236" pt_clust_5="65.53583" pt_clust_6="126.42452"></scales>
<clustering>
<clus scale="   58.112">  1  4  2 -1</clus>
<clus scale="   65.536">  3  5 -1 -1</clus>
<clus scale="  126.425">  1  6  2 -1</clus>
<clus scale="  142.781">  2  3  1 -1</clus>
</clustering>
</event>
<event>
 6    0  0.1361744E+002  0.8573539E+02  0.7546771E-02  0.1313521E+00
         21   -1    0    0  504  502  0.00000000000E+00  0.00000000000E+00  0.14204262429E+03  0.14204262429E+03  0.00000000000E+00 0.  1.
          2   -1    0    0  503    0 -0.00000000000E+00 -0.00000000000E+00 -0.90321364156E+03  0.90321364156E+03  0.00000000000E+00 0. -1.
         21    1    1    2  503  505  0.69954554227E+01  0.63150719620E+02 -0.16664766622E+03  0.17834908030E+03  0.00000000000E+00 0.  1.
         21    1    1    2  504  501  0.14198111282E+02  0.63083449966E+02  0.98563853842E+02  0.11788104728E+03  0.00000000000E+00 0.  1.
         21    1    1    2  505  502 -0.40394829123E+02  0.18288332701E+02 -0.38170686955E+01  0.44505902376E+02  0.00000000000E+00 0. -1.
          2    1    1    2  501    0  0.19201262418E+02 -0.14452250229E+03 -0.68927013619E+03  0.70452023590E+03  0.00000000000E+00 0. -1.
<scales pt_clust_3="64.22905" pt_clust_4="85.73539" pt_clust_5="44.34191" pt_clust_6="14000.00000"></scales>
<clustering>
<clus scale="   44.342">  1  5  2 -1</clus>
<clus scale="   64.229">  2  3  1 -1</clus>
<clus scale="   85.735">  1  4  2 -1</clus>
<clus scale="   44.342">  1  3  2 -1</clus>
</clustering>
</event>
<event>
 6    0  0.1361744E+002  0.8997431E+02  0.7546771E-02  0.1302914E+00
         21   -1    0    0  503  502  0.00000000000E+00  0.00000000000E+00  0.10010758898E+04  0.10010758898E+04  0.00000000000E+00 0.  1.
          2   -1    0    0  505    0 -0.00000000000E+00 -0.00000000000E+00 -0.55922613277E+03  0.55922613277E+03  0.00000000000E+00 0. -1.
         21    1    1    2  503  501  0.70989975679E+02  0.46933219918E+02  0.12832780256E+03  0.15398158555E+03  0.00000000000E+00 0.  1.
         21    1    1    2  504  502 -0.92610717375E+02 -0.62845059836E+01  0.84264989008E+03  0.84774705970E+03  0.00000000000E+00 0.  1.
         21    1    1    2  505  504  0.37945868685E+02  0.75841423629E+01 -0.14331990686E+02  0.41265168395E+02  0.00000000000E+00 0. -1.
          2    1    1    2  501    0 -0.16325126990E+02 -0.48232856297E+02 -0.51479594487E+03  0.51730820896E+03  0.00000000000E+00 0. -1.
<scales pt_clust_3="89.97431" pt_clust_4="14000.00000" pt_clust_5="38.69636" pt_clust_6="45.73176"></scales>
<clustering>
<clus scale="   38.696">  2  5  1 -1</clus>
<clus scale="   45.732">  2  6  1 -1</clus>
<clus scale="   89.974">  2  3  1 -1</clus>
<clus scale="   89.974">  1  3  2 -1</clus>
</clustering>
</event>
<event>
 6    0  0.1361744E+002  0.2156765E+03  0.7546771E-02  0.1137148E+00
          2   -1    0    0  505    0 -0.00000000000E+00  0.00000000000E+00  0.30194659312E+04  0.30194659312E+04  0.00000000000E+00 0.  1.
         21   -1    0    0  504  502  0.00000000000E+00 -0.00000000000E+00 -0.10183019810E+03  0.10183019810E+03  0.00000000000E+00 0. -1.
         21    1    1    2  503  502  0.98017461309E+02  0.13378840220E+02 -0.18564215191E+02  0.10065309818E+03  0.00000000000E+00 0. -1.
         21    1    1    2  504  501 -0.52233894691E+02 -0.40990440615E+02  0.61437433334E+03  0.61795179217E+03  0.00000000000E+00 0. -1.
         21    1    1    2  505  503  0.84910183760E+02  0.10832766300E+03  0.87513478523E+02  0.16310496866E+03  0.00000000000E+00 0. -1.
          2    1    1    2  501    0 -0.13069375038E+03 -0.80716062605E+02  0.22343121364E+04  0.22395862703E+04  0.00000000000E+00 0.  1.
<scales pt_clust_3="98.92632" pt_clust_4="31.07597" pt_clust_5="210.43332" pt_clust_6="31.07597"></scales>
<clustering>
<clus scale="   31.076">  4  6 -1 -1</clus>
<clus scale="   98.926">  2  3  1 -1</clus>
<clus scale="  210.433">  2  5  1 -1</clus>
<clus scale="   98.926">  2  3  1 -1</clus>
</clustering>
</event>
<event>
 6    0  0.1361744E+002  0.8399915E+02  0.7546771E-02  0.1318071E+00
          2   -1    0    0  505    0 -0.00000000000E+00  0.00000000000E+00  0.19494744211E+04  0.19494744211E+04  0.00000000000E+00 0.  1.
         21   -1    0    0  503  502  0.00000000000E+00 -0.00000000000E+00 -0.15892287844E+03  0.15892287844E+03  0.00000000000E+00 0.  1.
         21    1    1    2  503  504  0.35841571131E+02  0.14596550801E+02 -0.13479726316E+02  0.40980245704E+02  0.00000000000E+00 0.  1.
         21    1    1    2  504  501 -0.56233284717E+02 -0.80687023033E+02  0.17761810364E+03  0.20302898496E+03  0.00000000000E+00 0.  1.
         21    1    1    2  505  502 -0.27357344979E+02  0.70669021070E+02 -0.10655641260E+03  0.13075474726E+03  0.00000000000E+00 0.  1.
          2    1    1    2  501    0  0.47749058565E+02 -0.45785488372E+01  0.17329695779E+04  0.17336333216E+04  0.00000000000E+00 0.  1.
<scales pt_clust_3="38.69984" pt_clust_4="14000.00000" pt_clust_5="83.99915" pt_clust_6="48.05449"></scales>
<clustering>
<clus scale="   38.700">  2  3  1 -1</clus>
<clus scale="   48.054">  1  6  2 -1</clus>
<clus scale="   83.999">  2  5  1 -1</clus>
<clus scale="   38.700">  2  3  1 -1</clus>
</clustering>
</event>
<event>
 6    0  0.1361744E+002  0.1462944E+03  0.7546771E-02  0.1205102E+00
         21   -1    0    0  504  502  0.00000000000E+00  0.00000000000E+00  0.21851128159E+03  0.21851128159E+03  0.00000000000E+00 0.  1.
          2   -1    0    0  503    0 -0.00000000000E+00 -0.00000000000E+00 -0.95672110415E+03  0.95672110415E+03  0.00000000000E+00 0. -1.
         21    1    1    2  503  505 -0.28164889286E+02 -0.15579285174E+02 -0.93839222597E+02  0.99205719657E+02  0.00000000000E+00 0. -1.
         21    1    1    2  504  501  0.80319987502E+02  0.11797821293E+02  0.14200883084E+03  0.16357566144E+03  0.00000000000E+00 0.  1.
         21    1    1    2  505  502  0.68916366802E+02 -0.39774117984E+02  0.30711430905E+02  0.85291488807E+02  0.00000000000E+00 0. -1.
          2    1    1    2  501    0 -0.12107146502E+03  0.43555581865E+02 -0.81709086170E+03  0.82715951583E+03  0.00000000000E+00 0. -1.
<scales pt_clust_3="32.18657" pt_clust_4="14000.00000" pt_clust_5="79.04839" pt_clust_6="146.29443"></scales>
<clustering>
<clus scale="   32.187">  2  3  1 -1</clus>
<clus scale="   79.048">  1  5  2 -1</clus>
<clus scale="  146.294">  2  6  1 -1</clus>
<clus scale="   79.048">  1  3  2 -1</clus>
</clustering>
</event>
<event>
 6    0  0.1361744E+002  0.1645175E+03  0.7546771E-02  0.1183689E+00
          4   -1    0    0  504    0 -0.00000000000E+00  0.00000000000E+00  0.13822329499E+03  0.13822329499E+03  0.00000000000E+00 0.  1.
         21   -1    0    0  503  502  0.00000000000E+00 -0.00000000000E+00 -0.13585891804E+04  0.13585891804E+04  0.00000000000E+00 0. -1.
         21    1    1    2  503  501  0.77061360887E+02 -0.32239356931E+02 -0.16337624411E+03  0.18349285167E+03  0.00000000000E+00 0. -1.
         21    1    1    2  504  505 -0.64354405479E+02 -0.12900580742E+02 -0.47614308461E+02  0.81086600978E+02  0.00000000000E+00 0. -1.
         21    1    1    2  505  502 -0.22077136638E+03  0.51579443638E+02 -0.99835880379E+03  0.10237776791E+04  0.00000000000E+00 0. -1.
          4    1    1    2  501    0  0.20806441097E+03 -0.64395059656E+01 -0.11016529032E+02  0.20845534356E+03  0.00000000000E+00 0.  1.
<scales pt_clust_3="79.08885" pt_clust_4="65.63470" pt_clust_5="164.51748" pt_clust_6="14000.00000"></scales>
<clustering>
<clus scale="   65.635">  1  4  2 -1</clus>
<clus scale="   79.089">  2  3  1 -1</clus>
<clus scale="  164.517">  2  5  1 -1</clus>
<clus scale="   79.089">  2  3  1 -1</clus>
</clustering>
</event>
<event>
 6    0  0.1361744E+002  0.1346224E+03  0.7546771E-02  0.1220754E+00
          1   -1    0    0  504    0 -0.00000000000E+00  0.00000000000E+00  0.48132771574E+03  0.48132771574E+03  0.00000000000E+00 0. -1.
         21   -1    0    0  503  502  0.00000000000E+00 -0.00000000000E+00 -0.20018014576E+03  0.20018014576E+03  0.00000000000E+00 0. -1.
         21    1    1    2  503  505  0.11115931713E+02  0.58203428872E+02 -0.78736304150E+02  0.98542420619E+02  0.00000000000E+00 0. -1.
         21    1    1    2  504  502 -0.74668416852E+02 -0.15997693903E+02  0.12505353965E+03  0.14652537823E+03  0.00000000000E+00 0.  1.
         21    1    1    2  505  501  0.11429878450E+03  0.32495926662E+02 -0.56396631335E+02  0.13153241963E+03  0.00000000000E+00 0. -1.
          1    1    1    2  501    0 -0.50746299365E+02 -0.74701661632E+02  0.29122696582E+03  0.30490764302E+03  0.00000000000E+00 0. -1.
<scales pt_clust_3="59.25541" pt_clust_4="74.32904" pt_clust_5="14000.00000" pt_clust_6="134.62240"></scales>
<clustering>
<clus scale="   59.255">  2  3  1 -1</clus>
<clus scale="   74.329">  1  4  2 -1</clus>
<clus scale="  134.622">  1  6  2 -1</clus>
<clus scale="   59.255">  2  3  1 -1</clus>
</clustering>
</event>
<event>
 6    0  0.1361744E+002  0.1018810E+03  0.7546771E-02  0.1276390E+00
         21   -1    0    0  501  502  0.00000000000E+00  0.00000000000E+00  0.63538473087E+03  0.63538473087E+03  0.00000000000E+00 0.  1.
         -3   -1    0    0    0  501 -0.00000000000E+00 -0.00000000000E+00 -0.35236294777E+03  0.35236294777E+03  0.00000000000E+00 0.  1.
         21    1    1    2  503  502  0.32996422344E+02 -0.11047420844E+02  0.27202954777E+03  0.27424602869E+03  0.00000000000E+00 0. -1.
         21    1    1    2  504  505  0.76239547115E+02 -0.71885777765E+02 -0.41925351867E+02  0.11286172389E+03  0.00000000000E+00 0.  1.
         21    1    1    2  505  503 -0.14870896340E+02  0.42940267502E+02  0.31550455639E+03  0.31876031001E+03  0.00000000000E+00 0.  1.
         -3    1    1    2    0  504 -0.94365073119E+02  0.39992931107E+02 -0.26258696919E+03  0.28187961606E+03  0.00000000000E+00 0.  1.
<scales pt_clust_3="34.79669" pt_clust_4="101.88097" pt_clust_5="36.10067" pt_clust_6="14000.00000"></scales>
<clustering>
<clus scale="   34.797">  1  3  2 -1</clus>
<clus scale="   36.101">  1  5  2 -1</clus>
<clus scale="  101.881">  1  4  2 -1</clus>
<clus scale="   34.797">  1  3  2 -1</clus>
</clustering>
</event>
<event>
 6    0  0.1361744E+002  0.6193122E+02  0.7546771E-02  0.1389901E+00
          2   -1    0    0  503    0 -0.00000000000E+00  0.00000000000E+00  0.15931081000E+04  0.15931081000E+04  0.00000000000E+00 0. -1.
         21   -1    0    0  505  502  0.00000000000E+00 -0.00000000000E+00 -0.19056367545E+02  0.19056367545E+02  0.00000000000E+00 0. -1.
         21    1    1    2  503  504 -0.50541520530E+02 -0.23409219276E+01  0.42166613523E+03  0.42469077552E+03  0.00000000000E+00 0. -1.
         21    1    1    2  504  502 -0.24955382359E+02  0.37776403085E+02  0.10977785476E+03  0.11874765318E+03  0.00000000000E+00 0. -1.
         21    1    1    2  505  501  0.32360702050E+01 -0.85239622079E+02  0.15611104883E+03  0.17789582595E+03  0.00000000000E+00 0. -1.
          2    1    1    2  501    0  0.72260832684E+02  0.49804140921E+02  0.88649669369E+03  0.89083021295E+03  0.00000000000E+00 0. -1.
<scales pt_clust_3="53.15503" pt_clust_4="45.27502" pt_clust_5="14000.00000" pt_clust_6="61.93122"></scales>
<clustering>
<clus scale="   45.275">  2  4  1 -1</clus>
<clus scale="   53.155">  1  3  2 -1</clus>
<clus scale="   61.931">  1  6  2 -1</clus>
<clus scale="   45.275">  2  3  1 -1</clus>
</clustering>
</event>
<event>
 6    0  0.1361744E+002  0.2172171E+03  0.7546771E-02  0.1135975E+00
         -1   -1    0    0    0  501 -0.00000000000E+00  0.00000000000E+00  0.63992529967E+03  0.63992529967E+03  0.00000000000E+00 0.  1.
         21   -1    0    0  505  502  0.00000000000E+00 -0.00000000000E+00 -0.10929219907E+03  0.10929219907E+03  0.00000000000E+00 0.  1.
         21    1    1    2  503  501  0.90542379819E+02  0.69191266343E+02  0.53618904336E+02  0.12593784492E+03  0.00000000000E+00 0.  1.
         21    1    1    2  504  502 -0.59497458967E+02 -0.35162985155E+02  0.11573259920E+03  0.13479769162E+03  0.00000000000E+00 0. -1.
         21    1    1    2  505  503  0.68964488310E+02  0.68280381053E+02 -0.30189197805E+01  0.97094927577E+02  0.00000000000E+00 0.  1.
         -1    1    1    2    0  504 -0.10000940916E+03 -0.10230866224E+03  0.36430051684E+03  0.39138703461E+03  0.00000000000E+00 0.  1.
<scales pt_clust_3="49.20052" pt_clust_4="31.83248" pt_clust_5="49.20052" pt_clust_6="215.49611"></scales>
<clustering>
<clus scale="   31.832">  4  6 -1 -1</clus>
<clus scale="   49.201">  3  5 -1 -1</clus>
<clus scale="  215.496">  1  4  2 -1</clus>
<clus scale="  217.217">  2  3  1 -1</clus>
</clustering>
</event>
<event>
 6    0  0.1361744E+002  0.1661614E+03  0.7546771E-02  0.1181911E+00
          4   -1    0    0  502    0 -0.00000000000E+00  0.00000000000E+00  0.87217750827E+03  0.87217750827E+03  0.00000000000E+00 0.  1.
         21   -1    0    0  505  502  0.00000000000E+00 -0.00000000000E+00 -0.19617261667E+03  0.19617261667E+03  0.00000000000E+00 0. -1.
         21    1    1    2  503  504  0.66103303412E+02 -0.15739656821E+02 -0.18322473543E+02  0.70378239219E+02  0.00000000000E+00 0. -1.
         21    1    1    2  504  501 -0.10852080391E+03  0.69948751930E+01  0.31080644315E+03  0.32928154862E+03  0.00000000000E+00 0.  1.
         21    1    1    2  505  503  0.82902348699E+02 -0.25518930018E+02 -0.12789295842E+03  0.15453356924E+03  0.00000000000E+00 0. -1.
          4    1    1    2  501    0 -0.40484848203E+02  0.34263711646E+02  0.51141388040E+03  0.51415676786E+03  0.00000000000E+00 0.  1.
<scales pt_clust_3="63.47282" pt_clust_4="149.35926" pt_clust_5="63.47282" pt_clust_6="53.03796"></scales>
<clustering>
<clus scale="   53.038">  1  6  2 -1</clus>
<clus scale="   63.473">  3  5 -1 -1</clus>
<clus scale="  149.359">  1  4  2 -1</clus>
<clus scale="  166.161">  2  3  1 -1</clus>
</clustering>
</event>
<event>
 6    0  0.1361744E+002  0.1427843E+03  0.7546771E-02  0.1209631E+00
         21   -1    0    0  503  502  0.00000000000E+00  0.00000000000E+00  0.24750211704E+02  0.24750211704E+02  0.00000000000E+00 0.  1.
         -1   -1    0    0    0  501 -0.00000000000E+00 -0.00000000000E+00 -0.14721264613E+04  0.14721264613E+04  0.00000000000E+00 0.  1.
         21    1    1    2  503  504  0.52162473393E+02  0.98101909656E+02 -0.52824932408E+03  0.53980761082E+03  0.00000000000E+00 0.  1.
         21    1    1    2  504  505  0.32662691907E+02  0.38518579352E+02 -0.47117325326E+03  0.47387209982E+03  0.00000000000E+00 0.  1.
         21    1    1    2  505  501 -0.14110414567E+01 -0.42568966137E+02 -0.20790351118E+03  0.21222153019E+03  0.00000000000E+00 0. -1.
         -1    1    1    2    0  502 -0.83414123843E+02 -0.94051522871E+02 -0.24005016111E+03  0.27097543220E+03  0.00000000000E+00 0.  1.
<scales pt_clust_3="35.93278" pt_clust_4="35.93278" pt_clust_5="42.59235" pt_clust_6="132.46418"></scales>
<clustering>
<clus scale="   35.933">  3  4 -1 -1</clus>
<clus scale="   42.592">  2  5  1 -1</clus>
<clus scale="  132.464">  1  6  2 -1</clus>
<clus scale="  132.464">  1  3  2 -1</clus>
</clustering>
</event>
<event>
 6    0  0.1361744E+002  0.1154513E+03  0.7546771E-02  0.1250795E+00
         21   -1    0    0  501  502  0.00000000000E+00  0.00000000000E+00  0.49116870808E+03  0.49116870808E+03  0.00000000000E+00 0. -1.
          2   -1    0    0  504    0 -0.00000000000E+00 -0.00000000000E+00 -0.24244114760E+04  0.24244114760E+04  0.00000000000E+00 0.  1.
         21    1    1    2  503  502 -0.45922982123E+02  0.26299935976E+02  0.41036171533E+03  0.41376000813E+03  0.00000000000E+00 0. -1.
         21    1    1    2  504  505  0.13907288431E+03  0.65443573664E+02 -0.14115742744E+04  0.14199176246E+04  0.00000000000E+00 0.  1.
         21    1    1    2  505  503 -0.71450615358E+02 -0.82375751033E+01  0.55352356148E+02  0.90757541889E+02  0.00000000000E+00 0. -1.
          2    1    1    2  501    0 -0.21699286831E+02 -0.83505934537E+02 -0.98738256491E+03  0.99114500939E+03  0.00000000000E+00 0.  1.
<scales pt_clust_3="52.92076" pt_clust_4="14000.00000" pt_clust_5="115.45129" pt_clust_6="85.95711"></scales>
<clustering>
<clus scale="   52.921">  1  3  2 -1</clus>
<clus scale="   85.957">  2  6  1 -1</clus>
<clus scale="  115.451">  1  5  2 -1</clus>
<clus scale="   52.921">  1  3  2 -1</clus>
</clustering>
</event>
<event>
 6    0  0.1710577E+002  0.9573732E+02  0.7546771E-02  0.1289524E+00
          2   -1    0    0  503    0 -0.00000000000E+00  0.00000000000E+00  0.90120425412E+03  0.90120425412E+03  0.00000000000E+00 0.  1.
         21   -1    0    0  504  502  0.00000000000E+00 -0.00000000000E+00 -0.33411162739E+03  0.33411162739E+03  0.00000000000E+00 0. -1.
         21    1    1    2  503  505 -0.22267854422E+02  0.33296240823E+02  0.22268101166E+02  0.45829742777E+02  0.00000000000E+00 0. -1.
         21    1    1    2  504  501 -0.69133098894E+02 -0.28633186232E+02 -0.29619366694E+03  0.30549948126E+03  0.00000000000E+00 0. -1.
         21    1    1    2  505  502  0.19910997624E+02  0.45631722587E+02  0.13119111516E+02  0.51486046844E+02  0.00000000000E+00 0. -1.
          2    1    1    2  501    0  0.71489955692E+02 -0.50294777178E+02  0.82789908099E+03  0.83250061062E+03  0.00000000000E+00 0.  1.
<scales pt_clust_3="39.94223" pt_clust_4="74.82810" pt_clust_5="39.94223" pt_clust_6="84.75083"></scales>
<clustering>
<clus scale="   39.942">  3  5 -1 -1</clus>
<clus scale="   74.828">  2  4  1 -1</clus>
<clus scale="   84.751">  1  6  2 -1</clus>
<clus scale="   74.828">  2  3  1 -1</clus>
</clustering>
</event>
<event>
 6    0  0.1361744E+002  0.9977636E+02  0.7546771E-02  0.1280767E+00
         21   -1    0    0  501  502  0.00000000000E+00  0.00000000000E+00  0.90734405678E+03  0.90734405678E+03  0.00000000000E+00 0.  1.
          2   -1    0    0  504    0 -0.00000000000E+00 -0.00000000000E+00 -0.21892482623E+03  0.21892482623E+03  0.00000000000E+00 0.  1.
         21    1    1    2  503  505 -0.28140303235E+01 -0.38575589044E+02  0.19709443817E+03  0.20085370894E+03  0.00000000000E+00 0.  1.
         21    1    1    2  504  503 -0.47133221319E+02 -0.41431969918E+02 -0.62080612659E+02  0.88273162124E+02  0.00000000000E+00 0.  1.
         21    1    1    2  505  502 -0.11536539373E+02 -0.49259501573E+02  0.65794586396E+03  0.65988813456E+03  0.00000000000E+00 0.  1.
          2    1    1    2  501    0  0.61483791016E+02  0.12926706053E+03 -0.10454045891E+03  0.17725387738E+03  0.00000000000E+00 0.  1.
<scales pt_clust_3="37.72595" pt_clust_4="62.75467" pt_clust_5="37.72595" pt_clust_6="89.96478"></scales>
<clustering>
<clus scale="   37.726">  3  5 -1 -1</clus>
<clus scale="   62.755">  2  4  1 -1</clus>
<clus scale="   89.965">  2  6  1 -1</clus>
<clus scale="   99.776">  1  3  2 -1</clus>
</clustering>
</event>
<event>
 6    0  0.1361744E+002  0.1149031E+03  0.7546771E-02  0.1251750E+00
         21   -1    0    0  503  502  0.00000000000E+00  0.00000000000E+00  0.17237395264E+03  0.17237395264E+03  0.00000000000E+00 0. -1.
         -2   -1    0    0    0  501 -0.00000000000E+00 -0.00000000000E+00 -0.44190369902E+03  0.44190369902E+03  0.00000000000E+00 0. -1.
         21    1    1    2  503  501  0.30266656802E+02  0.37362557433E+01 -0.27675544695E+02  0.41182106492E+02  0.00000000000E+00 0. -1.
         21    1    1    2  504  502 -0.66198577828E+02  0.26850252525E+02  0.79036460011E+02  0.10653614306E+03  0.00000000000E+00 0. -1.
         21    1    1    2  505  504  0.47631471614E+02  0.92945024820E+02  0.17717759906E+02  0.10593136336E+03  0.00000000000E+00 0. -1.
         -2    1    1    2    0  505 -0.11699550588E+02 -0.12353153309E+03 -0.33860842160E+03  0.36062803875E+03  0.00000000000E+00 0. -1.
<scales pt_clust_3="30.49640" pt_clust_4="70.53933" pt_clust_5="114.90308" pt_clust_6="14000.00000"></scales>
<clustering>
<clus scale="   30.496">  2  3  1 -1</clus>
<clus scale="   70.539">  1  4  2 -1</clus>
<clus scale="  114.903">  1  5  2 -1</clus>
<clus scale="   70.539">  1  3  2 -1</clus>
</clustering>
</event>
<event>
 6    0  0.1361744E+002  0.2201242E+03  0.7546771E-02  0.1133791E+00
         21   -1    0    0  501  502  0.00000000000E+00  0.00000000000E+00  0.30256758625E+03  0.30256758625E+03  0.00000000000E+00 0. -1.
          2   -1    0    0  503    0 -0.00000000000E+00 -0.00000000000E+00 -0.86116404067E+03  0.86116404067E+03  0.00000000000E+00 0.  1.
         21    1    1    2  503  505 -0.31660611547E+02 -0.32204062728E+02 -0.37076035251E+03  0.37350064922E+03  0.00000000000E+00 0.  1.
         21    1    1    2  504  502  0.19681335957E+02  0.52260873576E+02  0.39958886468E+02  0.68667798128E+02  0.00000000000E+00 0. -1.
         21    1    1    2  505  504  0.12875470671E+03  0.10394637111E+03  0.20089583847E+03  0.26027247354E+03  0.00000000000E+00 0. -1.
          2    1    1    2  501    0 -0.11677543112E+03 -0.12400318196E+03 -0.42869082685E+03  0.46129070603E+03  0.00000000000E+00 0.  1.
<scales pt_clust_3="45.16078" pt_clust_4="35.60617" pt_clust_5="35.60617" pt_clust_6="211.41879"></scales>
<clustering>
<clus scale="   35.606">  4  5 -1 -1</clus>
<clus scale="   45.161">  2  3  1 -1</clus>
<clus scale="  211.419">  2  6  1 -1</clus>
<clus scale="  220.124">  1  3  2 -1</clus>
</clustering>
</event>
<event>
 6    0  0.1361744E+002  0.1192497E+03  0.7546771E-02  0.1244340E+00
         21   -1    0    0  504  502  0.00000000000E+00  0.00000000000E+00  0.63242328296E+02  0.63242328296E+02  0.00000000000E+00 0. -1.
          2   -1    0    0  503    0 -0.00000000000E+00 -0.00000000000E+00 -0.30729887003E+04  0.30729887003E+04  0.00000000000E+00 0.  1.
         21    1    1    2  503  505  0.12505232513E+02 -0.39016661178E+02 -0.10631239488E+04  0.10639131596E+04  0.00000000000E+00 0. -1.
         21    1    1    2  504  501 -0.60304348841E+02 -0.23994974405E+02 -0.78257835374E+02  0.10166937633E+03  0.00000000000E+00 0.  1.
         21    1    1    2  505  502 -0.60676786566E+02  0.46430962485E+02  0.20096034890E+02  0.79002261509E+02  0.00000000000E+00 0. -1.
          2    1    1    2  501    0  0.10847590289E+03  0.16580673098E+02 -0.18884606227E+04  0.18916462311E+04  0.00000000000E+00 0.  1.
<scales pt_clust_3="40.97171" pt_clust_4="65.05414" pt_clust_5="119.24973" pt_clust_6="14000.00000"></scales>
<clustering>
<clus scale="   40.972">  2  3  1 -1</clus>
<clus scale="   65.054">  1  4  2 -1</clus>
<clus scale="  119.250">  1  5  2 -1</clus>
<clus scale="   65.054">  1  3  2 -1</clus>
</clustering>
</event>
<event>
 6    0  0.1361744E+002  0.1168180E+03  0.7546771E-02  0.1248441E+00
         21   -1    0    0  503  502  0.00000000000E+00  0.00000000000E+00  0.49426893840E+02  0.49426893840E+02  0.00000000000E+00 0.  1.
          1   -1    0    0  505    0 -0.00000000000E+00 -0.00000000000E+00 -0.30837058941E+04  0.30837058941E+04  0.00000000000E+00 0.  1.
         21    1    1    2  503  501 -0.12287854770E+02 -0.73873630056E+02 -0.18965127178E+03  0.20390171524E+03  0.00000000000E+00 0. -1.
         21    1    1    2  504  502  0.11013714551E+03  0.21944324496E+01 -0.33866061471E+02  0.11524719725E+03  0.00000000000E+00 0.  1.
         21    1    1    2  505  504 -0.14527702875E+02  0.30096072297E+02 -0.38912320462E+03  0.39055562483E+03  0.00000000000E+00 0.  1.
          1    1    1    2  501    0 -0.83321587863E+02  0.41583125309E+02 -0.24216384624E+04  0.24234282506E+04  0.00000000000E+00 0.  1.
<scales pt_clust_3="72.90772" pt_clust_4="116.81803" pt_clust_5="33.41897" pt_clust_6="14000.00000"></scales>
<clustering>
<clus scale="   33.419">  2  5  1 -1</clus>
<clus scale="   72.908">  1  3  2 -1</clus>
<clus scale="  116.818">  1  4  2 -1</clus>
<clus scale="   72.908">  1  3  2 -1</clus>
</clustering>
</event>
<event>
 6    0  0.1361744E+002  0.2033541E+03  0.7546771E-02  0.1146940E+00
         21   -1    0    0  504  502  0.00000000000E+00  0.00000000000E+00  0.50779015334E+02  0.50779015334E+02  0.00000000000E+00 0. -1.
          2   -1    0    0  505    0 -0.00000000000E+00 -0.00000000000E+00 -0.18361478452E+04  0.18361478452E+04  0.00000000000E+00 0. -1.
         21    1    1    2  503  502 -0.20451017759E+02 -0.96525996680E+02 -0.11094838720E+03  0.14847577845E+03  0.00000000000E+00 0. -1.
         21    1    1    2  504  501  0.35361121833E+02  0.35152461324E+02 -0.11566891376E+03  0.12595793776E+03  0.00000000000E+00 0. -1.
         21    1    1    2  505  503 -0.58850426122E+02 -0.12600099290E+03 -0.22202038952E+03  0.26197838886E+03  0.00000000000E+00 0. -1.
          2    1    1    2  501    0  0.43940322049E+02  0.18737452825E+03 -0.13367311394E+04  0.13505147554E+04  0.00000000000E+00 0. -1.
<scales pt_clust_3="35.71121" pt_clust_4="49.86085" pt_clust_5="35.71121" pt_clust_6="198.88550"></scales>
<clustering>
<clus scale="   35.711">  3  5 -1 -1</clus>
<clus scale="   49.861">  1  4  2 -1</clus>
<clus scale="  198.885">  2  6  1 -1</clus>
<clus scale="   49.861">  1  3  2 -1</clus>
</clustering>
</event>
<event>
 6    0  0.1361744E+002  0.4660580E+03  0.7546771E-02  0.1023039E+00
         21   -1    0    0  505  502  0.00000000000E+00  0.00000000000E+00  0.14434208535E+04  0.14434208535E+04  0.00000000000E+00 0.  1.
          2   -1    0    0  502    0 -0.00000000000E+00 -0.00000000000E+00 -0.16325381110E+03  0.16325381110E+03  0.00000000000E+00 0.  1.
         21    1    1    2  503  501  0.89657431363E+02  0.87039822445E+02  0.16425298186E+03  0.20638175244E+03  0.00000000000E+00 0.  1.
         21    1    1    2  504  503  0.15948024599E+01 -0.42067593361E+02  0.75340636277E+02  0.86304329444E+02  0.00000000000E+00 0. -1.
         21    1    1    2  505  504 -0.28123079614E+03 -0.31721237579E+03  0.79531501195E+03  0.90124381844E+03  0.00000000000E+00 0.  1.
          2    1    1    2  501    0  0.18997856232E+03  0.27224014670E+03  0.24525841229E+03  0.41274476425E+03  0.00000000000E+00 0.  1.
<scales pt_clust_3="56.02785" pt_clust_4="31.40479" pt_clust_5="31.40479" pt_clust_6="464.34692"></scales>
<clustering>
<clus scale="   31.405">  4  5 -1 -1</clus>
<clus scale="   56.028">  3  6 -1 -1</clus>
<clus scale="  464.347">  2  3  1 -1</clus>
<clus scale="  466.058">  1  3  2 -1</clus>
</clustering>
</event>
<event>
 6    0  0.1361744E+002  0.2238284E+03  0.7546771E-02  0.1131061E+00
         21   -1    0    0  504  502  0.00000000000E+00  0.00000000000E+00  0.40965935258E+03  0.40965935258E+03  0.00000000000E+00 0.  1.
          1   -1    0    0  505    0 -0.00000000000E+00 -0.00000000000E+00 -0.19181816032E+04  0.19181816032E+04  0.00000000000E+00 0. -1.
         21    1    1    2  503  501 -0.50441994655E+02  0.47635383759E+01 -0.26855236136E+03  0.27329006004E+03  0.00000000000E+00 0. -1.
         21    1    1    2  504  503 -0.44818446540E+02  0.40532739500E+02  0.84045627503E+02  0.10351455755E+03  0.00000000000E+00 0.  1.
         21    1    1    2  505  502  0.25211509358E+03  0.84796978442E+01  0.25772219313E+03  0.36063091177E+03  0.00000000000E+00 0.  1.
          1    1    1    2  501    0 -0.15685465239E+03 -0.53775975720E+02 -0.15817377098E+04  0.15904054264E+04  0.00000000000E+00 0. -1.
<scales pt_clust_3="36.72251" pt_clust_4="60.42844" pt_clust_5="213.74222" pt_clust_6="36.72251"></scales>
<clustering>
<clus scale="   36.723">  3  6 -1 -1</clus>
<clus scale="   60.428">  1  4  2 -1</clus>
<clus scale="  213.742">  1  5  2 -1</clus>
<clus scale="   60.428">  1  3  2 -1</clus>
</clustering>
</event>
<event>
 6    0  0.1361744E+002  0.9161218E+02  0.7546771E-02  0.1298994E+00
         -2   -1    0    0    0  501 -0.00000000000E+00  0.00000000000E+00  0.36438190269E+03  0.36438190269E+03  0.00000000000E+00 0.  1.
         21   -1    0    0  503  502  0.00000000000E+00 -0.00000000000E+00 -0.79835267834E+03  0.79835267834E+03  0.00000000000E+00 0.  1.
         21    1    1    2  503  504 -0.80614645170E+01  0.11121876587E+03 -0.68885019131E+03  0.69781744544E+03  0.00000000000E+00 0.  1.
         21    1    1    2  504  501  0.56799368286E+02  0.36771217993E+02 -0.15994410720E+02  0.69527777792E+02  0.00000000000E+00 0.  1.
         21    1    1    2  505  502 -0.34154699855E+02 -0.31301976646E+02 -0.41135071320E+02  0.61955236717E+02  0.00000000000E+00 0.  1.
         -2    1    1    2    0  505 -0.14583203915E+02 -0.11668800721E+03  0.31200889770E+03  0.33343412109E+03  0.00000000000E+00 0.  1.
<scales pt_clust_3="91.61218" pt_clust_4="65.04889" pt_clust_5="46.32880" pt_clust_6="14000.00000"></scales>
<clustering>
<clus scale="   46.329">  2  5  1 -1</clus>
<clus scale="   65.049">  1  4  2 -1</clus>
<clus scale="   91.612">  2  3  1 -1</clus>
<clus scale="   46.329">  2  3  1 -1</clus>
</clustering>
</event>
<event>
 6    0  0.1361744E+002  0.1461900E+03  0.7546771E-02  0.1205234E+00
          1   -1    0    0  503    0 -0.00000000000E+00  0.00000000000E+00  0.76850629969E+03  0.76850629969E+03  0.00000000000E+00 0. -1.
         21   -1    0    0  505  502  0.00000000000E+00 -0.00000000000E+00 -0.72589302377E+03  0.72589302377E+03  0.00000000000E+00 0. -1.
         21    1    1    2  503  504 -0.63352976733E+02 -0.38729272284E+01  0.14016437659E+03  0.15386569368E+03  0.00000000000E+00 0.  1.
         21    1    1    2  504  502 -0.26748611450E+02 -0.34312439631E+02 -0.29652501942E+02  0.52650760672E+02  0.00000000000E+00 0.  1.
         21    1    1    2  505  501 -0.31886574316E+02 -0.99973779635E+02 -0.65972682990E+03  0.66802020952E+03  0.00000000000E+00 0. -1.
          1    1    1    2  501    0  0.12198816250E+03  0.13815914649E+03  0.59182823117E+03  0.61986265960E+03  0.00000000000E+00 0. -1.
<scales pt_clust_3="63.76014" pt_clust_4="43.50669" pt_clust_5="146.19002" pt_clust_6="14000.00000"></scales>
<clustering>
<clus scale="   43.507">  2  4  1 -1</clus>
<clus scale="   63.760">  1  3  2 -1</clus>
<clus scale="  146.190">  2  5  1 -1</clus>
<clus scale="   43.507">  2  3  1 -1</clus>
</clustering>
</event>
<event>
 6    0  0.1361744E+002  0.2489106E+03  0.7546771E-02  0.1113995E+00
         -1   -1    0    0    0  501 -0.00000000000E+00  0.00000000000E+00  0.15027307226E+04  0.15027307226E+04  0.00000000000E+00 0.  1.
         21   -1    0    0  501  502  0.00000000000E+00 -0.00000000000E+00 -0.12392030367E+03  0.12392030367E+03  0.00000000000E+00 0. -1.
         21    1    1    2  503  504  0.11727803321E+03 -0.18499372328E+03  0.53330153817E+01  0.21910101729E+03  0.00000000000E+00 0. -1.
         21    1    1    2  504  502  0.31771535228E+02 -0.15177397324E+02  0.55721390972E+02  0.65914014080E+02  0.00000000000E+00 0.  1.
         21    1    1    2  505  503 -0.68396905296E+02  0.10892425144E+03  0.60109199844E+03  0.61469847876E+03  0.00000000000E+00 0.  1.
         -1    1    1    2    0  505 -0.80652663143E+02  0.91246869164E+02  0.71666401414E+03  0.72693751613E+03  0.00000000000E+00 0.  1.
<scales pt_clust_3="246.44373" pt_clust_4="35.21056" pt_clust_5="34.01519" pt_clust_6="34.01519"></scales>
<clustering>
<clus scale="   34.015">  5  6 -1 -1</clus>
<clus scale="   35.211">  2  4  1 -1</clus>
<clus scale="  246.444">  2  3  1 -1</clus>
<clus scale="   35.211">  2  3  1 -1</clus>
</clustering>
</event>
<event>
 6    0  0.1448473E+002  0.8047271E+02  0.7546771E-02  0.1327715E+00
          4   -1    0    0  505    0 -0.00000000000E+00  0.00000000000E+00  0.89688697501E+03  0.89688697501E+03  0.00000000000E+00 0. -1.
         21   -1    0    0  504  502  0.00000000000E+00 -0.00000000000E+00 -0.62643061254E+03  0.62643061254E+03  0.00000000000E+00 0.  1.
         21    1    1    2  503  501 -0.70004884186E+02  0.13376194662E+00  0.68073181373E+02  0.97645582206E+02  0.00000000000E+00 0. -1.
         21    1    1    2  504  503  0.45726297435E+02 -0.12923909337E+02 -0.56364033950E+03  0.56563977408E+03  0.00000000000E+00 0.  1.
         21    1    1    2  505  502 -0.23695299767E+02 -0.53178486151E+02 -0.26042008198E+02  0.63777776782E+02  0.00000000000E+00 0.  1.
          4    1    1    2  501    0  0.47973886519E+02  0.65968633541E+02  0.79206552878E+03  0.79625445449E+03  0.00000000000E+00 0. -1.
<scales pt_clust_3="59.13686" pt_clust_4="47.51759" pt_clust_5="14000.00000" pt_clust_6="80.47271"></scales>
<clustering>
<clus scale="   47.518">  2  4  1 -1</clus>
<clus scale="   59.137">  2  3  1 -1</clus>
<clus scale="   80.473">  1  6  2 -1</clus>
<clus scale="   47.518">  2  3  1 -1</clus>
</clustering>
</event>
<event>
 6    0  0.1361744E+002  0.8917769E+02  0.7546771E-02  0.1304855E+00
          2   -1    0    0  505    0 -0.00000000000E+00  0.00000000000E+00  0.49167130338E+03  0.49167130338E+03  0.00000000000E+00 0.  1.
         21   -1    0    0  504  502  0.00000000000E+00 -0.00000000000E+00 -0.32844542101E+03  0.32844542101E+03  0.00000000000E+00 0.  1.
         21    1    1    2  503  502 -0.92886960401E+02  0.76417401381E+02 -0.16033863189E+03  0.20043972541E+03  0.00000000000E+00 0.  1.
         21    1    1    2  504  501  0.43199554466E+02 -0.60562963502E+02 -0.12428709608E+03  0.14484942633E+03  0.00000000000E+00 0.  1.
         21    1    1    2  505  503 -0.94062075134E+01 -0.34536593556E+02  0.17152305493E+02  0.39691996901E+02  0.00000000000E+00 0.  1.
          2    1    1    2  501    0  0.59093613448E+02  0.18682155677E+02  0.43069930484E+03  0.43513557575E+03  0.00000000000E+00 0.  1.
<scales pt_clust_3="14000.00000" pt_clust_4="89.17769" pt_clust_5="35.79460" pt_clust_6="52.10752"></scales>
<clustering>
<clus scale="   35.795">  1  5  2 -1</clus>
<clus scale="   52.108">  1  6  2 -1</clus>
<clus scale="   89.178">  2  4  1 -1</clus>
<clus scale="   89.178">  2  3  1 -1</clus>
</clustering>
</event>
<event>
 6    0  0.1361744E+002  0.1313991E+03  0.7546771E-02  0.1225394E+00
          2   -1    0    0  503    0 -0.00000000000E+00  0.00000000000E+00  0.19023813927E+03  0.19023813927E+03  0.00000000000E+00 0.  1.
         21   -1    0    0  501  502  0.00000000000E+00 -0.00000000000E+00 -0.23153306018E+04  0.23153306018E+04  0.00000000000E+00 0.  1.
         21    1    1    2  503  504 -0.26134115015E+02  0.24343275541E+02  0.38843068944E+02  0.52767139743E+02  0.00000000000E+00 0.  1.
         21    1    1    2  504  505  0.31527233713E+01 -0.40950936169E+02 -0.11670945845E+04  0.11678170611E+04  0.00000000000E+00 0.  1.
         21    1    1    2  505  502 -0.19595336362E+02 -0.80539626857E+02 -0.11196487541E+04  0.11227127599E+04  0.00000000000E+00 0.  1.
          2    1    1    2  501    0  0.42576728005E+02  0.97147287485E+02  0.12280780711E+03  0.16227178042E+03  0.00000000000E+00 0.  1.
<scales pt_clust_3="35.71536" pt_clust_4="33.76955" pt_clust_5="33.76955" pt_clust_6="122.32852"></scales>
<clustering>
<clus scale="   33.770">  4  5 -1 -1</clus>
<clus scale="   35.715">  1  3  2 -1</clus>
<clus scale="  122.329">  1  6  2 -1</clus>
<clus scale="  131.399">  2  3  1 -1</clus>
</clustering>
</event>
<event>
 6    0  0.1361744E+002  0.2905108E+03  0.7546771E-02  0.1090083E+00
         21   -1    0    0  503  502  0.00000000000E+00  0.00000000000E+00  0.17346000389E+04  0.17346000389E+04  0.00000000000E+00 0. -1.
          2   -1    0    0  505    0 -0.00000000000E+00 -0.00000000000E+00 -0.51316716962E+03  0.51316716962E+03  0.00000000000E+00 0. -1.
         21    1    1    2  503  501  0.82457944541E+02  0.55290452470E+01  0.65464316023E+02  0.10542988017E+03  0.00000000000E+00 0.  1.
         21    1    1    2  504  502  0.19864380650E+03  0.81463519716E+02  0.15746900499E+04  0.15892590790E+04  0.00000000000E+00 0. -1.
         21    1    1    2  505  504 -0.20362361880E+02  0.37695743172E+02  0.17207687615E+01  0.42878384761E+02  0.00000000000E+00 0.  1.
          2    1    1    2  501    0 -0.26073938916E+03 -0.12468830813E+03 -0.42044226543E+03  0.51019986457E+03  0.00000000000E+00 0. -1.
<scales pt_clust_3="81.93648" pt_clust_4="14000.00000" pt_clust_5="42.84384" pt_clust_6="290.51083"></scales>
<clustering>
<clus scale="   42.844">  2  5  1 -1</clus>
<clus scale="   81.936">  1  3  2 -1</clus>
<clus scale="  290.511">  2  6  1 -1</clus>
<clus scale="   81.936">  1  3  2 -1</clus>
</clustering>
</event>
<event>
 6    0  0.1361744E+002  0.1433253E+03  0.7546771E-02  0.1208923E+00
          1   -1    0    0  504    0 -0.00000000000E+00  0.00000000000E+00  0.29122210832E+03  0.29122210832E+03  0.00000000000E+00 0. -1.
         21   -1    0    0  505  502  0.00000000000E+00 -0.00000000000E+00 -0.31825945365E+03  0.31825945365E+03  0.00000000000E+00 0.  1.
         21    1    1    2  503  502  0.85771045211E+02  0.67536354088E+02 -0.24295058850E+03  0.26635093349E+03  0.00000000000E+00 0.  1.
         21    1    1    2  504  503  0.23430191306E+02  0.28604697626E+02 -0.29708495401E+02  0.47432028103E+02  0.00000000000E+00 0. -1.
         21    1    1    2  505  501 -0.60582372631E+02 -0.52955395553E+02  0.64084318049E+02  0.10286543448E+03  0.00000000000E+00 0.  1.
          1    1    1    2  501    0 -0.48618863885E+02 -0.43185656161E+02  0.18153742052E+03  0.19283316590E+03  0.00000000000E+00 0. -1.
<scales pt_clust_3="31.60302" pt_clust_4="31.60302" pt_clust_5="132.64001" pt_clust_6="65.02918"></scales>
<clustering>
<clus scale="   31.603">  3  4 -1 -1</clus>
<clus scale="   65.029">  1  6  2 -1</clus>
<clus scale="  132.640">  1  5  2 -1</clus>
<clus scale="  143.325">  2  3  1 -1</clus>
</clustering>
</event>
<event>
 6    0  0.1361744E+002  0.1000806E+03  0.7546771E-02  0.1280127E+00
         21   -1    0    0  505  502  0.00000000000E+00  0.00000000000E+00  0.43750026224E+02  0.43750026224E+02  0.00000000000E+00 0.  1.
          2   -1    0    0  504    0 -0.00000000000E+00 -0.00000000000E+00 -0.13264768710E+04  0.13264768710E+04  0.00000000000E+00 0. -1.
         21    1    1    2  503  501  0.55075540838E+02 -0.44874577455E+01 -0.53660219464E+02  0.77025136342E+02  0.00000000000E+00 0.  1.
         21    1    1    2  504  502 -0.39080619048E+02  0.57967329027E+02 -0.13488674608E+03  0.15192741783E+03  0.00000000000E+00 0. -1.
         21    1    1    2  505  503  0.56917686358E+02  0.62611039196E+01 -0.16654521129E+02  0.59633862165E+02  0.00000000000E+00 0.  1.
          2    1    1    2  501    0 -0.72912608148E+02 -0.59740975201E+02 -0.10775253581E+04  0.10816404809E+04  0.00000000000E+00 0. -1.
<scales pt_clust_3="33.82911" pt_clust_4="69.91070" pt_clust_5="33.82911" pt_clust_6="93.96933"></scales>
<clustering>
<clus scale="   33.829">  3  5 -1 -1</clus>
<clus scale="   69.911">  1  4  2 -1</clus>
<clus scale="   93.969">  2  6  1 -1</clus>
<clus scale="   69.911">  1  3  2 -1</clus>
</clustering>
</event>
<event>
 6    0  0.1361744E+002  0.1350406E+03  0.7546771E-02  0.1220162E+00
         21   -1    0    0  503  502  0.00000000000E+00  0.00000000000E+00  0.29874953566E+03  0.29874953566E+03  0.00000000000E+00 0. -1.
          4   -1    0    0  504    0 -0.00000000000E+00 -0.00000000000E+00 -0.10032124745E+03  0.10032124745E+03  0.00000000000E+00 0.  1.
         21    1    1    2  503  505  0.68415315811E+02  0.39845508018E+02  0.62121774890E+02  0.10063515719E+03  0.00000000000E+00 0. -1.
         21    1    1    2  504  502 -0.11316879717E+03 -0.23679173296E+02  0.28769319876E+02  0.11914509502E+03  0.00000000000E+00 0.  1.
         21    1    1    2  505  501  0.40600959545E+02  0.38555180466E+02  0.11097972395E+03  0.12430381726E+03  0.00000000000E+00 0. -1.
          4    1    1    2  501    0  0.41525218143E+01 -0.54721515188E+02 -0.34425305079E+01  0.54986713651E+02  0.00000000000E+00 0.  1.
<scales pt_clust_3="42.89825" pt_clust_4="125.03509" pt_clust_5="42.89825" pt_clust_6="54.87885"></scales>
<clustering>
<clus scale="   42.898">  3  5 -1 -1</clus>
<clus scale="   54.879">  2  6  1 -1</clus>
<clus scale="  125.035">  2  4  1 -1</clus>
<clus scale="  135.041">  1  3  2 -1</clus>
</clustering>
</event>
<event>
 6    0  0.1361744E+002  0.1330969E+03  0.7546771E-02  0.1222931E+00
          2   -1    0    0  505    0 -0.00000000000E+00  0.00000000000E+00  0.36487089623E+04  0.36487089623E+04  0.00000000000E+00 0.  1.
         21   -1    0    0  504  502  0.00000000000E+00 -0.00000000000E+00 -0.16058774186E+04  0.16058774186E+04  0.00000000000E+00 0.  1.
         21    1    1    2  503  502 -0.12950064345E+02  0.62535911188E+02 -0.10618869067E+04  0.10638055494E+04  0.00000000000E+00 0.  1.
         21    1    1    2  504  501 -0.11884031947E+02 -0.46314919353E+02  0.15366308553E+04  0.15373746087E+04  0.00000000000E+00 0.  1.
         21    1    1    2  505  503 -0.65500200091E+01  0.62040322489E+02 -0.54002073519E+03  0.54361226882E+03  0.00000000000E+00 0.  1.
          2    1    1    2  501    0  0.31384116301E+02 -0.78261314324E+02  0.21081083303E+04  0.21097939540E+04  0.00000000000E+00 0.  1.
<scales pt_clust_3="132.98101" pt_clust_4="32.08438" pt_clust_5="41.75131" pt_clust_6="32.08438"></scales>
<clustering>
<clus scale="   32.084">  4  6 -1 -1</clus>
<clus scale="   41.751">  3  5 -1 -1</clus>
<clus scale="  132.981">  2  3  1 -1</clus>
<clus scale="  132.981">  2  3  1 -1</clus>
</clustering>
</event>
<event>
 6    0  0.1361744E+002  0.1561209E+03  0.7546771E-02  0.1193147E+00
         21   -1    0    0  505  502  0.00000000000E+00  0.00000000000E+00  0.10570975012E+03  0.10570975012E+03  0.00000000000E+00 0.  1.
          1   -1    0    0  502    0 -0.00000000000E+00 -0.00000000000E+00 -0.32064006936E+03  0.32064006936E+03  0.00000000000E+00 0.  1.
         21    1    1    2  503  501 -0.37383429517E+02  0.45928583095E+02 -0.44393085011E+02  0.74011496028E+02  0.00000000000E+00 0. -1.
         21    1    1    2  504  503 -0.30017250528E+02  0.10916158063E+03 -0.32213293551E+02  0.11770718881E+03  0.00000000000E+00 0.  1.
         21    1    1    2  505  504 -0.59759247233E+01 -0.37095170837E+02  0.13718854806E+01  0.37598476638E+02  0.00000000000E+00 0.  1.
          1    1    1    2  501    0  0.73376604769E+02 -0.11799499289E+03 -0.13969582616E+03  0.19703265801E+03  0.00000000000E+00 0.  1.
<scales pt_clust_3="34.62287" pt_clust_4="34.62287" pt_clust_5="37.57344" pt_clust_6="148.60024"></scales>
<clustering>
<clus scale="   34.623">  3  4 -1 -1</clus>
<clus scale="   37.573">  1  5  2 -1</clus>
<clus scale="  148.600">  2  6  1 -1</clus>
<clus scale="   37.573">  1  3  2 -1</clus>
</clustering>
</event>
<event>
 6    0  0.1361744E+002  0.1125509E+03  0.7546771E-02  0.1255918E+00
          1   -1    0    0  504    0 -0.00000000000E+00  0.00000000000E+00  0.68583707527E+03  0.68583707527E+03  0.00000000000E+00 0.  1.
         21   -1    0    0  505  502  0.00000000000E+00 -0.00000000000E+00 -0.19973619298E+03  0.19973619298E+03  0.00000000000E+00 0. -1.
         21    1    1    2  503  502 -0.43514982847E+02 -0.61300422441E+02 -0.46302476268E+02  0.88290513829E+02  0.00000000000E+00 0. -1.
         21    1    1    2  504  503  0.42295961243E+02  0.26377232107E+02  0.13826830194E+03  0.14697901222E+03  0.00000000000E+00 0.  1.
         21    1    1    2  505  501  0.14982120910E+02 -0.57801139076E+02 -0.11661997593E+03  0.13101776373E+03  0.00000000000E+00 0. -1.
          1    1    1    2  501    0 -0.13763099305E+02  0.92724329410E+02  0.51075503255E+03  0.51928597848E+03  0.00000000000E+00 0.  1.
<scales pt_clust_3="112.55088" pt_clust_4="49.84683" pt_clust_5="59.51687" pt_clust_6="14000.00000"></scales>
<clustering>
<clus scale="   49.847">  1  4  2 -1</clus>
<clus scale="   59.517">  2  5  1 -1</clus>
<clus scale="  112.551">  2  3  1 -1</clus>
<clus scale="   59.517">  2  3  1 -1</clus>
</clustering>
</event>
<event>
 6    0  0.1361744E+002  0.1717986E+03  0.7546771E-02  0.1175985E+00
         21   -1    0    0  504  502  0.00000000000E+00  0.00000000000E+00  0.38282793800E+03  0.38282793800E+03  0.00000000000E+00 0. -1.
          2   -1    0    0  503    0 -0.00000000000E+00 -0.00000000000E+00 -0.61864143900E+03  0.61864143900E+03  0.00000000000E+00 0. -1.
         21    1    1    2  503  505  0.14098025953E+03  0.15329610691E+02  0.42476135152E+02  0.14803598414E+03  0.00000000000E+00 0.  1.
         21    1    1    2  504  501 -0.63938478349E+02  0.32104887063E+02 -0.15589746358E+03  0.17153096496E+03  0.00000000000E+00 0.  1.
         21    1    1    2  505  502  0.19282612559E+02 -0.61583426233E+02  0.27000413764E+03  0.27760866679E+03  0.00000000000E+00 0. -1.
          2    1    1    2  501    0 -0.96324393744E+02  0.14148928480E+02 -0.39239631021E+03  0.40429376112E+03  0.00000000000E+00 0. -1.
<scales pt_clust_3="162.45090" pt_clust_4="47.91749" pt_clust_5="64.53168" pt_clust_6="47.91749"></scales>
<clustering>
<clus scale="   47.917">  4  6 -1 -1</clus>
<clus scale="   64.532">  1  5  2 -1</clus>
<clus scale="  162.451">  1  3  2 -1</clus>
<clus scale="   64.532">  1  3  2 -1</clus>
</clustering>
</event>
<event>
 6    0  0.1361744E+002  0.1425186E+03  0.7546771E-02  0.1209980E+00
          4   -1    0    0  503    0 -0.00000000000E+00  0.00000000000E+00  0.10414307864E+04  0.10414307864E+04  0.00000000000E+00 0. -1.
         21   -1    0    0  505  502  0.00000000000E+00 -0.00000000000E+00 -0.87735282191E+03  0.87735282191E+03  0.00000000000E+00 0. -1.
         21    1    1    2  503  504  0.20836942359E+02 -0.11390278763E+03  0.35272122604E+03  0.37124154737E+03  0.00000000000E+00 0.  1.
         21    1    1    2  504  502  0.88334664567E+02  0.95888309489E+01 -0.49577786841E+02  0.10174927809E+03  0.00000000000E+00 0.  1.
         21    1    1    2  505  501 -0.10240578153E+03 -0.74611970304E+02 -0.77491931806E+03  0.78520942411E+03  0.00000000000E+00 0. -1.
          4    1    1    2  501    0 -0.67658253945E+01  0.17892592699E+03  0.63585384336E+03  0.66058335875E+03  0.00000000000E+00 0. -1.
<scales pt_clust_3="142.51855" pt_clust_4="88.85358" pt_clust_5="67.32341" pt_clust_6="14000.00000"></scales>
<clustering>
<clus scale="   88.854">  2  4  1 -1</clus>
<clus scale="   67.323">  2  5  1 -1</clus>
<clus scale="  142.519">  1  3  2 -1</clus>
<clus scale="   88.854">  2  3  1 -1</clus>
</clustering>
</event>
<event>
 6    0  0.1361744E+002  0.8361638E+02  0.7546771E-02  0.1319091E+00
         21   -1    0    0  505  502  0.00000000000E+00  0.00000000000E+00  0.10760233469E+03  0.10760233469E+03  0.00000000000E+00 0.  1.
          2   -1    0    0  504    0 -0.00000000000E+00 -0.00000000000E+00 -0.19581842335E+04  0.19581842335E+04  0.00000000000E+00 0.  1.
         21    1    1    2  503  502 -0.33927485015E+02  0.87852340586E+01  0.69066241029E+01  0.35720526780E+02  0.00000000000E+00 0. -1.
         21    1    1    2  504  503  0.53189903343E+02 -0.43942095533E+02 -0.33899914185E+03  0.34594868370E+03  0.00000000000E+00 0. -1.
         21    1    1    2  505  501  0.88494777812E+02  0.53113031617E+02  0.47998308442E+02  0.11382511779E+03  0.00000000000E+00 0.  1.
          2    1    1    2  501    0 -0.10775719614E+03 -0.17956170143E+02 -0.15664876895E+04  0.15702922399E+04  0.00000000000E+00 0.  1.
<scales pt_clust_3="35.04646" pt_clust_4="67.71732" pt_clust_5="14000.00000" pt_clust_6="83.61638"></scales>
<clustering>
<clus scale="   35.046">  1  3  2 -1</clus>
<clus scale="   67.717">  2  4  1 -1</clus>
<clus scale="   83.616">  2  6  1 -1</clus>
<clus scale="   35.046">  1  3  2 -1</clus>
</clustering>
</event>
<event>
 6    0  0.1361744E+002  0.9603157E+02  0.7546771E-02  0.1288870E+00
          3   -1    0    0  503    0 -0.00000000000E+00  0.00000000000E+00  0.22968573992E+03  0.22968573992E+03  0.00000000000E+00 0. -1.
         21   -1    0    0  505  502  0.00000000000E+00 -0.00000000000E+00 -0.24967161903E+03  0.24967161903E+03  0.00000000000E+00 0. -1.
         21    1    1    2  503  502  0.18711161424E+02 -0.39375067137E+02 -0.20133110999E+01  0.43641229308E+02  0.00000000000E+00 0. -1.
         21    1    1    2  504  501 -0.84103456422E+02  0.91617896098E+02  0.59321487589E+02  0.13779067152E+03  0.00000000000E+00 0. -1.
         21    1    1    2  505  504  0.48516391900E+02 -0.79242323437E+02 -0.17337679706E+03  0.19670460052E+03  0.00000000000E+00 0. -1.
          3    1    1    2  501    0  0.16875903098E+02  0.26999494475E+02  0.96082741462E+02  0.10122085760E+03  0.00000000000E+00 0. -1.
<scales pt_clust_3="41.09333" pt_clust_4="96.03157" pt_clust_5="14000.00000" pt_clust_6="31.83974"></scales>
<clustering>
<clus scale="   31.840">  1  6  2 -1</clus>
<clus scale="   41.093">  1  3  2 -1</clus>
<clus scale="   96.032">  1  4  2 -1</clus>
<clus scale="   96.032">  2  3  1 -1</clus>
</clustering>
</event>
<event>
 6    0  0.1361744E+002  0.9271913E+02  0.7546771E-02  0.1296397E+00
          2   -1    0    0  504    0 -0.00000000000E+00  0.00000000000E+00  0.80362796068E+03  0.80362796068E+03  0.00000000000E+00 0.  1.
         21   -1    0    0  505  502  0.00000000000E+00 -0.00000000000E+00 -0.37422852173E+03  0.37422852173E+03  0.00000000000E+00 0. -1.
         21    1    1    2  503  502  0.58505025417E+02 -0.11711558462E+03 -0.33978421942E+03  0.36413213800E+03  0.00000000000E+00 0. -1.
         21    1    1    2  504  503  0.43603420098E+02  0.66541567391E+02  0.43368188052E+03  0.44091837331E+03  0.00000000000E+00 0.  1.
         21    1    1    2  505  501 -0.26059795529E+02  0.26824353559E+02  0.11462022464E+02  0.39115685420E+02  0.00000000000E+00 0.  1.
          2    1    1    2  501    0 -0.76048649985E+02  0.23749663675E+02  0.32403975538E+03  0.33369028568E+03  0.00000000000E+00 0.  1.
<scales pt_clust_3="14000.00000" pt_clust_4="79.63795" pt_clust_5="37.39865" pt_clust_6="92.71913"></scales>
<clustering>
<clus scale="   37.399">  2  5  1 -1</clus>
<clus scale="   79.638">  1  4  2 -1</clus>
<clus scale="   92.719">  1  6  2 -1</clus>
<clus scale="   37.399">  2  3  1 -1</clus>
</clustering>
</event>
<event>
 6    0  0.1361744E+002  0.1262361E+03  0.7546771E-02  0.1233150E+00
         21   -1    0    0  505  502  0.00000000000E+00  0.00000000000E+00  0.33184808982E+03  0.33184808982E+03  0.00000000000E+00 0.  1.
          2   -1    0    0  504    0 -0.00000000000E+00 -0.00000000000E+00 -0.23645744681E+03  0.23645744681E+03  0.00000000000E+00 0. -1.
         21    1    1    2  503  502  0.71391353833E+01 -0.31771516216E+02  0.94634085270E+02  0.10008000096E+03  0.00000000000E+00 0. -1.
         21    1    1    2  504  503  0.10826339943E+03  0.85282640333E+01 -0.75648334191E+02  0.13234940653E+03  0.00000000000E+00 0.  1.
         21    1    1    2  505  501  0.41004658416E+02  0.33611986609E+02  0.15262847608E+03  0.16157536744E+03  0.00000000000E+00 0.  1.
          2    1    1    2  501    0 -0.15640719323E+03 -0.10368734426E+02 -0.76223584146E+02  0.17430076170E+03  0.00000000000E+00 0. -1.
<scales pt_clust_3="32.56373" pt_clust_4="14000.00000" pt_clust_5="47.41773" pt_clust_6="126.23615"></scales>
<clustering>
<clus scale="   32.564">  1  3  2 -1</clus>
<clus scale="   47.418">  1  5  2 -1</clus>
<clus scale="  126.236">  1  6  2 -1</clus>
<clus scale="   32.564">  1  3  2 -1</clus>
</clustering>
</event>
<event>
 6    0  0.1361744E+002  0.2852073E+03  0.7546771E-02  0.1092878E+00
         21   -1    0    0  501  502  0.00000000000E+00  0.00000000000E+00  0.57037335160E+03  0.57037335160E+03  0.00000000000E+00 0. -1.
          1   -1    0    0  503    0 -0.00000000000E+00 -0.00000000000E+00 -0.56090549095E+03  0.56090549095E+03  0.00000000000E+00 0. -1.
         21    1    1    2  503  505  0.90924738684E+02  0.11106417504E+03 -0.37280783822E+03  0.39948497258E+03  0.00000000000E+00 0. -1.
         21    1    1    2  504  502 -0.15372415176E+03 -0.43273144059E+02  0.29940297553E+03  0.33933143324E+03  0.00000000000E+00 0. -1.
         21    1    1    2  505  504 -0.86468685484E+02 -0.12524959110E+03  0.15480025480E+03  0.21708849008E+03  0.00000000000E+00 0. -1.
          1    1    1    2  501    0  0.14926809856E+03  0.57458560124E+02 -0.71927531457E+02  0.17537394664E+03  0.00000000000E+00 0. -1.
<scales pt_clust_3="143.53592" pt_clust_4="128.06931" pt_clust_5="128.06931" pt_clust_6="253.24530"></scales>
<clustering>
<clus scale="  128.069">  4  5 -1 -1</clus>
<clus scale="  143.536">  2  3  1 -1</clus>
<clus scale="  253.245">  2  6  1 -1</clus>
<clus scale="  285.207">  1  3  2 -1</clus>
</clustering>
</event>
<event>
 6    0  0.1361744E+002  0.7072010E+02  0.7546771E-02  0.1357661E+00
          2   -1    0    0  505    0 -0.00000000000E+00  0.00000000000E+00  0.15391024245E+04  0.15391024245E+04  0.00000000000E+00 0. -1.
         21   -1    0    0  501  502  0.00000000000E+00 -0.00000000000E+00 -0.99653112093E+03  0.99653112093E+03  0.00000000000E+00 0. -1.
         21    1    1    2  503  504 -0.19232453634E+01  0.85838087407E+02 -0.45328675259E+03  0.46134667680E+03  0.00000000000E+00 0. -1.
         21    1    1    2  504  502 -0.49723366555E+02 -0.50781251170E+02 -0.53160536919E+03  0.53633517244E+03  0.00000000000E+00 0. -1.
         21    1    1    2  505  503 -0.42259484851E+02  0.26756472095E+02  0.21769590873E+03  0.22336804054E+03  0.00000000000E+00 0.  1.
          2    1    1    2  501    0  0.93906096770E+02 -0.61813308333E+02  0.13097675166E+04  0.13145836557E+04  0.00000000000E+00 0. -1.
<scales pt_clust_3="14000.00000" pt_clust_4="70.72010" pt_clust_5="50.01773" pt_clust_6="62.66324"></scales>
<clustering>
<clus scale="   50.018">  1  5  2 -1</clus>
<clus scale="   62.663">  1  6  2 -1</clus>
<clus scale="   70.720">  2  4  1 -1</clus>
<clus scale="   70.720">  2  3  1 -1</clus>
</clustering>
</event>
<event>
 6    0  0.1361744E+002  0.1864140E+03  0.7546771E-02  0.1161736E+00
          1   -1    0    0  502    0 -0.00000000000E+00  0.00000000000E+00  0.11793641112E+04  0.11793641112E+04  0.00000000000E+00 0. -1.
         21   -1    0    0  504  502  0.00000000000E+00 -0.00000000000E+00 -0.85614684326E+02  0.85614684326E+02  0.00000000000E+00 0. -1.
         21    1    1    2  503  505  0.11782737253E+02 -0.11951997973E+03  0.14557263868E+02  0.12097839635E+03  0.00000000000E+00 0. -1.
         21    1    1    2  504  503  0.13017419761E+02 -0.71358264264E+02  0.43023990643E+02  0.84335750823E+02  0.00000000000E+00 0. -1.
         21    1    1    2  505  501 -0.65182899965E+02  0.12477117134E+03  0.57140828028E+03  0.58849305724E+03  0.00000000000E+00 0. -1.
          1    1    1    2  501    0  0.40382742951E+02  0.66107072653E+02  0.46475989208E+03  0.47117159111E+03  0.00000000000E+00 0. -1.
<scales pt_clust_3="32.86855" pt_clust_4="32.86855" pt_clust_5="181.55284" pt_clust_6="77.46555"></scales>
<clustering>
<clus scale="   32.869">  3  4 -1 -1</clus>
<clus scale="   77.466">  1  6  2 -1</clus>
<clus scale="  181.553">  1  5  2 -1</clus>
<clus scale="  186.414">  2  3  1 -1</clus>
</clustering>
</event>
<event>
 6    0  0.1361744E+002  0.9099768E+02  0.7546771E-02  0.1300453E+00
          2   -1    0    0  503    0 -0.00000000000E+00  0.00000000000E+00  0.12482663212E+04  0.12482663212E+04  0.00000000000E+00 0. -1.
         21   -1    0    0  501  502  0.00000000000E+00 -0.00000000000E+00 -0.29677606928E+03  0.29677606928E+03  0.00000000000E+00 0.  1.
         21    1    1    2  503  505 -0.66186582157E+02 -0.16933779711E+02  0.13221541827E+03  0.14882316144E+03  0.00000000000E+00 0. -1.
         21    1    1    2  504  502 -0.86745047964E+02  0.38518206182E+02 -0.24190634653E+03  0.25985964682E+03  0.00000000000E+00 0.  1.
         21    1    1    2  505  504  0.77011090954E+02 -0.48110164597E+01  0.50028266437E+01  0.77323232497E+02  0.00000000000E+00 0.  1.
          2    1    1    2  501    0  0.75920539167E+02 -0.16773410012E+02  0.10561783535E+04  0.10590363497E+04  0.00000000000E+00 0. -1.
<scales pt_clust_3="68.31849" pt_clust_4="90.99768" pt_clust_5="14000.00000" pt_clust_6="35.31483"></scales>
<clustering>
<clus scale="   68.318">  1  3  2 -1</clus>
<clus scale="   35.315">  1  6  2 -1</clus>
<clus scale="   90.998">  2  4  1 -1</clus>
<clus scale="   90.998">  2  3  1 -1</clus>
</clustering>
</event>
<event>
 6    0  0.1361744E+002  0.1193329E+03  0.7546771E-02  0.1244202E+00
         21   -1    0    0  505  502  0.00000000000E+00  0.00000000000E+00  0.10406297502E+04  0.10406297502E+04  0.00000000000E+00 0. -1.
          1   -1    0    0  504    0 -0.00000000000E+00 -0.00000000000E+00 -0.70445334692E+03  0.70445334692E+03  0.00000000000E+00 0. -1.
         21    1    1    2  503  502 -0.84371778502E+02 -0.13169854823E+02  0.42835308777E+03  0.43678187907E+03  0.00000000000E+00 0. -1.
         21    1    1    2  504  503  0.55313379540E+02 -0.31123892103E+02 -0.37858520550E+03  0.38386849889E+03  0.00000000000E+00 0. -1.
         21    1    1    2  505  501 -0.37155821684E+02  0.10374635765E+02  0.60045574224E+03  0.60169368166E+03  0.00000000000E+00 0. -1.
          1    1    1    2  501    0  0.66214220647E+02  0.33919111161E+02 -0.31404722127E+03  0.32273903747E+03  0.00000000000E+00 0. -1.
<scales pt_clust_3="119.33287" pt_clust_4="63.24347" pt_clust_5="38.57704" pt_clust_6="14000.00000"></scales>
<clustering>
<clus scale="   38.577">  1  5  2 -1</clus>
<clus scale="   63.243">  2  4  1 -1</clus>
<clus scale="  119.333">  1  3  2 -1</clus>
<clus scale="   38.577">  1  3  2 -1</clus>
</clustering>
</event>
<event>
 6    0  0.1361744E+002  0.1084006E+03  0.7546771E-02  0.1263561E+00
          1   -1    0    0  503    0 -0.00000000000E+00  0.00000000000E+00  0.74408298243E+03  0.74408298243E+03  0.00000000000E+00 0. -1.
         21   -1    0    0  505  502  0.00000000000E+00 -0.00000000000E+00 -0.50323937099E+03  0.50323937099E+03  0.00000000000E+00 0. -1.
         21    1    1    2  503  504 -0.25201456961E+02 -0.25911840825E+02  0.25278627000E+02  0.44108342872E+02  0.00000000000E+00 0.  1.
         21    1    1    2  504  502 -0.13111539281E+03  0.75904253973E+01 -0.40378629767E+03  0.42460833127E+03  0.00000000000E+00 0. -1.
         21    1    1    2  505  501  0.31065603448E+02  0.31703526233E+02 -0.67232247593E+02  0.80562773100E+02  0.00000000000E+00 0.  1.
          1    1    1    2  501    0  0.12525124633E+03 -0.13382110806E+02  0.68658352971E+03  0.69804290617E+03  0.00000000000E+00 0. -1.
<scales pt_clust_3="36.14605" pt_clust_4="14000.00000" pt_clust_5="44.04715" pt_clust_6="108.40063"></scales>
<clustering>
<clus scale="   36.146">  1  3  2 -1</clus>
<clus scale="   44.047">  2  5  1 -1</clus>
<clus scale="  108.401">  1  6  2 -1</clus>
<clus scale="   44.047">  2  3  1 -1</clus>
</clustering>
</event>
<event>
 6    0  0.1361744E+002  0.4820219E+03  0.7546771E-02  0.1018581E+00
         21   -1    0    0  505  502  0.00000000000E+00  0.00000000000E+00  0.34461000173E+03  0.34461000173E+03  0.00000000000E+00 0. -1.
          2   -1    0    0  504    0 -0.00000000000E+00 -0.00000000000E+00 -0.72588491867E+03  0.72588491867E+03  0.00000000000E+00 0. -1.
         21    1    1    2  503  502 -0.35990435241E+03  0.16488273890E+03 -0.35141099394E+02  0.39743220471E+03  0.00000000000E+00 0. -1.
         21    1    1    2  504  503 -0.70594530520E+02  0.52194861441E+01  0.12988214781E+02  0.71968913415E+02  0.00000000000E+00 0. -1.
         21    1    1    2  505  501  0.16481384618E+03  0.28575065266E+01 -0.13024172090E+03  0.21008254354E+03  0.00000000000E+00 0. -1.
          2    1    1    2  501    0  0.26568503675E+03 -0.17295973157E+03 -0.22888031143E+03  0.39101125874E+03  0.00000000000E+00 0. -1.
<scales pt_clust_3="468.87809" pt_clust_4="31.59487" pt_clust_5="96.96079" pt_clust_6="96.96079"></scales>
<clustering>
<clus scale="   31.595">  3  4 -1 -1</clus>
<clus scale="   96.961">  5  6 -1 -1</clus>
<clus scale="  468.878">  1  3  2 -1</clus>
<clus scale="  468.878">  1  3  2 -1</clus>
</clustering>
</event>
<event>
 6    0  0.1361744E+002  0.9666775E+02  0.7546771E-02  0.1287463E+00
         21   -1    0    0  501  502  0.00000000000E+00  0.00000000000E+00  0.12943030628E+03  0.12943030628E+03  0.00000000000E+00 0.  1.
          2   -1    0    0  505    0 -0.00000000000E+00 -0.00000000000E+00 -0.55365986647E+03  0.55365986647E+03  0.00000000000E+00 0.  1.
         21    1    1    2  503  502 -0.20280334544E+02 -0.35930332155E+02  0.44592290194E+02  0.60751568562E+02  0.00000000000E+00 0.  1.
         21    1    1    2  504  503  0.11035381505E+03 -0.80305696258E+01  0.23554609631E+02  0.11312503781E+03  0.00000000000E+00 0.  1.
         21    1    1    2  505  504 -0.34572561825E+02  0.19336549069E+02 -0.55777072416E+02  0.68412323220E+02  0.00000000000E+00 0.  1.
          2    1    1    2  501    0 -0.55500918678E+02  0.24624352712E+02 -0.43659938760E+03  0.44080124316E+03  0.00000000000E+00 0.  1.
<scales pt_clust_3="41.26638" pt_clust_4="96.66775" pt_clust_5="39.61268" pt_clust_6="14000.00000"></scales>
<clustering>
<clus scale="   39.613">  2  5  1 -1</clus>
<clus scale="   41.266">  1  3  2 -1</clus>
<clus scale="   96.668">  1  4  2 -1</clus>
<clus scale="   41.266">  1  3  2 -1</clus>
</clustering>
</event>
<event>
 6    0  0.1361744E+002  0.2555377E+03  0.7546771E-02  0.1109854E+00
         21   -1    0    0  501  502  0.00000000000E+00  0.00000000000E+00  0.17575350432E+03  0.17575350432E+03  0.00000000000E+00 0. -1.
          2   -1    0    0  505    0 -0.00000000000E+00 -0.00000000000E+00 -0.11503232838E+04  0.11503232838E+04  0.00000000000E+00 0. -1.
         21    1    1    2  503  502 -0.81902903374E+02  0.90166690098E+02  0.28179082648E+02  0.12502870984E+03  0.00000000000E+00 0. -1.
         21    1    1    2  504  503 -0.21068643147E+02  0.14842763496E+03 -0.54222027378E+01  0.15001350215E+03  0.00000000000E+00 0. -1.
         21    1    1    2  505  504  0.45701193490E+02 -0.61469304982E+02 -0.67090231101E+03  0.67526067963E+03  0.00000000000E+00 0. -1.
          2    1    1    2  501    0  0.57270353030E+02 -0.17712502008E+03 -0.32642434840E+03  0.37577389651E+03  0.00000000000E+00 0. -1.
<scales pt_clust_3="78.95266" pt_clust_4="78.95266" pt_clust_5="76.59683" pt_clust_6="240.20729"></scales>
<clustering>
<clus scale="   76.597">  2  5  1 -1</clus>
<clus scale="   78.953">  3  4 -1 -1</clus>
<clus scale="  240.207">  2  6  1 -1</clus>
<clus scale="  255.538">  1  3  2 -1</clus>
</clustering>
</event>
<event>
 6    0  0.1361744E+002  0.1379072E+03  0.7546771E-02  0.1216173E+00
         21   -1    0    0  503  502  0.00000000000E+00  0.00000000000E+00  0.16881388749E+03  0.16881388749E+03  0.00000000000E+00 0. -1.
          1   -1    0    0  505    0 -0.00000000000E+00 -0.00000000000E+00 -0.26294798699E+03  0.26294798699E+03  0.00000000000E+00 0. -1.
         21    1    1    2  503  501 -0.12143029915E+02 -0.51548996520E+02 -0.56523431811E+02  0.77457411275E+02  0.00000000000E+00 0. -1.
         21    1    1    2  504  502  0.79127262209E+01  0.73848920845E+02  0.83278793968E+02  0.11158688037E+03  0.00000000000E+00 0. -1.
         21    1    1    2  505  504  0.38759730875E+02  0.46565714665E+02  0.34182818111E+02  0.69563981872E+02  0.00000000000E+00 0. -1.
          1    1    1    2  501    0 -0.34529427181E+02 -0.68865638991E+02 -0.15507227977E+03  0.17315360097E+03  0.00000000000E+00 0. -1.
<scales pt_clust_3="30.52204" pt_clust_4="43.69386" pt_clust_5="43.69386" pt_clust_6="134.28751"></scales>
<clustering>
<clus scale="   30.522">  3  6 -1 -1</clus>
<clus scale="   43.694">  4  5 -1 -1</clus>
<clus scale="  134.288">  2  3  1 -1</clus>
<clus scale="  137.907">  1  3  2 -1</clus>
</clustering>
</event>
<event>
 6    0  0.1361744E+002  0.5485384E+02  0.7546771E-02  0.1420791E+00
         21   -1    0    0  503  502  0.00000000000E+00  0.00000000000E+00  0.49777891677E+03  0.49777891677E+03  0.00000000000E+00 0. -1.
          2   -1    0    0  504    0 -0.00000000000E+00 -0.00000000000E+00 -0.33134012366E+03  0.33134012366E+03  0.00000000000E+00 0.  1.
         21    1    1    2  503  501  0.78788761372E+02 -0.45881701204E+02  0.37618660373E+03  0.38707771862E+03  0.00000000000E+00 0. -1.
         21    1    1    2  504  505 -0.18409496646E+01 -0.40826000339E+02 -0.74497111709E+02  0.84970412805E+02  0.00000000000E+00 0. -1.
         21    1    1    2  505  502 -0.35419340355E+02  0.15186330982E+02  0.10028628343E+03  0.10743599473E+03  0.00000000000E+00 0. -1.
          2    1    1    2  501    0 -0.41528471353E+02  0.71521370561E+02 -0.23553698234E+03  0.24963491428E+03  0.00000000000E+00 0.  1.
<scales pt_clust_3="54.85384" pt_clust_4="40.68984" pt_clust_5="38.53770" pt_clust_6="14000.00000"></scales>
<clustering>
<clus scale="   38.538">  1  5  2 -1</clus>
<clus scale="   40.690">  2  4  1 -1</clus>
<clus scale="   54.854">  1  3  2 -1</clus>
<clus scale="   38.538">  1  3  2 -1</clus>
</clustering>
</event>
<event>
 6    0  0.1361744E+002  0.8532008E+02  0.7546771E-02  0.1314598E+00
         21   -1    0    0  501  502  0.00000000000E+00  0.00000000000E+00  0.23262662476E+03  0.23262662476E+03  0.00000000000E+00 0. -1.
          2   -1    0    0  503    0 -0.00000000000E+00 -0.00000000000E+00 -0.21201213594E+04  0.21201213594E+04  0.00000000000E+00 0.  1.
         21    1    1    2  503  505 -0.24371848034E+01 -0.31498893024E+02 -0.50688740970E+03  0.50787101340E+03  0.00000000000E+00 0.  1.
         21    1    1    2  504  502 -0.63610429951E+02  0.55141310231E+02  0.16198239825E+03  0.18255176864E+03  0.00000000000E+00 0. -1.
         21    1    1    2  505  504  0.10551004736E+03 -0.10476921445E+02  0.12424684140E+02  0.10675443200E+03  0.00000000000E+00 0.  1.
          2    1    1    2  501    0 -0.39462432603E+02 -0.13165495762E+02 -0.15550144073E+04  0.15555707701E+04  0.00000000000E+00 0.  1.
<scales pt_clust_3="31.59304" pt_clust_4="14000.00000" pt_clust_5="85.32008" pt_clust_6="60.36758"></scales>
<clustering>
<clus scale="   31.593">  2  3  1 -1</clus>
<clus scale="   60.368">  2  6  1 -1</clus>
<clus scale="   85.320">  2  5  1 -1</clus>
<clus scale="   85.320">  1  3  2 -1</clus>
</clustering>
</event>
<event>
 6    0  0.1361744E+002  0.1593617E+03  0.7546771E-02  0.1189419E+00
         21   -1    0    0  501  502  0.00000000000E+00  0.00000000000E+00  0.96307953564E+02  0.96307953564E+02  0.00000000000E+00 0.  1.
          2   -1    0    0  505    0 -0.00000000000E+00 -0.00000000000E+00 -0.57348789430E+03  0.57348789430E+03  0.00000000000E+00 0.  1.
         21    1    1    2  503  502  0.84708445805E+02 -0.15323936303E+03 -0.37359185169E+02  0.17903500185E+03  0.00000000000E+00 0.  1.
         21    1    1    2  504  503  0.17287860444E+02  0.42126538951E+02 -0.56106757048E+02  0.72259833858E+02  0.00000000000E+00 0.  1.
         21    1    1    2  505  504  0.27482140972E+01  0.37597085096E+02 -0.11168289618E+03  0.11787350333E+03  0.00000000000E+00 0.  1.
          2    1    1    2  501    0 -0.10474452035E+03  0.73515738982E+02 -0.27203110234E+03  0.30062750882E+03  0.00000000000E+00 0.  1.
<scales pt_clust_3="14000.00000" pt_clust_4="89.42773" pt_clust_5="32.04002" pt_clust_6="159.36170"></scales>
<clustering>
<clus scale="   32.040">  4  5 -1 -1</clus>
<clus scale="   89.428">  2  4  1 -1</clus>
<clus scale="  159.362">  2  6  1 -1</clus>
<clus scale="  159.362">  1  3  2 -1</clus>
</clustering>
</event>
<event>
 6    0  0.1361744E+002  0.9310081E+02  0.7546771E-02  0.1295512E+00
          2   -1    0    0  504    0 -0.00000000000E+00  0.00000000000E+00  0.27182102200E+04  0.27182102200E+04  0.00000000000E+00 0. -1.
         21   -1    0    0  505  502  0.00000000000E+00 -0.00000000000E+00 -0.19588749039E+02  0.19588749039E+02  0.00000000000E+00 0. -1.
         21    1    1    2  503  502 -0.17430533014E+02  0.48175082981E+02  0.70634167075E+02  0.87257364501E+02  0.00000000000E+00 0. -1.
         21    1    1    2  504  503 -0.30644362789E+02  0.52900409855E+02  0.78401312918E+03  0.78639310593E+03  0.00000000000E+00 0. -1.
         21    1    1    2  505  501  0.11368435182E+03 -0.59837582063E+02  0.44884597376E+03  0.46686976368E+03  0.00000000000E+00 0. -1.
          2    1    1    2  501    0 -0.65609456019E+02 -0.41237910772E+02  0.13951282009E+04  0.13972787349E+04  0.00000000000E+00 0. -1.
<scales pt_clust_3="51.23146" pt_clust_4="66.46297" pt_clust_5="93.10081" pt_clust_6="14000.00000"></scales>
<clustering>
<clus scale="   51.231">  2  3  1 -1</clus>
<clus scale="   66.463">  1  4  2 -1</clus>
<clus scale="   93.101">  2  5  1 -1</clus>
<clus scale="   51.231">  2  3  1 -1</clus>
</clustering>
</event>
<event>
 6    0  0.1361744E+002  0.2357511E+03  0.7546771E-02  0.1122656E+00
         -2   -1    0    0    0  501 -0.00000000000E+00  0.00000000000E+00  0.59481110927E+03  0.59481110927E+03  0.00000000000E+00 0.  1.
         21   -1    0    0  503  502  0.00000000000E+00 -0.00000000000E+00 -0.12956939930E+03  0.12956939930E+03  0.00000000000E+00 0.  1.
         21    1    1    2  503  505 -0.85820395768E+02  0.88592164019E+02  0.69516553108E+02  0.14158482620E+03  0.00000000000E+00 0.  1.
         21    1    1    2  504  501  0.32430354350E+02  0.47947910104E+02  0.90641615717E+02  0.10754827970E+03  0.00000000000E+00 0.  1.
         21    1    1    2  505  504 -0.10310861629E+03  0.36266198041E+02  0.27423223070E+02  0.11268831811E+03  0.00000000000E+00 0.  1.
         -2    1    1    2    0  502  0.15649865771E+03 -0.17280627216E+03  0.27766031807E+03  0.36255908456E+03  0.00000000000E+00 0.  1.
<scales pt_clust_3="58.12730" pt_clust_4="57.88549" pt_clust_5="58.12730" pt_clust_6="227.16699"></scales>
<clustering>
<clus scale="   57.885">  1  4  2 -1</clus>
<clus scale="   58.127">  3  5 -1 -1</clus>
<clus scale="  227.167">  1  6  2 -1</clus>
<clus scale="  235.751">  2  3  1 -1</clus>
</clustering>
</event>
<event>
 6    0  0.1361744E+002  0.6362984E+02  0.7546771E-02  0.1383201E+00
         21   -1    0    0  505  502  0.00000000000E+00  0.00000000000E+00  0.17262096392E+03  0.17262096392E+03  0.00000000000E+00 0.  1.
          2   -1    0    0  503    0 -0.00000000000E+00 -0.00000000000E+00 -0.26753290245E+04  0.26753290245E+04  0.00000000000E+00 0.  1.
         21    1    1    2  503  504 -0.41201668804E+02 -0.29851970796E+02 -0.21517561158E+03  0.22110916193E+03  0.00000000000E+00 0.  1.
         21    1    1    2  504  502  0.40390888613E+02  0.48005855582E+02  0.14467894339E+03  0.15769585510E+03  0.00000000000E+00 0.  1.
         21    1    1    2  505  501 -0.17773705182E+02 -0.86778352169E+02 -0.91494025348E+02  0.12734812003E+03  0.00000000000E+00 0.  1.
          2    1    1    2  501    0  0.18584485372E+02  0.68624467382E+02 -0.23407173670E+04  0.23417968513E+04  0.00000000000E+00 0.  1.
<scales pt_clust_3="50.87944" pt_clust_4="63.62984" pt_clust_5="14000.00000" pt_clust_6="45.18728"></scales>
<clustering>
<clus scale="   50.879">  2  3  1 -1</clus>
<clus scale="   45.187">  2  6  1 -1</clus>
<clus scale="   63.630">  1  4  2 -1</clus>
<clus scale="   63.630">  1  3  2 -1</clus>
</clustering>
</event>
<event>
 6    0  0.1361744E+002  0.9170898E+02  0.7546771E-02  0.1298765E+00
          2   -1    0    0  504    0 -0.00000000000E+00  0.00000000000E+00  0.34144946745E+03  0.34144946745E+03  0.00000000000E+00 0. -1.
         21   -1    0    0  503  502  0.00000000000E+00 -0.00000000000E+00 -0.58547848309E+03  0.58547848309E+03  0.00000000000E+00 0.  1.
         21    1    1    2  503  505 -0.39143973019E+02  0.22491020496E+02 -0.39835750915E+03  0.40090747277E+03  0.00000000000E+00 0.  1.
         21    1    1    2  504  502  0.14735317684E+02  0.27177697377E+02  0.34405553609E+02  0.46254718041E+02  0.00000000000E+00 0.  1.
         21    1    1    2  505  501 -0.15297766381E-01  0.62961262181E+02 -0.16274880496E+03  0.17450299220E+03  0.00000000000E+00 0.  1.
          2    1    1    2  501    0  0.24423953101E+02 -0.11262998005E+03  0.28267174486E+03  0.30526276752E+03  0.00000000000E+00 0. -1.
<scales pt_clust_3="45.14870" pt_clust_4="30.91532" pt_clust_5="91.70898" pt_clust_6="14000.00000"></scales>
<clustering>
<clus scale="   30.915">  1  4  2 -1</clus>
<clus scale="   45.149">  2  3  1 -1</clus>
<clus scale="   91.709">  2  5  1 -1</clus>
<clus scale="   45.149">  2  3  1 -1</clus>
</clustering>
</event>
<event>
 6    0  0.1361744E+002  0.1904763E+03  0.7546771E-02  0.1158032E+00
         -1   -1    0    0    0  501 -0.00000000000E+00  0.00000000000E+00  0.75089571553E+03  0.75089571553E+03  0.00000000000E+00 0. -1.
         21   -1    0    0  503  502  0.00000000000E+00 -0.00000000000E+00 -0.52850958206E+03  0.52850958206E+03  0.00000000000E+00 0. -1.
         21    1    1    2  503  501 -0.51666696406E+02 -0.18109652373E+03 -0.41097066031E+03  0.45206446671E+03  0.00000000000E+00 0. -1.
         21    1    1    2  504  505 -0.31205952383E+02  0.44856927945E+02  0.13069456038E+03  0.14165812212E+03  0.00000000000E+00 0.  1.
         21    1    1    2  505  502  0.10123906526E+03  0.70155379420E+01 -0.53284114940E+02  0.11462008119E+03  0.00000000000E+00 0. -1.
         -1    1    1    2    0  504 -0.18366416474E+02  0.12922405784E+03  0.55594634834E+03  0.57106262757E+03  0.00000000000E+00 0. -1.
<scales pt_clust_3="180.40980" pt_clust_4="39.53548" pt_clust_5="101.48185" pt_clust_6="39.53548"></scales>
<clustering>
<clus scale="   39.535">  4  6 -1 -1</clus>
<clus scale="  101.482">  2  5  1 -1</clus>
<clus scale="  180.410">  2  3  1 -1</clus>
<clus scale="  101.482">  2  3  1 -1</clus>
</clustering>
</event>
<event>
 6    0  0.1361744E+002  0.1096172E+03  0.7546771E-02  0.1261280E+00
         21   -1    0    0  504  502  0.00000000000E+00  0.00000000000E+00  0.21743999353E+03  0.21743999353E+03  0.00000000000E+00 0.  1.
          2   -1    0    0  503    0 -0.00000000000E+00 -0.00000000000E+00 -0.93616201510E+03  0.93616201510E+03  0.00000000000E+00 0. -1.
         21    1    1    2  503  505 -0.36649765182E+01 -0.49773803022E+02 -0.30624642697E+03  0.31028654104E+03  0.00000000000E+00 0. -1.
         21    1    1    2  504  501 -0.15706182658E+02  0.27594491008E+02 -0.82327965618E+01  0.32801204961E+02  0.00000000000E+00 0. -1.
         21    1    1    2  505  502 -0.94325882541E+02 -0.22950246699E+02  0.18488435302E+03  0.20882123918E+03  0.00000000000E+00 0.  1.
          2    1    1    2  501    0  0.11369704172E+03  0.45129558713E+02 -0.58912715105E+03  0.60169302345E+03  0.00000000000E+00 0. -1.
<scales pt_clust_3="49.64924" pt_clust_4="31.75122" pt_clust_5="14000.00000" pt_clust_6="109.61725"></scales>
<clustering>
<clus scale="   31.751">  1  4  2 -1</clus>
<clus scale="   49.649">  2  3  1 -1</clus>
<clus scale="  109.617">  2  6  1 -1</clus>
<clus scale="   31.751">  1  3  2 -1</clus>
</clustering>
</event>
<event>
 6    0  0.1361744E+002  0.8993766E+02  0.7546771E-02  0.1303003E+00
          3   -1    0    0  503    0 -0.00000000000E+00  0.00000000000E+00  0.89796962542E+02  0.89796962542E+02  0.00000000000E+00 0.  1.
         21   -1    0    0  505  502  0.00000000000E+00 -0.00000000000E+00 -0.88685960298E+03  0.88685960298E+03  0.00000000000E+00 0.  1.
         21    1    1    2  503  502  0.46817029966E+02  0.77818577036E+02 -0.52157699751E+03  0.52942433790E+03  0.00000000000E+00 0.  1.
         21    1    1    2  504  501  0.26998533000E+02 -0.21837461356E+02 -0.16951312021E+01  0.34765916821E+02  0.00000000000E+00 0. -1.
         21    1    1    2  505  504 -0.96824700566E+02 -0.35469042140E+02 -0.33143075912E+03  0.34710146021E+03  0.00000000000E+00 0.  1.
          3    1    1    2  501    0  0.23009137600E+02 -0.20512073540E+02  0.57640247391E+02  0.65364850595E+02  0.00000000000E+00 0.  1.
<scales pt_clust_3="14000.00000" pt_clust_4="52.72505" pt_clust_5="89.93766" pt_clust_6="30.82476"></scales>
<clustering>
<clus scale="   30.825">  1  6  2 -1</clus>
<clus scale="   52.725">  1  4  2 -1</clus>
<clus scale="   89.938">  1  5  2 -1</clus>
<clus scale="   89.938">  2  3  1 -1</clus>
</clustering>
</event>
<event>
 6    0  0.1361744E+002  0.1606153E+03  0.7546771E-02  0.1188004E+00
         21   -1    0    0  503  502  0.00000000000E+00  0.00000000000E+00  0.55533851100E+03  0.55533851100E+03  0.00000000000E+00 0. -1.
          2   -1    0    0  505    0 -0.00000000000E+00 -0.00000000000E+00 -0.12518798764E+04  0.12518798764E+04  0.00000000000E+00 0. -1.
         21    1    1    2  503  501 -0.13371991666E+03 -0.54220673138E+02  0.64662884881E+02  0.15812079619E+03  0.00000000000E+00 0. -1.
         21    1    1    2  504  502  0.16751309176E+03  0.16612682519E+02  0.39104682075E+03  0.42573963070E+03  0.00000000000E+00 0. -1.
         21    1    1    2  505  504  0.89036869603E+02 -0.31970376012E+02 -0.40880638978E+02  0.10305773011E+03  0.00000000000E+00 0. -1.
          2    1    1    2  501    0 -0.12283004471E+03  0.69578366631E+02 -0.11113704320E+04  0.11203002304E+04  0.00000000000E+00 0. -1.
<scales pt_clust_3="160.61529" pt_clust_4="14000.00000" pt_clust_5="94.60269" pt_clust_6="55.13720"></scales>
<clustering>
<clus scale="   94.603">  2  5  1 -1</clus>
<clus scale="   55.137">  2  6  1 -1</clus>
<clus scale="  160.615">  2  3  1 -1</clus>
<clus scale="  160.615">  1  3  2 -1</clus>
</clustering>
</event>
<event>
 6    0  0.1361744E+002  0.1447349E+03  0.7546771E-02  0.1207096E+00
          2   -1    0    0  503    0 -0.00000000000E+00  0.00000000000E+00  0.37981852329E+03  0.37981852329E+03  0.00000000000E+00 0.  1.
         21   -1    0    0  504  502  0.00000000000E+00 -0.00000000000E+00 -0.26443841592E+03  0.26443841592E+03  0.00000000000E+00 0. -1.
         21    1    1    2  503  502 -0.25480652285E+02  0.31293483921E+02  0.95179364335E+01  0.41462475695E+02  0.00000000000E+00 0.  1.
         21    1    1    2  504  505  0.74274427944E+02 -0.41024978947E+02 -0.46638746514E+02  0.96824130362E+02  0.00000000000E+00 0. -1.
         21    1    1    2  505  501  0.38578717646E+02 -0.75485004062E+02 -0.15415113980E+03  0.17592292971E+03  0.00000000000E+00 0. -1.
          2    1    1    2  501    0 -0.87372493304E+02  0.85216499089E+02  0.30665205725E+03  0.33004740344E+03  0.00000000000E+00 0.  1.
<scales pt_clust_3="40.35524" pt_clust_4="82.20718" pt_clust_5="144.73492" pt_clust_6="14000.00000"></scales>
<clustering>
<clus scale="   40.355">  1  3  2 -1</clus>
<clus scale="   82.207">  2  4  1 -1</clus>
<clus scale="  144.735">  2  5  1 -1</clus>
<clus scale="   82.207">  2  3  1 -1</clus>
</clustering>
</event>
<event>
 6    0  0.1361744E+002  0.8919252E+02  0.7546771E-02  0.1304819E+00
         21   -1    0    0  504  502  0.00000000000E+00  0.00000000000E+00  0.76481565587E+03  0.76481565587E+03  0.00000000000E+00 0.  1.
          2   -1    0    0  503    0 -0.00000000000E+00 -0.00000000000E+00 -0.58950224349E+03  0.58950224349E+03  0.00000000000E+00 0.  1.
         21    1    1    2  503  505 -0.45934681989E+00 -0.77772452248E+02 -0.64150541857E+01  0.78037928268E+02  0.00000000000E+00 0.  1.
         21    1    1    2  504  501  0.58463750865E+02 -0.24644781466E+02  0.50789915167E+03  0.51184658217E+03  0.00000000000E+00 0.  1.
         21    1    1    2  505  502  0.63421039354E+01 -0.39612689162E+02  0.20601022753E+03  0.20987996873E+03  0.00000000000E+00 0.  1.
          2    1    1    2  501    0 -0.64346507980E+02  0.14202992288E+03 -0.53218091263E+03  0.55455342019E+03  0.00000000000E+00 0.  1.
<scales pt_clust_3="80.31990" pt_clust_4="89.19252" pt_clust_5="40.11717" pt_clust_6="14000.00000"></scales>
<clustering>
<clus scale="   40.117">  1  5  2 -1</clus>
<clus scale="   80.320">  2  3  1 -1</clus>
<clus scale="   89.193">  1  4  2 -1</clus>
<clus scale="   40.117">  1  3  2 -1</clus>
</clustering>
</event>
<event>
 6    0  0.1361744E+002  0.1668945E+03  0.7546771E-02  0.1181126E+00
         21   -1    0    0  503  502  0.00000000000E+00  0.00000000000E+00  0.39007700682E+03  0.39007700682E+03  0.00000000000E+00 0.  1.
          1   -1    0    0  504    0 -0.00000000000E+00 -0.00000000000E+00 -0.11145436618E+04  0.11145436618E+04  0.00000000000E+00 0. -1.
         21    1    1    2  503  505 -0.17770535913E+01  0.78646032490E+02 -0.16225400881E+02  0.80321976940E+02  0.00000000000E+00 0.  1.
         21    1    1    2  504  502  0.12301688199E+02  0.78017829727E+02  0.34692491904E+03  0.35580192908E+03  0.00000000000E+00 0.  1.
         21    1    1    2  505  501 -0.16188858777E+02 -0.86593345277E+02 -0.40090144338E+03  0.41046614220E+03  0.00000000000E+00 0. -1.
          1    1    1    2  501    0  0.56642241693E+01 -0.70070516939E+02 -0.65426472980E+03  0.65803062044E+03  0.00000000000E+00 0. -1.
<scales pt_clust_3="78.66611" pt_clust_4="155.55843" pt_clust_5="54.00908" pt_clust_6="54.00908"></scales>
<clustering>
<clus scale="   54.009">  5  6 -1 -1</clus>
<clus scale="   78.666">  1  3  2 -1</clus>
<clus scale="  155.558">  1  4  2 -1</clus>
<clus scale="   78.666">  1  3  2 -1</clus>
</clustering>
</event>
<event>
 6    0  0.1361744E+002  0.1368807E+03  0.7546771E-02  0.1217589E+00
          2   -1    0    0  504    0 -0.00000000000E+00  0.00000000000E+00  0.57787677108E+03  0.57787677108E+03  0.00000000000E+00 0. -1.
         21   -1    0    0  503  502  0.00000000000E+00 -0.00000000000E+00 -0.92664789536E+02  0.92664789536E+02  0.00000000000E+00 0. -1.
         21    1    1    2  503  505 -0.12919465501E+02 -0.46400596476E+02 -0.21952526177E+02  0.52932422462E+02  0.00000000000E+00 0. -1.
         21    1    1    2  504  502  0.16018212397E+02  0.26332167185E+02  0.69491415920E+02  0.76019885843E+02  0.00000000000E+00 0.  1.
         21    1    1    2  505  501 -0.12800759476E+03  0.58519403206E+02  0.82529169353E+02  0.16316105130E+03  0.00000000000E+00 0. -1.
          2    1    1    2  501    0  0.12490884786E+03 -0.38450973915E+02  0.35514392245E+03  0.37842820101E+03  0.00000000000E+00 0. -1.
<scales pt_clust_3="47.25666" pt_clust_4="30.82152" pt_clust_5="136.88071" pt_clust_6="14000.00000"></scales>
<clustering>
<clus scale="   30.822">  1  4  2 -1</clus>
<clus scale="   47.257">  2  3  1 -1</clus>
<clus scale="  136.881">  2  5  1 -1</clus>
<clus scale="   47.257">  2  3  1 -1</clus>
</clustering>
</event>
<event>
 6    0  0.1361744E+002  0.2252068E+03  0.7546771E-02  0.1130060E+00
          2   -1    0    0  504    0 -0.00000000000E+00  0.00000000000E+00  0.53694448629E+03  0.53694448629E+03  0.00000000000E+00 0.  1.
         21   -1    0    0  505  502  0.00000000000E+00 -0.00000000000E+00 -0.15448915662E+04  0.15448915662E+04  0.00000000000E+00 0.  1.
         21    1    1    2  503  501  0.27291903691E+02 -0.10266441181E+03 -0.60372603972E+03  0.61300078344E+03  0.00000000000E+00 0.  1.
         21    1    1    2  504  502  0.36490101605E+02 -0.70124061166E+01 -0.38818138370E+01  0.37360003123E+02  0.00000000000E+00 0.  1.
         21    1    1    2  505  503  0.28901118863E+02 -0.11280151750E+03 -0.88371119722E+03  0.89135006429E+03  0.00000000000E+00 0.  1.
          2    1    1    2  501    0 -0.92683124158E+02  0.22247833542E+03  0.48337197086E+03  0.54012520164E+03  0.00000000000E+00 0.  1.
<scales pt_clust_3="30.48526" pt_clust_4="37.15779" pt_clust_5="30.48526" pt_clust_6="222.93358"></scales>
<clustering>
<clus scale="   30.485">  3  5 -1 -1</clus>
<clus scale="   37.158">  1  4  2 -1</clus>
<clus scale="  222.934">  1  6  2 -1</clus>
<clus scale="  225.207">  2  3  1 -1</clus>
</clustering>
</event>
<event>
 6    0  0.1361744E+002  0.1019145E+03  0.7546771E-02  0.1276321E+00
         21   -1    0    0  501  502  0.00000000000E+00  0.00000000000E+00  0.77776419858E+02  0.77776419858E+02  0.00000000000E+00 0. -1.
          2   -1    0    0  503    0 -0.00000000000E+00 -0.00000000000E+00 -0.15431820836E+04  0.15431820836E+04  0.00000000000E+00 0.  1.
         21    1    1    2  503  505  0.76033645055E+02 -0.66908671318E+02 -0.65906161776E+03  0.66679839643E+03  0.00000000000E+00 0. -1.
         21    1    1    2  504  502  0.31564918298E+02  0.21888562063E+02  0.30041654221E+02  0.48764271805E+02  0.00000000000E+00 0. -1.
         21    1    1    2  505  504  0.28526516609E+02  0.50045041356E+02  0.38952435464E+00  0.57605729259E+02  0.00000000000E+00 0. -1.
          2    1    1    2  501    0 -0.13612507996E+03 -0.50249321010E+01 -0.83677522453E+03  0.84779010594E+03  0.00000000000E+00 0.  1.
<scales pt_clust_3="101.28122" pt_clust_4="32.69515" pt_clust_5="32.69515" pt_clust_6="93.72011"></scales>
<clustering>
<clus scale="   32.695">  4  5 -1 -1</clus>
<clus scale="  101.281">  2  3  1 -1</clus>
<clus scale="   93.720">  2  6  1 -1</clus>
<clus scale="  101.914">  1  3  2 -1</clus>
</clustering>
</event>
<event>
 6    0  0.1361744E+002  0.1003055E+03  0.7546771E-02  0.1279655E+00
         21   -1    0    0  504  502  0.00000000000E+00  0.00000000000E+00  0.20186067228E+03  0.20186067228E+03  0.00000000000E+00 0.  1.
         -2   -1    0    0    0  501 -0.00000000000E+00 -0.00000000000E+00 -0.30645592658E+03  0.30645592658E+03  0.00000000000E+00 0. -1.
         21    1    1    2  503  502  0.32375279494E+02 -0.13680118556E+02  0.20846727546E+02  0.40864292670E+02  0.00000000000E+00 0.  1.
         21    1    1    2  504  505 -0.75713784480E+01  0.40003981571E+02  0.11439831289E+03  0.12142741990E+03  0.00000000000E+00 0.  1.
         21    1    1    2  505  501  0.30812653879E+02  0.65874786677E+02  0.10529769783E+02  0.73483217203E+02  0.00000000000E+00 0. -1.
         -2    1    1    2    0  503 -0.55616554924E+02 -0.92198649692E+02 -0.25037006451E+03  0.27254166909E+03  0.00000000000E+00 0. -1.
<scales pt_clust_3="35.14690" pt_clust_4="33.94445" pt_clust_5="100.30553" pt_clust_6="14000.00000"></scales>
<clustering>
<clus scale="   35.147">  1  3  2 -1</clus>
<clus scale="   33.944">  1  4  2 -1</clus>
<clus scale="  100.306">  1  5  2 -1</clus>
<clus scale="   35.147">  1  3  2 -1</clus>
</clustering>
</event>
<event>
 6    0  0.1361744E+002  0.1198903E+03  0.7546771E-02  0.1243278E+00
         -4   -1    0    0    0  501 -0.00000000000E+00  0.00000000000E+00  0.13080530000E+04  0.13080530000E+04  0.00000000000E+00 0.  1.
         21   -1    0    0  503  502  0.00000000000E+00 -0.00000000000E+00 -0.18369126068E+03  0.18369126068E+03  0.00000000000E+00 0. -1.
         21    1    1    2  503  501  0.38189213071E+02 -0.59413936549E+02  0.42275018253E+03  0.42860955272E+03  0.00000000000E+00 0.  1.
         21    1    1    2  504  502  0.13195925177E+02  0.55264426155E+02 -0.12320501033E+03  0.13567521443E+03  0.00000000000E+00 0. -1.
         21    1    1    2  505  504  0.48362376635E+02  0.59007576588E+02 -0.16847184967E+02  0.78132203411E+02  0.00000000000E+00 0. -1.
         -4    1    1    2    0  505 -0.99747514883E+02 -0.54858066193E+02  0.84166375213E+03  0.84932729015E+03  0.00000000000E+00 0.  1.
<scales pt_clust_3="68.53936" pt_clust_4="56.81804" pt_clust_5="119.89027" pt_clust_6="14000.00000"></scales>
<clustering>
<clus scale="   56.818">  2  4  1 -1</clus>
<clus scale="   68.539">  1  3  2 -1</clus>
<clus scale="  119.890">  2  5  1 -1</clus>
<clus scale="   56.818">  2  3  1 -1</clus>
</clustering>
</event>
<event>
 6    0  0.1361744E+002  0.1567690E+03  0.7546771E-02  0.1192394E+00
          2   -1    0    0  504    0 -0.00000000000E+00  0.00000000000E+00  0.51098133819E+03  0.51098133819E+03  0.00000000000E+00 0. -1.
         21   -1    0    0  501  502  0.00000000000E+00 -0.00000000000E+00 -0.95917910761E+02  0.95917910761E+02  0.00000000000E+00 0.  1.
         21    1    1    2  503  505 -0.66853013042E+02  0.10300865438E+01  0.15581666850E+02  0.68652565669E+02  0.00000000000E+00 0.  1.
         21    1    1    2  504  503  0.57477228792E+01 -0.29533816117E+02  0.89742146939E+02  0.94651653709E+02  0.00000000000E+00 0. -1.
         21    1    1    2  505  502 -0.64084093987E+02 -0.57284009040E+02 -0.13020618037E+02  0.86935408712E+02  0.00000000000E+00 0.  1.
          2    1    1    2  501    0  0.12518938415E+03  0.85787738613E+02  0.32276023168E+03  0.35665962086E+03  0.00000000000E+00 0. -1.
<scales pt_clust_3="54.35515" pt_clust_4="30.08791" pt_clust_5="54.35515" pt_clust_6="143.82108"></scales>
<clustering>
<clus scale="   30.088">  1  4  2 -1</clus>
<clus scale="   54.355">  3  5 -1 -1</clus>
<clus scale="  143.821">  1  6  2 -1</clus>
<clus scale="  156.769">  2  3  1 -1</clus>
</clustering>
</event>
<event>
 6    0  0.1361744E+002  0.1469482E+03  0.7546771E-02  0.1204274E+00
         -4   -1    0    0    0  501 -0.00000000000E+00  0.00000000000E+00  0.22455725966E+03  0.22455725966E+03  0.00000000000E+00 0. -1.
         21   -1    0    0  505  502  0.00000000000E+00 -0.00000000000E+00 -0.89685803738E+03  0.89685803738E+03  0.00000000000E+00 0.  1.
         21    1    1    2  503  501  0.11339995683E+01  0.61555075068E+02  0.30062661509E+02  0.68513333291E+02  0.00000000000E+00 0. -1.
         21    1    1    2  504  503  0.23039548623E+02 -0.98210316735E+02 -0.58278822501E+03  0.59145431127E+03  0.00000000000E+00 0.  1.
         21    1    1    2  505  504  0.43561658593E+02 -0.19737009891E+02 -0.27696305626E+03  0.28106174089E+03  0.00000000000E+00 0.  1.
         -4    1    1    2    0  502 -0.67735206785E+02  0.56392251558E+02  0.15738784205E+03  0.18038591158E+03  0.00000000000E+00 0. -1.
<scales pt_clust_3="61.56552" pt_clust_4="42.24688" pt_clust_5="42.24688" pt_clust_6="133.52550"></scales>
<clustering>
<clus scale="   42.247">  4  5 -1 -1</clus>
<clus scale="   61.566">  1  3  2 -1</clus>
<clus scale="  133.525">  1  6  2 -1</clus>
<clus scale="  146.948">  2  3  1 -1</clus>
</clustering>
</event>
<event>
 6    0  0.1361744E+002  0.2560740E+03  0.7546771E-02  0.1109525E+00
         21   -1    0    0  504  502  0.00000000000E+00  0.00000000000E+00  0.76718336140E+02  0.76718336140E+02  0.00000000000E+00 0.  1.
         -1   -1    0    0    0  501 -0.00000000000E+00 -0.00000000000E+00 -0.12909614905E+04  0.12909614905E+04  0.00000000000E+00 0.  1.
         21    1    1    2  503  502  0.48762087312E+02 -0.33669515546E+02 -0.36967968302E+03  0.37439877867E+03  0.00000000000E+00 0.  1.
         21    1    1    2  504  505 -0.26941386727E+02  0.56111338923E+02 -0.11631626929E+02  0.63321524141E+02  0.00000000000E+00 0.  1.
         21    1    1    2  505  501 -0.15388605153E+03  0.96128065767E+02 -0.18892167971E+03  0.26194068593E+03  0.00000000000E+00 0.  1.
         -1    1    1    2    0  503  0.13206535095E+03 -0.11856988914E+03 -0.64401016471E+03  0.66801883790E+03  0.00000000000E+00 0.  1.
<scales pt_clust_3="32.64537" pt_clust_4="57.68072" pt_clust_5="57.68072" pt_clust_6="243.03782"></scales>
<clustering>
<clus scale="   32.645">  3  6 -1 -1</clus>
<clus scale="   57.681">  4  5 -1 -1</clus>
<clus scale="  243.038">  2  3  1 -1</clus>
<clus scale="  256.074">  1  3  2 -1</clus>
</clustering>
</event>
<event>
 6    0  0.1361744E+002  0.8860895E+02  0.7546771E-02  0.1306256E+00
          2   -1    0    0  504    0 -0.00000000000E+00  0.00000000000E+00  0.23000740961E+03  0.23000740961E+03  0.00000000000E+00 0. -1.
         21   -1    0    0  505  502  0.00000000000E+00 -0.00000000000E+00 -0.15400755984E+03  0.15400755984E+03  0.00000000000E+00 0.  1.
         21    1    1    2  503  502 -0.36849648382E+02 -0.47465444939E+02 -0.62036720561E+02  0.86367932400E+02  0.00000000000E+00 0.  1.
         21    1    1    2  504  503 -0.28575908990E+01 -0.59819840059E+02  0.48592427876E+02  0.77122001642E+02  0.00000000000E+00 0. -1.
         21    1    1    2  505  501 -0.45271445998E+02  0.25059044114E+01 -0.17264863413E+02  0.48516583642E+02  0.00000000000E+00 0.  1.
          2    1    1    2  501    0  0.84978685279E+02  0.10477938059E+03  0.10670900587E+03  0.17200845177E+03  0.00000000000E+00 0. -1.
<scales pt_clust_3="88.60895" pt_clust_4="60.08543" pt_clust_5="45.34075" pt_clust_6="14000.00000"></scales>
<clustering>
<clus scale="   45.341">  2  5  1 -1</clus>
<clus scale="   60.085">  1  4  2 -1</clus>
<clus scale="   88.609">  2  3  1 -1</clus>
<clus scale="   45.341">  2  3  1 -1</clus>
</clustering>
</event>
<event>
 6    0  0.1361744E+002  0.1184755E+03  0.7546771E-02  0.1245633E+00
         21   -1    0    0  501  502  0.00000000000E+00  0.00000000000E+00  0.91129150525E+03  0.91129150525E+03  0.00000000000E+00 0. -1.
          1   -1    0    0  505    0 -0.00000000000E+00 -0.00000000000E+00 -0.50513408893E+03  0.50513408893E+03  0.00000000000E+00 0.  1.
         21    1    1    2  503  504  0.27020824329E+02  0.12144333854E+03  0.16583661876E+03  0.20731713278E+03  0.00000000000E+00 0. -1.
         21    1    1    2  504  502  0.28693209537E+02 -0.65620563929E+02  0.69005666967E+03  0.69376333576E+03  0.00000000000E+00 0. -1.
         21    1    1    2  505  503  0.91285250126E+02 -0.50495391699E+02 -0.17618508814E+03  0.20475342917E+03  0.00000000000E+00 0. -1.
          1    1    1    2  501    0 -0.14699928399E+03 -0.53273829141E+01 -0.27355078397E+03  0.31059169647E+03  0.00000000000E+00 0.  1.
<scales pt_clust_3="83.38075" pt_clust_4="71.61954" pt_clust_5="118.47555" pt_clust_6="14000.00000"></scales>
<clustering>
<clus scale="   71.620">  1  4  2 -1</clus>
<clus scale="   83.381">  1  3  2 -1</clus>
<clus scale="  118.476">  2  5  1 -1</clus>
<clus scale="   71.620">  1  3  2 -1</clus>
</clustering>
</event>
<event>
 6    0  0.1361744E+002  0.1334489E+03  0.7546771E-02  0.1222426E+00
          2   -1    0    0  505    0 -0.00000000000E+00  0.00000000000E+00  0.44091572558E+02  0.44091572558E+02  0.00000000000E+00 0. -1.
         21   -1    0    0  503  502  0.00000000000E+00 -0.00000000000E+00 -0.42055259158E+03  0.42055259158E+03  0.00000000000E+00 0.  1.
         21    1    1    2  503  501 -0.16472254430E+02  0.44720842304E+02 -0.89020779721E+02  0.10097518569E+03  0.00000000000E+00 0.  1.
         21    1    1    2  504  502  0.47925175495E+02 -0.29382075601E+02 -0.12624988561E+03  0.13819971936E+03  0.00000000000E+00 0.  1.
         21    1    1    2  505  504  0.21525795313E+02 -0.71236689289E+02 -0.11066627560E+03  0.13336060258E+03  0.00000000000E+00 0.  1.
          2    1    1    2  501    0 -0.52978716378E+02  0.55897922585E+02 -0.50524078083E+02  0.92108656513E+02  0.00000000000E+00 0. -1.
<scales pt_clust_3="42.07667" pt_clust_4="44.89459" pt_clust_5="132.72430" pt_clust_6="42.07667"></scales>
<clustering>
<clus scale="   42.077">  3  6 -1 -1</clus>
<clus scale="   44.895">  4  5 -1 -1</clus>
<clus scale="  132.724">  2  4  1 -1</clus>
<clus scale="  132.724">  2  3  1 -1</clus>
</clustering>
</event>
<event>
 6    0  0.1361744E+002  0.1529765E+03  0.7546771E-02  0.1196863E+00
         21   -1    0    0  501  502  0.00000000000E+00  0.00000000000E+00  0.13651166181E+03  0.13651166181E+03  0.00000000000E+00 0. -1.
         -1   -1    0    0    0  501 -0.00000000000E+00 -0.00000000000E+00 -0.26159281199E+03  0.26159281199E+03  0.00000000000E+00 0.  1.
         21    1    1    2  503  504  0.28112238718E+02  0.32965722363E+02  0.19824383906E+01  0.43370115040E+02  0.00000000000E+00 0.  1.
         21    1    1    2  504  502  0.10645827142E+03 -0.51441988021E+01  0.54429405749E+02  0.11967617367E+03  0.00000000000E+00 0. -1.
         21    1    1    2  505  503 -0.60438111342E+02  0.25421871278E+01 -0.40187359239E+02  0.72624044645E+02  0.00000000000E+00 0.  1.
         -1    1    1    2    0  505 -0.74132398793E+02 -0.30363710688E+02 -0.14130563508E+03  0.16243414045E+03  0.00000000000E+00 0.  1.
<scales pt_clust_3="42.85724" pt_clust_4="42.85724" pt_clust_5="50.88770" pt_clust_6="149.37417"></scales>
<clustering>
<clus scale="   42.857">  3  4 -1 -1</clus>
<clus scale="   50.888">  5  6 -1 -1</clus>
<clus scale="  149.374">  2  5  1 -1</clus>
<clus scale="  152.976">  1  3  2 -1</clus>
</clustering>
</event>
<event>
 6    0  0.1361744E+002  0.1703964E+03  0.7546771E-02  0.1177435E+00
         21   -1    0    0  504  502  0.00000000000E+00  0.00000000000E+00  0.60411494655E+02  0.60411494655E+02  0.00000000000E+00 0. -1.
          2   -1    0    0  505    0 -0.00000000000E+00 -0.00000000000E+00 -0.50436847596E+03  0.50436847596E+03  0.00000000000E+00 0. -1.
         21    1    1    2  503  502 -0.65221140799E+02  0.18373147582E+02 -0.74765427300E+02  0.10090212524E+03  0.00000000000E+00 0. -1.
         21    1    1    2  504  501  0.38177903951E+02 -0.24245591632E+02 -0.54757315756E+02  0.71019466996E+02  0.00000000000E+00 0. -1.
         21    1    1    2  505  503 -0.94164034285E+02 -0.19522158456E+02 -0.20958611156E+03  0.23059557278E+03  0.00000000000E+00 0. -1.
          2    1    1    2  501    0  0.12120727113E+03  0.25394602506E+02 -0.10484812669E+03  0.16226280560E+03  0.00000000000E+00 0. -1.
<scales pt_clust_3="50.57379" pt_clust_4="35.96466" pt_clust_5="50.57379" pt_clust_6="170.13736"></scales>
<clustering>
<clus scale="   35.965">  4  6 -1 -1</clus>
<clus scale="   50.574">  3  5 -1 -1</clus>
<clus scale="  170.137">  1  4  2 -1</clus>
<clus scale="  170.137">  1  3  2 -1</clus>
</clustering>
</event>
<event>
 6    0  0.1361744E+002  0.1848187E+03  0.7546771E-02  0.1163219E+00
          2   -1    0    0  505    0 -0.00000000000E+00  0.00000000000E+00  0.17858184186E+04  0.17858184186E+04  0.00000000000E+00 0.  1.
         21   -1    0    0  503  502  0.00000000000E+00 -0.00000000000E+00 -0.75402553485E+02  0.75402553485E+02  0.00000000000E+00 0.  1.
         21    1    1    2  503  501 -0.10093560777E+03 -0.15120786165E+02  0.45810418039E+03  0.46933578085E+03  0.00000000000E+00 0.  1.
         21    1    1    2  504  502  0.77109150414E+02  0.13154867289E+02  0.37625270176E+01  0.78313652836E+02  0.00000000000E+00 0.  1.
         21    1    1    2  505  504  0.11966360150E+03  0.14213797188E+02  0.88513607660E+02  0.14951945791E+03  0.00000000000E+00 0.  1.
          2    1    1    2  501    0 -0.95837144140E+02 -0.12247878312E+02  0.11600355500E+04  0.11640520804E+04  0.00000000000E+00 0.  1.
<scales pt_clust_3="173.87780" pt_clust_4="50.47273" pt_clust_5="50.47273" pt_clust_6="96.61661"></scales>
<clustering>
<clus scale="   50.473">  4  5 -1 -1</clus>
<clus scale="   96.617">  1  6  2 -1</clus>
<clus scale="  173.878">  1  3  2 -1</clus>
<clus scale="  184.819">  2  3  1 -1</clus>
</clustering>
</event>
<event>
 6    0  0.1361744E+002  0.7924532E+02  0.7546771E-02  0.1331207E+00
         21   -1    0    0  503  502  0.00000000000E+00  0.00000000000E+00  0.22351693656E+03  0.22351693656E+03  0.00000000000E+00 0.  1.
          1   -1    0    0  504    0 -0.00000000000E+00 -0.00000000000E+00 -0.33833062191E+04  0.33833062191E+04  0.00000000000E+00 0. -1.
         21    1    1    2  503  501  0.46754947490E+01 -0.92403236597E+02  0.20413350394E+03  0.22412207793E+03  0.00000000000E+00 0.  1.
         21    1    1    2  504  505  0.22018640927E+02  0.64770815426E+02 -0.15006621972E+04  0.15022207259E+04  0.00000000000E+00 0. -1.
         21    1    1    2  505  502  0.43093735580E+02  0.26808288053E+02 -0.73274834166E+02  0.89134480852E+02  0.00000000000E+00 0. -1.
          1    1    1    2  501    0 -0.69787871256E+02  0.82413311800E+00 -0.17899857551E+04  0.17913458710E+04  0.00000000000E+00 0. -1.
<scales pt_clust_3="79.24532" pt_clust_4="68.55308" pt_clust_5="50.75189" pt_clust_6="14000.00000"></scales>
<clustering>
<clus scale="   50.752">  1  5  2 -1</clus>
<clus scale="   68.553">  2  4  1 -1</clus>
<clus scale="   79.245">  1  3  2 -1</clus>
<clus scale="   50.752">  1  3  2 -1</clus>
</clustering>
</event>
<event>
 6    0  0.1361744E+002  0.1365584E+03  0.7546771E-02  0.1218036E+00
         21   -1    0    0  503  502  0.00000000000E+00  0.00000000000E+00  0.67380836638E+03  0.67380836638E+03  0.00000000000E+00 0.  1.
          3   -1    0    0  505    0 -0.00000000000E+00 -0.00000000000E+00 -0.31120947713E+03  0.31120947713E+03  0.00000000000E+00 0. -1.
         21    1    1    2  503  504  0.30860369245E+02 -0.79221333240E+01  0.62398916818E+02  0.70062453614E+02  0.00000000000E+00 0.  1.
         21    1    1    2  504  501 -0.38826310196E+02  0.22677166226E+02 -0.91462860022E+02  0.10191756961E+03  0.00000000000E+00 0. -1.
         21    1    1    2  505  502  0.94562432064E+02  0.17115860511E+02  0.58815677238E+03  0.59595586677E+03  0.00000000000E+00 0.  1.
          3    1    1    2  501    0 -0.86596491113E+02 -0.31870893413E+02 -0.19649393993E+03  0.21708195353E+03  0.00000000000E+00 0. -1.
<scales pt_clust_3="31.86099" pt_clust_4="38.38008" pt_clust_5="124.98811" pt_clust_6="38.38008"></scales>
<clustering>
<clus scale="   31.861">  1  3  2 -1</clus>
<clus scale="   38.380">  4  6 -1 -1</clus>
<clus scale="  124.988">  1  5  2 -1</clus>
<clus scale="   31.861">  1  3  2 -1</clus>
</clustering>
</event>
<event>
 6    0  0.1361744E+002  0.8182397E+02  0.7546771E-02  0.1323954E+00
          2   -1    0    0  504    0 -0.00000000000E+00  0.00000000000E+00  0.12334742301E+04  0.12334742301E+04  0.00000000000E+00 0. -1.
         21   -1    0    0  503  502  0.00000000000E+00 -0.00000000000E+00 -0.10286594752E+03  0.10286594752E+03  0.00000000000E+00 0.  1.
         21    1    1    2  503  501 -0.49007039719E+00  0.82413306548E+02 -0.70237441012E+02  0.10828430812E+03  0.00000000000E+00 0.  1.
         21    1    1    2  504  505 -0.36547367661E+01 -0.50049415003E+02  0.11353955626E+03  0.12413513556E+03  0.00000000000E+00 0. -1.
         21    1    1    2  505  502 -0.50752033095E+02  0.18026915958E+02  0.98103669808E+02  0.11191545287E+03  0.00000000000E+00 0. -1.
          2    1    1    2  501    0  0.54896840258E+02 -0.50390807503E+02  0.98920249756E+03  0.99200528110E+03  0.00000000000E+00 0. -1.
<scales pt_clust_3="81.82397" pt_clust_4="50.18268" pt_clust_5="52.80189" pt_clust_6="14000.00000"></scales>
<clustering>
<clus scale="   50.183">  1  4  2 -1</clus>
<clus scale="   52.802">  1  5  2 -1</clus>
<clus scale="   81.824">  2  3  1 -1</clus>
<clus scale="   81.824">  2  3  1 -1</clus>
</clustering>
</event>
<event>
 6    0  0.1361744E+002  0.1874650E+03  0.7546771E-02  0.1160768E+00
         21   -1    0    0  501  502  0.00000000000E+00  0.00000000000E+00  0.13547804024E+04  0.13547804024E+04  0.00000000000E+00 0.  1.
          2   -1    0    0  504    0 -0.00000000000E+00 -0.00000000000E+00 -0.73014848001E+03  0.73014848001E+03  0.00000000000E+00 0. -1.
         21    1    1    2  503  505 -0.16011182030E+03  0.95977849885E+02  0.12034681158E+04  0.12178600283E+04  0.00000000000E+00 0.  1.
         21    1    1    2  504  503  0.41878703781E+02 -0.23335026681E+02 -0.45055197567E+02  0.65789969816E+02  0.00000000000E+00 0.  1.
         21    1    1    2  505  502 -0.15239807522E+02 -0.27662781109E+02  0.12432271681E+03  0.12827166135E+03  0.00000000000E+00 0. -1.
          2    1    1    2  501    0  0.13347292404E+03 -0.44980042095E+02 -0.65810371264E+03  0.67300722301E+03  0.00000000000E+00 0. -1.
<scales pt_clust_3="187.46495" pt_clust_4="47.94313" pt_clust_5="31.58293" pt_clust_6="14000.00000"></scales>
<clustering>
<clus scale="   31.583">  1  5  2 -1</clus>
<clus scale="   47.943">  2  4  1 -1</clus>
<clus scale="  187.465">  1  3  2 -1</clus>
<clus scale="   31.583">  1  3  2 -1</clus>
</clustering>
</event>
<event>
 6    0  0.1361744E+002  0.1107883E+03  0.7546771E-02  0.1259117E+00
         21   -1    0    0  505  502  0.00000000000E+00  0.00000000000E+00  0.71985981436E+02  0.71985981436E+02  0.00000000000E+00 0. -1.
          1   -1    0    0  504    0 -0.00000000000E+00 -0.00000000000E+00 -0.44632590180E+03  0.44632590180E+03  0.00000000000E+00 0. -1.
         21    1    1    2  503  502  0.11608585513E+03 -0.29410736527E+01 -0.34913241128E+02  0.12125803100E+03  0.00000000000E+00 0. -1.
         21    1    1    2  504  503  0.28727319404E+02 -0.28426449599E+02 -0.62000881548E+02  0.74009669839E+02  0.00000000000E+00 0. -1.
         21    1    1    2  505  501 -0.17812044393E+02  0.26018705106E+02 -0.24351329174E+02  0.39840044847E+02  0.00000000000E+00 0. -1.
          1    1    1    2  501    0 -0.12700113014E+03  0.53488181460E+01 -0.25307446851E+03  0.28320413755E+03  0.00000000000E+00 0. -1.
<scales pt_clust_3="110.78825" pt_clust_4="37.52463" pt_clust_5="31.53160" pt_clust_6="14000.00000"></scales>
<clustering>
<clus scale="   31.532">  1  5  2 -1</clus>
<clus scale="   37.525">  2  4  1 -1</clus>
<clus scale="  110.788">  1  3  2 -1</clus>
<clus scale="   31.532">  1  3  2 -1</clus>
</clustering>
</event>
<event>
 6    0  0.1361744E+002  0.1537810E+03  0.7546771E-02  0.1195902E+00
         21   -1    0    0  504  502  0.00000000000E+00  0.00000000000E+00  0.21027490827E+04  0.21027490827E+04  0.00000000000E+00 0.  1.
          2   -1    0    0  503    0 -0.00000000000E+00 -0.00000000000E+00 -0.25940736620E+03  0.25940736620E+03  0.00000000000E+00 0. -1.
         21    1    1    2  503  502  0.40062945729E+02 -0.52199427630E+01  0.34903123405E+02  0.53390218639E+02  0.00000000000E+00 0.  1.
         21    1    1    2  504  505  0.73352462973E+01  0.43924716360E+02  0.10987250438E+04  0.10996271679E+04  0.00000000000E+00 0.  1.
         21    1    1    2  505  501  0.33654489291E+02  0.10738271626E+03  0.92769716751E+03  0.93449756929E+03  0.00000000000E+00 0.  1.
          2    1    1    2  501    0 -0.81052681317E+02 -0.14608748986E+03 -0.21798361827E+03  0.27464149300E+03  0.00000000000E+00 0. -1.
<scales pt_clust_3="40.40158" pt_clust_4="44.53566" pt_clust_5="14000.00000" pt_clust_6="153.78097"></scales>
<clustering>
<clus scale="   40.402">  2  3  1 -1</clus>
<clus scale="   44.536">  1  4  2 -1</clus>
<clus scale="  153.781">  2  6  1 -1</clus>
<clus scale="   44.536">  1  3  2 -1</clus>
</clustering>
</event>
<event>
 6    0  0.1361744E+002  0.2130018E+03  0.7546771E-02  0.1139211E+00
         21   -1    0    0  505  502  0.00000000000E+00  0.00000000000E+00  0.11415364620E+03  0.11415364620E+03  0.00000000000E+00 0.  1.
          2   -1    0    0  503    0 -0.00000000000E+00 -0.00000000000E+00 -0.14888650800E+04  0.14888650800E+04  0.00000000000E+00 0. -1.
         21    1    1    2  503  502 -0.62391657748E+01  0.16170059529E+03  0.31016250030E+02  0.16476655447E+03  0.00000000000E+00 0.  1.
         21    1    1    2  504  501 -0.26260486926E+02 -0.69951683022E+02 -0.29592322546E+03  0.30521042987E+03  0.00000000000E+00 0. -1.
         21    1    1    2  505  504  0.16051150055E+02  0.35164382645E+02 -0.40055828953E+02  0.55665453002E+02  0.00000000000E+00 0. -1.
          2    1    1    2  501    0  0.16448502646E+02 -0.12691329491E+03 -0.10697486294E+04  0.10773762888E+04  0.00000000000E+00 0. -1.
<scales pt_clust_3="194.25613" pt_clust_4="66.31170" pt_clust_5="38.65454" pt_clust_6="66.31170"></scales>
<clustering>
<clus scale="   38.655">  1  5  2 -1</clus>
<clus scale="   66.312">  4  6 -1 -1</clus>
<clus scale="  194.256">  1  3  2 -1</clus>
<clus scale="   38.655">  1  3  2 -1</clus>
</clustering>
</event>
<event>
 6    0  0.1361744E+002  0.3609016E+03  0.7546771E-02  0.1058227E+00
         21   -1    0    0  503  502  0.00000000000E+00  0.00000000000E+00  0.10751353821E+04  0.10751353821E+04  0.00000000000E+00 0.  1.
          2   -1    0    0  504    0 -0.00000000000E+00 -0.00000000000E+00 -0.39062328332E+03  0.39062328332E+03  0.00000000000E+00 0. -1.
         21    1    1    2  503  501 -0.21526549757E+02  0.11270908276E+03 -0.48627081309E+02  0.12462472755E+03  0.00000000000E+00 0.  1.
         21    1    1    2  504  505 -0.19324904103E+03 -0.20948431586E+03  0.38975564623E+03  0.48284400609E+03  0.00000000000E+00 0.  1.
         21    1    1    2  505  502  0.47435488408E+02 -0.94022066593E+02  0.53185216458E+03  0.54217801462E+03  0.00000000000E+00 0.  1.
          2    1    1    2  501    0  0.16734010238E+03  0.19079729969E+03 -0.18846863069E+03  0.31611191719E+03  0.00000000000E+00 0. -1.
<scales pt_clust_3="103.15155" pt_clust_4="324.95120" pt_clust_5="105.31037" pt_clust_6="103.15155"></scales>
<clustering>
<clus scale="  105.310">  1  5  2 -1</clus>
<clus scale="  103.152">  3  6 -1 -1</clus>
<clus scale="  324.951">  1  4  2 -1</clus>
<clus scale="  105.310">  1  3  2 -1</clus>
</clustering>
</event>
<event>
 6    0  0.1361744E+002  0.1385367E+03  0.7546771E-02  0.1215312E+00
          2   -1    0    0  502    0 -0.00000000000E+00  0.00000000000E+00  0.16988193899E+04  0.16988193899E+04  0.00000000000E+00 0. -1.
         21   -1    0    0  504  502  0.00000000000E+00 -0.00000000000E+00 -0.40754427725E+02  0.40754427725E+02  0.00000000000E+00 0.  1.
         21    1    1    2  503  505 -0.62456075336E+02  0.86064207406E+02  0.12944583399E+03  0.16752323147E+03  0.00000000000E+00 0.  1.
         21    1    1    2  504  503 -0.23842954951E+01  0.31660259118E+02 -0.47210208796E+01  0.32098986130E+02  0.00000000000E+00 0.  1.
         21    1    1    2  505  501  0.23165214677E+02 -0.44188802243E+02  0.34242183307E+03  0.34603755458E+03  0.00000000000E+00 0.  1.
          2    1    1    2  501    0  0.41675156154E+02 -0.73535664281E+02  0.11909183160E+04  0.11939140455E+04  0.00000000000E+00 0. -1.
<scales pt_clust_3="130.14151" pt_clust_4="31.74991" pt_clust_5="36.03165" pt_clust_6="36.03165"></scales>
<clustering>
<clus scale="   31.750">  2  4  1 -1</clus>
<clus scale="   36.032">  5  6 -1 -1</clus>
<clus scale="  130.142">  2  3  1 -1</clus>
<clus scale="   31.750">  2  3  1 -1</clus>
</clustering>
</event>
<event>
 6    0  0.1361744E+002  0.1401138E+03  0.7546771E-02  0.1213176E+00
         21   -1    0    0  503  502  0.00000000000E+00  0.00000000000E+00  0.36562950281E+03  0.36562950281E+03  0.00000000000E+00 0. -1.
          2   -1    0    0  505    0 -0.00000000000E+00 -0.00000000000E+00 -0.61695811693E+03  0.61695811693E+03  0.00000000000E+00 0. -1.
         21    1    1    2  503  501 -0.63096150073E+02 -0.36104904812E+02 -0.26442682855E+03  0.27423755389E+03  0.00000000000E+00 0. -1.
         21    1    1    2  504  502 -0.42191326972E+02  0.31934799354E+02  0.11884349956E+03  0.13009118675E+03  0.00000000000E+00 0. -1.
         21    1    1    2  505  504  0.14145131657E+03  0.59286274162E+02  0.20756848310E+03  0.25808528133E+03  0.00000000000E+00 0. -1.
          2    1    1    2  501    0 -0.36163839522E+02 -0.55116168704E+02 -0.31331376824E+03  0.32017359777E+03  0.00000000000E+00 0. -1.
<scales pt_clust_3="35.20279" pt_clust_4="52.91445" pt_clust_5="135.14916" pt_clust_6="35.20279"></scales>
<clustering>
<clus scale="   35.203">  3  6 -1 -1</clus>
<clus scale="   52.914">  1  4  2 -1</clus>
<clus scale="  135.149">  1  5  2 -1</clus>
<clus scale="   52.914">  1  3  2 -1</clus>
</clustering>
</event>
<event>
 6    0  0.1361744E+002  0.1807495E+03  0.7546771E-02  0.1167080E+00
         21   -1    0    0  501  502  0.00000000000E+00  0.00000000000E+00  0.23564194366E+03  0.23564194366E+03  0.00000000000E+00 0.  1.
          2   -1    0    0  504    0 -0.00000000000E+00 -0.00000000000E+00 -0.13227651883E+04  0.13227651883E+04  0.00000000000E+00 0. -1.
         21    1    1    2  503  502 -0.19973775577E+02  0.63119956339E+02  0.80118085771E+02  0.10393261407E+03  0.00000000000E+00 0. -1.
         21    1    1    2  504  505  0.59040512765E+01 -0.58885374723E+02 -0.12852031403E+03  0.14149140008E+03  0.00000000000E+00 0. -1.
         21    1    1    2  505  503  0.35841890304E+02  0.10987718115E+03  0.10931583300E+03  0.15908358615E+03  0.00000000000E+00 0.  1.
          2    1    1    2  501    0 -0.21772166003E+02 -0.11411176276E+03 -0.11480368494E+04  0.11538995316E+04  0.00000000000E+00 0. -1.
<scales pt_clust_3="42.22479" pt_clust_4="59.18061" pt_clust_5="42.22479" pt_clust_6="171.92406"></scales>
<clustering>
<clus scale="   42.225">  3  5 -1 -1</clus>
<clus scale="   59.181">  2  4  1 -1</clus>
<clus scale="  171.924">  2  6  1 -1</clus>
<clus scale="  180.750">  1  3  2 -1</clus>
</clustering>
</event>
<event>
 6    0  0.1361744E+002  0.1527613E+03  0.7546771E-02  0.1197120E+00
         21   -1    0    0  501  502  0.00000000000E+00  0.00000000000E+00  0.32104098271E+03  0.32104098271E+03  0.00000000000E+00 0. -1.
          1   -1    0    0  505    0 -0.00000000000E+00 -0.00000000000E+00 -0.57900429934E+03  0.57900429934E+03  0.00000000000E+00 0.  1.
         21    1    1    2  503  502 -0.39849556265E+02 -0.70711033819E+02  0.10658919952E+03  0.13397497861E+03  0.00000000000E+00 0. -1.
         21    1    1    2  504  503  0.10070398391E+03 -0.78121923118E+02  0.16182904143E+03  0.20599263554E+03  0.00000000000E+00 0. -1.
         21    1    1    2  505  504 -0.19227334753E+02  0.37361049240E+02 -0.35582869527E+02  0.55060684756E+02  0.00000000000E+00 0.  1.
          1    1    1    2  501    0 -0.41627092887E+02  0.11147190770E+03 -0.49079868806E+03  0.50501698315E+03  0.00000000000E+00 0.  1.
<scales pt_clust_3="80.57885" pt_clust_4="152.76128" pt_clust_5="42.01831" pt_clust_6="14000.00000"></scales>
<clustering>
<clus scale="   42.018">  2  5  1 -1</clus>
<clus scale="   80.579">  1  3  2 -1</clus>
<clus scale="  152.761">  1  4  2 -1</clus>
<clus scale="   80.579">  1  3  2 -1</clus>
</clustering>
</event>
<event>
 6    0  0.1361744E+002  0.2074122E+03  0.7546771E-02  0.1143632E+00
          3   -1    0    0  504    0 -0.00000000000E+00  0.00000000000E+00  0.81104373674E+03  0.81104373674E+03  0.00000000000E+00 0.  1.
         21   -1    0    0  505  502  0.00000000000E+00 -0.00000000000E+00 -0.70166479727E+02  0.70166479727E+02  0.00000000000E+00 0. -1.
         21    1    1    2  503  502  0.67397254698E+02 -0.86884723411E+02  0.49398265371E+02  0.12054681134E+03  0.00000000000E+00 0. -1.
         21    1    1    2  504  503  0.29320776534E+02 -0.85929701196E+02  0.10000291476E+03  0.13507110885E+03  0.00000000000E+00 0. -1.
         21    1    1    2  505  501 -0.67782911315E+02  0.72871308147E+02  0.27536456000E+03  0.29279752649E+03  0.00000000000E+00 0.  1.
          3    1    1    2  501    0 -0.28935119917E+02  0.99943116460E+02  0.31611151689E+03  0.33279476979E+03  0.00000000000E+00 0.  1.
<scales pt_clust_3="56.01925" pt_clust_4="56.01925" pt_clust_5="46.93010" pt_clust_6="203.76892"></scales>
<clustering>
<clus scale="   46.930">  5  6 -1 -1</clus>
<clus scale="   56.019">  3  4 -1 -1</clus>
<clus scale="  203.769">  1  5  2 -1</clus>
<clus scale="  207.412">  2  3  1 -1</clus>
</clustering>
</event>
<event>
 6    0  0.1361744E+002  0.1327001E+03  0.7546771E-02  0.1223503E+00
         21   -1    0    0  505  502  0.00000000000E+00  0.00000000000E+00  0.13829296090E+03  0.13829296090E+03  0.00000000000E+00 0. -1.
          2   -1    0    0  504    0 -0.00000000000E+00 -0.00000000000E+00 -0.11766822593E+04  0.11766822593E+04  0.00000000000E+00 0. -1.
         21    1    1    2  503  502 -0.32262260416E+02 -0.73379684705E+01  0.23348730358E+02  0.40495214999E+02  0.00000000000E+00 0. -1.
         21    1    1    2  504  503 -0.22649369480E+02 -0.65449021047E+02  0.61819658563E+02  0.92834468161E+02  0.00000000000E+00 0. -1.
         21    1    1    2  505  501 -0.59056443896E+02  0.20232664281E+02 -0.12679853049E+02  0.63700886516E+02  0.00000000000E+00 0. -1.
          2    1    1    2  501    0  0.11396807379E+03  0.52554325236E+02 -0.11108778342E+04  0.11179446505E+04  0.00000000000E+00 0. -1.
<scales pt_clust_3="32.49219" pt_clust_4="32.49219" pt_clust_5="62.42615" pt_clust_6="124.09433"></scales>
<clustering>
<clus scale="   32.492">  3  4 -1 -1</clus>
<clus scale="   62.426">  1  5  2 -1</clus>
<clus scale="  124.094">  2  6  1 -1</clus>
<clus scale="   62.426">  1  3  2 -1</clus>
</clustering>
</event>
<event>
 6    0  0.1361744E+002  0.3894349E+03  0.7546771E-02  0.1047501E+00
         -4   -1    0    0    0  501 -0.00000000000E+00  0.00000000000E+00  0.15570152369E+03  0.15570152369E+03  0.00000000000E+00 0. -1.
         21   -1    0    0  501  502  0.00000000000E+00 -0.00000000000E+00 -0.11033783686E+04  0.11033783686E+04  0.00000000000E+00 0. -1.
         21    1    1    2  503  502  0.11629478513E+03  0.16077017454E+03 -0.30575671732E+03  0.36449786866E+03  0.00000000000E+00 0. -1.
         21    1    1    2  504  503  0.16796449431E+03  0.81230857407E+02 -0.40645806561E+03  0.44723448284E+03  0.00000000000E+00 0. -1.
         21    1    1    2  505  504 -0.33847027123E+02 -0.60192452575E+02 -0.26581311229E+02  0.73995396469E+02  0.00000000000E+00 0. -1.
         -4    1    1    2    0  505 -0.25041225232E+03 -0.18180857937E+03 -0.20888075075E+03  0.37335214433E+03  0.00000000000E+00 0. -1.
<scales pt_clust_3="107.50722" pt_clust_4="107.50722" pt_clust_5="34.42195" pt_clust_6="380.36488"></scales>
<clustering>
<clus scale="   34.422">  5  6 -1 -1</clus>
<clus scale="  107.507">  3  4 -1 -1</clus>
<clus scale="  380.365">  1  5  2 -1</clus>
<clus scale="  389.435">  2  3  1 -1</clus>
</clustering>
</event>
<event>
 6    0  0.1361744E+002  0.9842494E+02  0.7546771E-02  0.1283643E+00
         -3   -1    0    0    0  501 -0.00000000000E+00  0.00000000000E+00  0.59690213513E+03  0.59690213513E+03  0.00000000000E+00 0. -1.
         21   -1    0    0  505  502  0.00000000000E+00 -0.00000000000E+00 -0.17858318230E+03  0.17858318230E+03  0.00000000000E+00 0. -1.
         21    1    1    2  503  502  0.63595117957E+02 -0.81307103494E+02 -0.15465087004E+01  0.10323553553E+03  0.00000000000E+00 0. -1.
         21    1    1    2  504  503 -0.11452674148E+03 -0.96567114627E+01 -0.87424100190E+02  0.14440429316E+03  0.00000000000E+00 0. -1.
         21    1    1    2  505  501 -0.24002513526E+02  0.40402800414E+02  0.97908714068E+02  0.10860305349E+03  0.00000000000E+00 0. -1.
         -3    1    1    2    0  504  0.74934137044E+02  0.50561014543E+02  0.40938084766E+03  0.41924243525E+03  0.00000000000E+00 0. -1.
<scales pt_clust_3="98.42494" pt_clust_4="14000.00000" pt_clust_5="46.99475" pt_clust_6="98.26498"></scales>
<clustering>
<clus scale="   46.995">  1  5  2 -1</clus>
<clus scale="   98.425">  2  3  1 -1</clus>
<clus scale="   98.265">  1  6  2 -1</clus>
<clus scale="   98.425">  2  3  1 -1</clus>
</clustering>
</event>
<event>
 6    0  0.1361744E+002  0.2997237E+03  0.7546771E-02  0.1085379E+00
          1   -1    0    0  504    0 -0.00000000000E+00  0.00000000000E+00  0.87032065011E+03  0.87032065011E+03  0.00000000000E+00 0.  1.
         21   -1    0    0  505  502  0.00000000000E+00 -0.00000000000E+00 -0.11439652899E+03  0.11439652899E+03  0.00000000000E+00 0.  1.
         21    1    1    2  503  502  0.47591198929E+02 -0.65133291687E+01  0.69481775340E+01  0.48534759126E+02  0.00000000000E+00 0. -1.
         21    1    1    2  504  503  0.23013789415E+03  0.71852325041E+02  0.21117849882E+03  0.32050361200E+03  0.00000000000E+00 0.  1.
         21    1    1    2  505  501 -0.84741684213E+02 -0.22272210033E+02  0.87256329352E+02  0.12365626306E+03  0.00000000000E+00 0. -1.
          1    1    1    2  501    0 -0.19298740887E+03 -0.43066785840E+02  0.45054111541E+03  0.49202254491E+03  0.00000000000E+00 0.  1.
<scales pt_clust_3="37.89445" pt_clust_4="297.67444" pt_clust_5="61.12466" pt_clust_6="61.12466"></scales>
<clustering>
<clus scale="   37.894">  3  4 -1 -1</clus>
<clus scale="   61.125">  5  6 -1 -1</clus>
<clus scale="  297.674">  2  3  1 -1</clus>
<clus scale="  297.674">  2  3  1 -1</clus>
</clustering>
</event>
<event>
 6    0  0.1361744E+002  0.1337656E+03  0.7546771E-02  0.1221973E+00
         21   -1    0    0  504  502  0.00000000000E+00  0.00000000000E+00  0.35921485721E+03  0.35921485721E+03  0.00000000000E+00 0. -1.
          2   -1    0    0  505    0 -0.00000000000E+00 -0.00000000000E+00 -0.13383632912E+04  0.13383632912E+04  0.00000000000E+00 0. -1.
         21    1    1    2  503  502 -0.18348416648E+02  0.40585796863E+02  0.24618123768E+03  0.25017808274E+03  0.00000000000E+00 0. -1.
         21    1    1    2  504  501  0.79317866350E+02 -0.38773593716E+02 -0.47412399604E+03  0.48227407054E+03  0.00000000000E+00 0. -1.
         21    1    1    2  505  503 -0.64297376910E+02  0.75479180792E+02  0.81797380961E+02  0.12853820810E+03  0.00000000000E+00 0. -1.
          2    1    1    2  501    0  0.33279272080E+01 -0.77291383938E+02 -0.83300305653E+03  0.83658778698E+03  0.00000000000E+00 0. -1.
<scales pt_clust_3="44.54067" pt_clust_4="133.76558" pt_clust_5="14000.00000" pt_clust_6="76.69618"></scales>
<clustering>
<clus scale="   44.541">  1  3  2 -1</clus>
<clus scale="   76.696">  2  6  1 -1</clus>
<clus scale="  133.766">  2  4  1 -1</clus>
<clus scale="   44.541">  1  3  2 -1</clus>
</clustering>
</event>
<event>
 6    0  0.1361744E+002  0.7244392E+02  0.7546771E-02  0.1351974E+00
         21   -1    0    0  504  502  0.00000000000E+00  0.00000000000E+00  0.79078894825E+03  0.79078894825E+03  0.00000000000E+00 0.  1.
          2   -1    0    0  505    0 -0.00000000000E+00 -0.00000000000E+00 -0.12692865539E+03  0.12692865539E+03  0.00000000000E+00 0. -1.
         21    1    1    2  503  502 -0.36421578335E+02 -0.61766771411E+02  0.66086996709E+03  0.66474865839E+03  0.00000000000E+00 0.  1.
         21    1    1    2  504  501  0.19475330031E+02  0.33012811065E+02  0.74953804866E+02  0.84185551243E+02  0.00000000000E+00 0.  1.
         21    1    1    2  505  503  0.78937312291E+02  0.12064681095E+02 -0.67272679155E+02  0.10441393184E+03  0.00000000000E+00 0. -1.
          2    1    1    2  501    0 -0.61991063987E+02  0.16689279250E+02 -0.46907999482E+01  0.64369462172E+02  0.00000000000E+00 0. -1.
<scales pt_clust_3="35.98505" pt_clust_4="38.32929" pt_clust_5="72.44392" pt_clust_6="14000.00000"></scales>
<clustering>
<clus scale="   38.329">  1  4  2 -1</clus>
<clus scale="   35.985">  1  3  2 -1</clus>
<clus scale="   72.444">  2  5  1 -1</clus>
<clus scale="   38.329">  1  3  2 -1</clus>
</clustering>
</event>
<event>
 6    0  0.1361744E+002  0.2012028E+03  0.7546771E-02  0.1148728E+00
         21   -1    0    0  503  502  0.00000000000E+00  0.00000000000E+00  0.32287448958E+03  0.32287448958E+03  0.00000000000E+00 0.  1.
          1   -1    0    0  504    0 -0.00000000000E+00 -0.00000000000E+00 -0.41672046230E+03  0.41672046230E+03  0.00000000000E+00 0.  1.
         21    1    1    2  503  501 -0.21590518245E+03 -0.85085682924E+02  0.17052770654E+03  0.28798319386E+03  0.00000000000E+00 0.  1.
         21    1    1    2  504  505 -0.61872543528E+01  0.40142142788E+02 -0.35677933052E+02  0.54060971605E+02  0.00000000000E+00 0.  1.
         21    1    1    2  505  502  0.24847975764E+02  0.37750981740E+02  0.42563925721E+02  0.62082576418E+02  0.00000000000E+00 0.  1.
          1    1    1    2  501    0  0.19724446104E+03  0.71925583968E+01 -0.27125967193E+03  0.33546821000E+03  0.00000000000E+00 0.  1.
<scales pt_clust_3="14000.00000" pt_clust_4="40.61618" pt_clust_5="45.99097" pt_clust_6="201.20275"></scales>
<clustering>
<clus scale="   40.616">  2  4  1 -1</clus>
<clus scale="   45.991">  1  5  2 -1</clus>
<clus scale="  201.203">  2  6  1 -1</clus>
<clus scale="   45.991">  1  3  2 -1</clus>
</clustering>
</event>
<event>
 6    0  0.1361744E+002  0.1449760E+03  0.7546771E-02  0.1206786E+00
          2   -1    0    0  503    0 -0.00000000000E+00  0.00000000000E+00  0.97803776681E+03  0.97803776681E+03  0.00000000000E+00 0. -1.
         21   -1    0    0  505  502  0.00000000000E+00 -0.00000000000E+00 -0.10146235173E+03  0.10146235173E+03  0.00000000000E+00 0.  1.
         21    1    1    2  503  502  0.63644524276E+02 -0.88412907135E+02  0.24177233192E+03  0.26518168884E+03  0.00000000000E+00 0. -1.
         21    1    1    2  504  501 -0.16110452081E+02  0.16207823090E+03  0.38161653514E+02  0.16728781007E+03  0.00000000000E+00 0.  1.
         21    1    1    2  505  504 -0.83016119518E+02 -0.11471329853E+02  0.54023295307E+02  0.99708494845E+02  0.00000000000E+00 0.  1.
          2    1    1    2  501    0  0.35482047323E+02 -0.62193993914E+02  0.54261813434E+03  0.54732212479E+03  0.00000000000E+00 0. -1.
<scales pt_clust_3="14000.00000" pt_clust_4="144.97604" pt_clust_5="79.95259" pt_clust_6="71.60355"></scales>
<clustering>
<clus scale="   71.604">  1  6  2 -1</clus>
<clus scale="   79.953">  2  5  1 -1</clus>
<clus scale="  144.976">  2  4  1 -1</clus>
<clus scale="   79.953">  2  3  1 -1</clus>
</clustering>
</event>
<event>
 6    0  0.1361744E+002  0.2646991E+03  0.7546771E-02  0.1104352E+00
         21   -1    0    0  503  502  0.00000000000E+00  0.00000000000E+00  0.64623614666E+03  0.64623614666E+03  0.00000000000E+00 0. -1.
         -1   -1    0    0    0  501 -0.00000000000E+00 -0.00000000000E+00 -0.42530981862E+03  0.42530981862E+03  0.00000000000E+00 0. -1.
         21    1    1    2  503  501 -0.13918787957E+02  0.28012882380E+02  0.59723997537E+02  0.67419656772E+02  0.00000000000E+00 0.  1.
         21    1    1    2  504  502  0.15121812626E+03  0.18095838985E+03  0.51216830825E+03  0.56385214067E+03  0.00000000000E+00 0. -1.
         21    1    1    2  505  504 -0.61940877751E+02 -0.48025156488E+02 -0.57556560810E+02  0.97241172785E+02  0.00000000000E+00 0. -1.
         -1    1    1    2    0  505 -0.75358460551E+02 -0.16094611574E+03 -0.29340941693E+03  0.34303299505E+03  0.00000000000E+00 0. -1.
<scales pt_clust_3="31.28025" pt_clust_4="248.84032" pt_clust_5="59.99369" pt_clust_6="59.99369"></scales>
<clustering>
<clus scale="   31.280">  1  3  2 -1</clus>
<clus scale="   59.994">  5  6 -1 -1</clus>
<clus scale="  248.840">  1  4  2 -1</clus>
<clus scale="   31.280">  1  3  2 -1</clus>
</clustering>
</event>
<event>
 6    0  0.1361744E+002  0.1354594E+03  0.7546771E-02  0.1219573E+00
         21   -1    0    0  503  502  0.00000000000E+00  0.00000000000E+00  0.13824775299E+04  0.13824775299E+04  0.00000000000E+00 0. -1.
          1   -1    0    0  502    0 -0.00000000000E+00 -0.00000000000E+00 -0.30647104909E+03  0.30647104909E+03  0.00000000000E+00 0.  1.
         21    1    1    2  503  505 -0.11863600814E+02 -0.32343206289E+02  0.99476789608E+03  0.99536425247E+03  0.00000000000E+00 0. -1.
         21    1    1    2  504  501 -0.29297069930E+02 -0.89635297158E+02  0.92210058614E+02  0.13189200018E+03  0.00000000000E+00 0.  1.
         21    1    1    2  505  504  0.32688037366E+02 -0.20212404744E+02  0.25612206719E+03  0.25898950248E+03  0.00000000000E+00 0.  1.
          1    1    1    2  501    0  0.84726333784E+01  0.14219090819E+03 -0.26709354108E+03  0.30270282386E+03  0.00000000000E+00 0.  1.
<scales pt_clust_3="34.45037" pt_clust_4="135.45944" pt_clust_5="48.53033" pt_clust_6="14000.00000"></scales>
<clustering>
<clus scale="   34.450">  1  3  2 -1</clus>
<clus scale="   48.530">  1  5  2 -1</clus>
<clus scale="  135.459">  1  4  2 -1</clus>
<clus scale="   34.450">  1  3  2 -1</clus>
</clustering>
</event>
<event>
 6    0  0.1361744E+002  0.1067886E+03  0.7546771E-02  0.1266635E+00
          2   -1    0    0  504    0 -0.00000000000E+00  0.00000000000E+00  0.54698029600E+03  0.54698029600E+03  0.00000000000E+00 0. -1.
         21   -1    0    0  503  502  0.00000000000E+00 -0.00000000000E+00 -0.44188507163E+03  0.44188507163E+03  0.00000000000E+00 0. -1.
         21    1    1    2  503  505 -0.22554284637E+02 -0.39904875913E+02 -0.33959411226E+03  0.34267368729E+03  0.00000000000E+00 0. -1.
         21    1    1    2  504  502 -0.42459784760E+02  0.36662207786E+02  0.13335864937E+03  0.14467715841E+03  0.00000000000E+00 0. -1.
         21    1    1    2  505  501 -0.81871952241E+02  0.53488950639E+01 -0.60353264733E+02  0.10185354096E+03  0.00000000000E+00 0. -1.
          2    1    1    2  501    0  0.14688602164E+03 -0.21062269369E+01  0.37168395199E+03  0.39966098097E+03  0.00000000000E+00 0. -1.
<scales pt_clust_3="45.83770" pt_clust_4="55.64897" pt_clust_5="14000.00000" pt_clust_6="106.78865"></scales>
<clustering>
<clus scale="   45.838">  2  3  1 -1</clus>
<clus scale="   55.649">  1  4  2 -1</clus>
<clus scale="  106.789">  1  6  2 -1</clus>
<clus scale="   45.838">  2  3  1 -1</clus>
</clustering>
</event>
<event>
 6    0  0.1361744E+002  0.3168675E+03  0.7546771E-02  0.1077100E+00
         21   -1    0    0  504  502  0.00000000000E+00  0.00000000000E+00  0.91942554023E+03  0.91942554023E+03  0.00000000000E+00 0. -1.
          2   -1    0    0  505    0 -0.00000000000E+00 -0.00000000000E+00 -0.40554161291E+03  0.40554161291E+03  0.00000000000E+00 0.  1.
         21    1    1    2  503  501 -0.14265784952E+03 -0.17388995978E+02  0.42021066190E+03  0.44410656332E+03  0.00000000000E+00 0. -1.
         21    1    1    2  504  503 -0.16100325753E+03 -0.44333532901E+02  0.35904556287E+03  0.39598134715E+03  0.00000000000E+00 0. -1.
         21    1    1    2  505  502 -0.38463301543E+02 -0.70815921923E+01  0.99704592266E+01  0.40360681000E+02  0.00000000000E+00 0. -1.
          2    1    1    2  501    0  0.34212440859E+03  0.68804121072E+02 -0.27534275667E+03  0.44451856168E+03  0.00000000000E+00 0.  1.
<scales pt_clust_3="46.20716" pt_clust_4="46.20716" pt_clust_5="39.10978" pt_clust_6="312.91744"></scales>
<clustering>
<clus scale="   39.110">  2  5  1 -1</clus>
<clus scale="   46.207">  3  4 -1 -1</clus>
<clus scale="  312.917">  2  6  1 -1</clus>
<clus scale="  316.868">  1  3  2 -1</clus>
</clustering>
</event>
<event>
 6    0  0.1361744E+002  0.1730033E+03  0.7546771E-02  0.1174752E+00
         21   -1    0    0  505  502  0.00000000000E+00  0.00000000000E+00  0.67357517619E+03  0.67357517619E+03  0.00000000000E+00 0. -1.
          1   -1    0    0  503    0 -0.00000000000E+00 -0.00000000000E+00 -0.49261224944E+03  0.49261224944E+03  0.00000000000E+00 0. -1.
         21    1    1    2  503  502 -0.45453222507E+02  0.54598464099E+02 -0.95588142616E+02  0.11909693836E+03  0.00000000000E+00 0. -1.
         21    1    1    2  504  501  0.39603748475E+02 -0.34025545233E+02  0.17977223811E+03  0.18720110101E+03  0.00000000000E+00 0. -1.
         21    1    1    2  505  504  0.25217456108E+02 -0.11998664851E+03  0.46349817858E+03  0.47944058804E+03  0.00000000000E+00 0. -1.
          1    1    1    2  501    0 -0.19367982076E+02  0.99413729649E+02 -0.36671934732E+03  0.38044879823E+03  0.00000000000E+00 0. -1.
<scales pt_clust_3="71.04215" pt_clust_4="33.86330" pt_clust_5="33.86330" pt_clust_6="165.03745"></scales>
<clustering>
<clus scale="   33.863">  4  5 -1 -1</clus>
<clus scale="   71.042">  2  3  1 -1</clus>
<clus scale="  165.037">  2  6  1 -1</clus>
<clus scale="  173.003">  1  3  2 -1</clus>
</clustering>
</event>
<event>
 6    0  0.1361744E+002  0.1954394E+03  0.7546771E-02  0.1153645E+00
         21   -1    0    0  501  502  0.00000000000E+00  0.00000000000E+00  0.46750741665E+03  0.46750741665E+03  0.00000000000E+00 0. -1.
          2   -1    0    0  505    0 -0.00000000000E+00 -0.00000000000E+00 -0.37225591263E+04  0.37225591263E+04  0.00000000000E+00 0. -1.
         21    1    1    2  503  502  0.18062631064E+02  0.80573507699E+02  0.13135767917E+03  0.15515536942E+03  0.00000000000E+00 0. -1.
         21    1    1    2  504  503  0.28910566138E+02  0.10225504054E+03  0.30240370551E+03  0.32053067756E+03  0.00000000000E+00 0. -1.
         21    1    1    2  505  504  0.12014140927E+03 -0.19166526609E+01 -0.43590646510E+03  0.45216377353E+03  0.00000000000E+00 0.  1.
          2    1    1    2  501    0 -0.16711460648E+03 -0.18091189558E+03 -0.32529066292E+04  0.32622167224E+04  0.00000000000E+00 0. -1.
<scales pt_clust_3="44.03603" pt_clust_4="44.03603" pt_clust_5="120.15670" pt_clust_6="188.94717"></scales>
<clustering>
<clus scale="   44.036">  3  4 -1 -1</clus>
<clus scale="  120.157">  2  5  1 -1</clus>
<clus scale="  188.947">  2  6  1 -1</clus>
<clus scale="  195.439">  1  3  2 -1</clus>
</clustering>
</event>
<event>
 6    0  0.1361744E+002  0.8714090E+02  0.7546771E-02  0.1309927E+00
         21   -1    0    0  503  502  0.00000000000E+00  0.00000000000E+00  0.45184778497E+02  0.45184778497E+02  0.00000000000E+00 0.  1.
          2   -1    0    0  504    0 -0.00000000000E+00 -0.00000000000E+00 -0.14000703577E+04  0.14000703577E+04  0.00000000000E+00 0.  1.
         21    1    1    2  503  501 -0.22794332071E+02 -0.38452014356E+02 -0.51014697846E+02  0.67828005859E+02  0.00000000000E+00 0.  1.
         21    1    1    2  504  505 -0.52455091754E+02  0.64452791727E+02 -0.25352935992E+03  0.26680111573E+03  0.00000000000E+00 0.  1.
         21    1    1    2  505  502 -0.65237725158E+02  0.11738586270E+02 -0.18830449405E+02  0.68908207176E+02  0.00000000000E+00 0.  1.
          2    1    1    2  501    0  0.14048714898E+03 -0.37739363642E+02 -0.10315110721E+04  0.10417178075E+04  0.00000000000E+00 0.  1.
<scales pt_clust_3="44.70055" pt_clust_4="80.67148" pt_clust_5="87.14090" pt_clust_6="14000.00000"></scales>
<clustering>
<clus scale="   44.701">  1  3  2 -1</clus>
<clus scale="   80.671">  2  4  1 -1</clus>
<clus scale="   87.141">  1  5  2 -1</clus>
<clus scale="   44.701">  1  3  2 -1</clus>
</clustering>
</event>
<event>
 6    0  0.1361744E+002  0.1645571E+03  0.7546771E-02  0.1183646E+00
         21   -1    0    0  503  502  0.00000000000E+00  0.00000000000E+00  0.83898701817E+02  0.83898701817E+02  0.00000000000E+00 0.  1.
         -2   -1    0    0    0  501 -0.00000000000E+00 -0.00000000000E+00 -0.50343872337E+03  0.50343872337E+03  0.00000000000E+00 0.  1.
         21    1    1    2  503  505  0.48819640852E+02  0.59049972501E+02 -0.18915487106E+02  0.78918009591E+02  0.00000000000E+00 0.  1.
         21    1    1    2  504  502 -0.32015940135E+02 -0.27132719868E+02 -0.49263742890E+02  0.64715695729E+02  0.00000000000E+00 0. -1.
         21    1    1    2  505  501  0.82226760175E+02  0.19796080059E+02 -0.10771452814E+02  0.85259304890E+02  0.00000000000E+00 0.  1.
         -2    1    1    2    0  504 -0.99030460892E+02 -0.51713332693E+02 -0.34058933874E+03  0.35844441498E+03  0.00000000000E+00 0.  1.
<scales pt_clust_3="49.30058" pt_clust_4="37.22659" pt_clust_5="161.47098" pt_clust_6="37.22659"></scales>
<clustering>
<clus scale="   37.227">  4  6 -1 -1</clus>
<clus scale="   49.301">  3  5 -1 -1</clus>
<clus scale="  161.471">  1  3  2 -1</clus>
<clus scale="  161.471">  1  3  2 -1</clus>
</clustering>
</event>
<event>
 6    0  0.1361744E+002  0.1615807E+03  0.7546771E-02  0.1186924E+00
         21   -1    0    0  505  502  0.00000000000E+00  0.00000000000E+00  0.28080038649E+03  0.28080038649E+03  0.00000000000E+00 0.  1.
         -2   -1    0    0    0  501 -0.00000000000E+00 -0.00000000000E+00 -0.14446920067E+04  0.14446920067E+04  0.00000000000E+00 0.  1.
         21    1    1    2  503  504 -0.57951157203E+02  0.50906170661E+02 -0.45777612594E+03  0.46422920665E+03  0.00000000000E+00 0. -1.
         21    1    1    2  504  502  0.10715448985E+03 -0.17028161912E+02  0.21691748766E+03  0.24253915034E+03  0.00000000000E+00 0.  1.
         21    1    1    2  505  501  0.23452143760E+02 -0.46301799318E+02  0.31918843110E+02  0.60931701212E+02  0.00000000000E+00 0.  1.
         -2    1    1    2    0  503 -0.72655476408E+02  0.12423790570E+02 -0.95495182505E+03  0.95779233500E+03  0.00000000000E+00 0.  1.
<scales pt_clust_3="71.22333" pt_clust_4="144.33332" pt_clust_5="51.90241" pt_clust_6="71.22333"></scales>
<clustering>
<clus scale="   51.902">  1  5  2 -1</clus>
<clus scale="   71.223">  3  6 -1 -1</clus>
<clus scale="  144.333">  1  4  2 -1</clus>
<clus scale="   51.902">  1  3  2 -1</clus>
</clustering>
</event>
<event>
 6    0  0.1361744E+002  0.1140144E+03  0.7546771E-02  0.1253311E+00
          1   -1    0    0  503    0 -0.00000000000E+00  0.00000000000E+00  0.12501696832E+04  0.12501696832E+04  0.00000000000E+00 0.  1.
         21   -1    0    0  504  502  0.00000000000E+00 -0.00000000000E+00 -0.17445818740E+03  0.17445818740E+03  0.00000000000E+00 0.  1.
         21    1    1    2  503  505 -0.29078663235E+02 -0.11792330840E+03  0.97491210986E+03  0.98244852144E+03  0.00000000000E+00 0.  1.
         21    1    1    2  504  501  0.12824766063E+03  0.52617259792E+02  0.63501485712E+02  0.15247451319E+03  0.00000000000E+00 0.  1.
         21    1    1    2  505  502 -0.67808059626E+02 -0.26097501017E+02 -0.98892460899E+02  0.12271402256E+03  0.00000000000E+00 0.  1.
          1    1    1    2  501    0 -0.31360937768E+02  0.91403549629E+02  0.13619036112E+03  0.16699081341E+03  0.00000000000E+00 0.  1.
<scales pt_clust_3="114.01437" pt_clust_4="87.86356" pt_clust_5="72.65681" pt_clust_6="14000.00000"></scales>
<clustering>
<clus scale="   72.657">  2  5  1 -1</clus>
<clus scale="   87.864">  2  4  1 -1</clus>
<clus scale="  114.014">  1  3  2 -1</clus>
<clus scale="   72.657">  2  3  1 -1</clus>
</clustering>
</event>
<event>
 6    0  0.1361744E+002  0.2271946E+03  0.7546771E-02  0.1128630E+00
         -1   -1    0    0    0  501 -0.00000000000E+00  0.00000000000E+00  0.33737045257E+03  0.33737045257E+03  0.00000000000E+00 0. -1.
         21   -1    0    0  501  502  0.00000000000E+00 -0.00000000000E+00 -0.16278907146E+03  0.16278907146E+03  0.00000000000E+00 0.  1.
         21    1    1    2  503  502 -0.63434792953E+02 -0.37754043144E+02  0.20044546903E+02  0.76492644033E+02  0.00000000000E+00 0.  1.
         21    1    1    2  504  503 -0.14460234459E+03 -0.74085929198E+01 -0.69009148209E+01  0.14495636563E+03  0.00000000000E+00 0.  1.
         21    1    1    2  505  504  0.91273405374E+02  0.48191446697E+02  0.41355809027E+02  0.11119151498E+03  0.00000000000E+00 0. -1.
         -1    1    1    2    0  505  0.11676373217E+03 -0.30288106335E+01  0.12008194000E+03  0.16751899939E+03  0.00000000000E+00 0. -1.
<scales pt_clust_3="42.52976" pt_clust_4="221.05861" pt_clust_5="74.60275" pt_clust_6="74.60275"></scales>
<clustering>
<clus scale="   42.530">  3  4 -1 -1</clus>
<clus scale="   74.603">  5  6 -1 -1</clus>
<clus scale="  221.059">  2  3  1 -1</clus>
<clus scale="  221.059">  2  3  1 -1</clus>
</clustering>
</event>
<event>
 6    0  0.1361744E+002  0.1389296E+03  0.7546771E-02  0.1214777E+00
         21   -1    0    0  501  502  0.00000000000E+00  0.00000000000E+00  0.76712894824E+02  0.76712894824E+02  0.00000000000E+00 0. -1.
          2   -1    0    0  505    0 -0.00000000000E+00 -0.00000000000E+00 -0.14680716348E+04  0.14680716348E+04  0.00000000000E+00 0. -1.
         21    1    1    2  503  502  0.81374096721E+02  0.42663226652E+01 -0.51024258391E+02  0.96142706799E+02  0.00000000000E+00 0. -1.
         21    1    1    2  504  503 -0.76388862365E+02 -0.14674941476E+03 -0.90710797410E+02  0.18867723178E+03  0.00000000000E+00 0. -1.
         21    1    1    2  505  504 -0.26633068385E+02  0.27046436924E+02 -0.18307850779E+03  0.18697211048E+03  0.00000000000E+00 0.  1.
          2    1    1    2  501    0  0.21647834028E+02  0.11543665517E+03 -0.10665451764E+04  0.10729924806E+04  0.00000000000E+00 0. -1.
<scales pt_clust_3="80.05832" pt_clust_4="138.92963" pt_clust_5="37.95827" pt_clust_6="14000.00000"></scales>
<clustering>
<clus scale="   37.958">  2  5  1 -1</clus>
<clus scale="   80.058">  1  3  2 -1</clus>
<clus scale="  138.930">  1  4  2 -1</clus>
<clus scale="   80.058">  1  3  2 -1</clus>
</clustering>
</event>
<event>
 6    0  0.1361744E+002  0.3961603E+03  0.7546771E-02  0.1045117E+00
          1   -1    0    0  502    0 -0.00000000000E+00  0.00000000000E+00  0.17526869421E+04  0.17526869421E+04  0.00000000000E+00 0. -1.
         21   -1    0    0  503  502  0.00000000000E+00 -0.00000000000E+00 -0.30932107460E+03  0.30932107460E+03  0.00000000000E+00 0.  1.
         21    1    1    2  503  504 -0.39805024745E+02 -0.30387020927E+03 -0.11318812020E+03  0.32670031318E+03  0.00000000000E+00 0.  1.
         21    1    1    2  504  505  0.19502301842E+02 -0.87541047245E+02 -0.34483920141E+02  0.96088061060E+02  0.00000000000E+00 0. -1.
         21    1    1    2  505  501 -0.69929641517E+01  0.23600842919E+03  0.90828337937E+03  0.93847087192E+03  0.00000000000E+00 0. -1.
          1    1    1    2  501    0  0.27295687055E+02  0.15540282732E+03  0.68275452842E+03  0.70074877050E+03  0.00000000000E+00 0. -1.
<scales pt_clust_3="31.20798" pt_clust_4="31.20798" pt_clust_5="36.78086" pt_clust_6="394.51161"></scales>
<clustering>
<clus scale="   31.208">  3  4 -1 -1</clus>
<clus scale="   36.781">  5  6 -1 -1</clus>
<clus scale="  394.512">  1  5  2 -1</clus>
<clus scale="  396.160">  2  3  1 -1</clus>
</clustering>
</event>
<event>
 6    0  0.1361744E+002  0.1416777E+03  0.7546771E-02  0.1211089E+00
         21   -1    0    0  504  502  0.00000000000E+00  0.00000000000E+00  0.12694382819E+03  0.12694382819E+03  0.00000000000E+00 0.  1.
          2   -1    0    0  503    0 -0.00000000000E+00 -0.00000000000E+00 -0.21817844073E+04  0.21817844073E+04  0.00000000000E+00 0.  1.
         21    1    1    2  503  505  0.36014248992E+02  0.45996999844E+01 -0.19918128878E+03  0.20246325388E+03  0.00000000000E+00 0. -1.
         21    1    1    2  504  501 -0.10641923125E+03  0.16064654063E+00 -0.80050536344E+02  0.13316593767E+03  0.00000000000E+00 0. -1.
         21    1    1    2  505  502 -0.14549715249E+02  0.94787293728E+02  0.72589676940E+02  0.12027296647E+03  0.00000000000E+00 0.  1.
          2    1    1    2  501    0  0.84954697503E+02 -0.99547640253E+02 -0.18481984309E+04  0.18528260775E+04  0.00000000000E+00 0.  1.
<scales pt_clust_3="36.30680" pt_clust_4="14000.00000" pt_clust_5="95.88742" pt_clust_6="141.67765"></scales>
<clustering>
<clus scale="   36.307">  2  3  1 -1</clus>
<clus scale="   95.887">  1  5  2 -1</clus>
<clus scale="  141.678">  2  6  1 -1</clus>
<clus scale="   95.887">  1  3  2 -1</clus>
</clustering>
</event>
<event>
 6    0  0.1361744E+002  0.7119273E+02  0.7546771E-02  0.1356083E+00
         21   -1    0    0  503  502  0.00000000000E+00  0.00000000000E+00  0.10031815708E+04  0.10031815708E+04  0.00000000000E+00 0. -1.
         -2   -1    0    0    0  501 -0.00000000000E+00 -0.00000000000E+00 -0.45308178839E+03  0.45308178839E+03  0.00000000000E+00 0. -1.
         21    1    1    2  503  505  0.67793244255E+02 -0.21318929325E+02  0.96629969800E+03  0.96890945246E+03  0.00000000000E+00 0. -1.
         21    1    1    2  504  501 -0.62776298459E+00  0.31702087723E+02  0.21856727295E+01  0.31783543189E+02  0.00000000000E+00 0. -1.
         21    1    1    2  505  504  0.29610894744E+02 -0.53006197395E+02 -0.76280135643E+02  0.97494210821E+02  0.00000000000E+00 0. -1.
         -2    1    1    2    0  502 -0.96776376014E+02  0.42623038997E+02 -0.34210545267E+03  0.35807615273E+03  0.00000000000E+00 0. -1.
<scales pt_clust_3="14000.00000" pt_clust_4="31.70830" pt_clust_5="55.24801" pt_clust_6="71.19273"></scales>
<clustering>
<clus scale="   31.708">  2  4  1 -1</clus>
<clus scale="   55.248">  2  5  1 -1</clus>
<clus scale="   71.193">  2  6  1 -1</clus>
<clus scale="   71.193">  1  3  2 -1</clus>
</clustering>
</event>
<event>
 6    0  0.1361744E+002  0.3151351E+03  0.7546771E-02  0.1077910E+00
          2   -1    0    0  503    0 -0.00000000000E+00  0.00000000000E+00  0.38164430407E+04  0.38164430407E+04  0.00000000000E+00 0. -1.
         21   -1    0    0  505  502  0.00000000000E+00 -0.00000000000E+00 -0.46399180873E+02  0.46399180873E+02  0.00000000000E+00 0. -1.
         21    1    1    2  503  504  0.20713520505E+03 -0.14707874500E+03  0.20342611210E+04  0.20500623061E+04  0.00000000000E+00 0. -1.
         21    1    1    2  504  502  0.62111240112E+02 -0.20116230075E+02  0.92603854648E+03  0.92833714696E+03  0.00000000000E+00 0.  1.
         21    1    1    2  505  501 -0.28255481419E+02  0.43181419206E+02  0.31744975057E+02  0.60586719966E+02  0.00000000000E+00 0. -1.
          2    1    1    2  501    0 -0.24099096375E+03  0.12401355587E+03  0.77799921723E+03  0.82385604850E+03  0.00000000000E+00 0. -1.
<scales pt_clust_3="42.53942" pt_clust_4="42.53942" pt_clust_5="51.60433" pt_clust_6="303.75771"></scales>
<clustering>
<clus scale="   42.539">  3  4 -1 -1</clus>
<clus scale="   51.604">  2  5  1 -1</clus>
<clus scale="  303.758">  2  6  1 -1</clus>
<clus scale="   51.604">  2  3  1 -1</clus>
</clustering>
</event>
<event>
 6    0  0.1361744E+002  0.9278257E+02  0.7546771E-02  0.1296250E+00
         21   -1    0    0  504  502  0.00000000000E+00  0.00000000000E+00  0.30240706919E+03  0.30240706919E+03  0.00000000000E+00 0. -1.
          1   -1    0    0  505    0 -0.00000000000E+00 -0.00000000000E+00 -0.14778731961E+03  0.14778731961E+03  0.00000000000E+00 0.  1.
         21    1    1    2  503  501 -0.53694872174E+02 -0.22399253639E+02  0.10449404380E+03  0.11959879201E+03  0.00000000000E+00 0. -1.
         21    1    1    2  504  503 -0.15464402707E+02  0.31695765596E+02  0.99093683886E+02  0.10518235353E+03  0.00000000000E+00 0. -1.
         21    1    1    2  505  502 -0.62688601206E+02  0.41909442499E+02 -0.35456137350E+02  0.83327065036E+02  0.00000000000E+00 0. -1.
          1    1    1    2  501    0  0.13184787609E+03 -0.51205954456E+02 -0.13511840751E+02  0.14208617822E+03  0.00000000000E+00 0.  1.
<scales pt_clust_3="62.52125" pt_clust_4="35.26711" pt_clust_5="14000.00000" pt_clust_6="92.78257"></scales>
<clustering>
<clus scale="   35.267">  1  4  2 -1</clus>
<clus scale="   62.521">  1  3  2 -1</clus>
<clus scale="   92.783">  1  6  2 -1</clus>
<clus scale="   35.267">  1  3  2 -1</clus>
</clustering>
</event>
<event>
 6    0  0.1361744E+002  0.2572442E+03  0.7546771E-02  0.1108810E+00
          2   -1    0    0  503    0 -0.00000000000E+00  0.00000000000E+00  0.19123750716E+04  0.19123750716E+04  0.00000000000E+00 0.  1.
         21   -1    0    0  504  502  0.00000000000E+00 -0.00000000000E+00 -0.25525405886E+03  0.25525405886E+03  0.00000000000E+00 0.  1.
         21    1    1    2  503  502 -0.13286406938E+03 -0.18717966248E+03 -0.13068051863E+03  0.26413346044E+03  0.00000000000E+00 0.  1.
         21    1    1    2  504  505  0.19866655902E+02 -0.42296837082E+02 -0.37538758807E+02  0.59940510980E+02  0.00000000000E+00 0.  1.
         21    1    1    2  505  501  0.36611576609E+02  0.11417716443E+03  0.89219624650E+03  0.90021718196E+03  0.00000000000E+00 0.  1.
          2    1    1    2  501    0  0.76385836872E+02  0.11529933513E+03  0.93314404362E+03  0.94333797703E+03  0.00000000000E+00 0.  1.
<scales pt_clust_3="254.50743" pt_clust_4="46.73014" pt_clust_5="34.84550" pt_clust_6="34.84550"></scales>
<clustering>
<clus scale="   34.845">  5  6 -1 -1</clus>
<clus scale="   46.730">  2  4  1 -1</clus>
<clus scale="  254.507">  2  3  1 -1</clus>
<clus scale="   46.730">  2  3  1 -1</clus>
</clustering>
</event>
<event>
 6    0  0.1361744E+002  0.1376549E+03  0.7546771E-02  0.1216520E+00
         -2   -1    0    0    0  501 -0.00000000000E+00  0.00000000000E+00  0.37379945185E+03  0.37379945185E+03  0.00000000000E+00 0. -1.
         21   -1    0    0  503  502  0.00000000000E+00 -0.00000000000E+00 -0.61029823394E+03  0.61029823394E+03  0.00000000000E+00 0.  1.
         21    1    1    2  503  501 -0.10439829630E+03 -0.31127854942E+02 -0.44496203407E+03  0.45810387401E+03  0.00000000000E+00 0.  1.
         21    1    1    2  504  502 -0.64413754237E+01 -0.33235575467E+02 -0.14371987449E+03  0.14765330039E+03  0.00000000000E+00 0.  1.
         21    1    1    2  505  504  0.41728970047E+02  0.11249626794E+01  0.76097047488E+02  0.86794775871E+02  0.00000000000E+00 0. -1.
         -2    1    1    2    0  505  0.69110701675E+02  0.63238467730E+02  0.27608607898E+03  0.29154573551E+03  0.00000000000E+00 0. -1.
<scales pt_clust_3="127.54749" pt_clust_4="33.85402" pt_clust_5="34.61054" pt_clust_6="34.61054"></scales>
<clustering>
<clus scale="   33.854">  2  4  1 -1</clus>
<clus scale="   34.611">  5  6 -1 -1</clus>
<clus scale="  127.547">  2  3  1 -1</clus>
<clus scale="   33.854">  2  3  1 -1</clus>
</clustering>
</event>
<event>
 6    0  0.1361744E+002  0.1367493E+03  0.7546771E-02  0.1217771E+00
          1   -1    0    0  503    0 -0.00000000000E+00  0.00000000000E+00  0.57657324745E+03  0.57657324745E+03  0.00000000000E+00 0. -1.
         21   -1    0    0  505  502  0.00000000000E+00 -0.00000000000E+00 -0.16180350830E+03  0.16180350830E+03  0.00000000000E+00 0. -1.
         21    1    1    2  503  502 -0.53742066846E+02  0.24604590439E+02  0.44124390726E+02  0.73760134737E+02  0.00000000000E+00 0. -1.
         21    1    1    2  504  501  0.45457383896E+02  0.19591061853E+02 -0.14626025838E+02  0.51614959915E+02  0.00000000000E+00 0. -1.
         21    1    1    2  505  504  0.77184750806E+02  0.29532679615E+02 -0.92876689703E+02  0.12432113421E+03  0.00000000000E+00 0. -1.
          1    1    1    2  501    0 -0.68900067856E+02 -0.73728331907E+02  0.47814806397E+03  0.48868052688E+03  0.00000000000E+00 0. -1.
<scales pt_clust_3="59.10665" pt_clust_4="34.10936" pt_clust_5="34.10936" pt_clust_6="129.45240"></scales>
<clustering>
<clus scale="   34.109">  4  5 -1 -1</clus>
<clus scale="   59.107">  1  3  2 -1</clus>
<clus scale="  129.452">  1  6  2 -1</clus>
<clus scale="  136.749">  2  3  1 -1</clus>
</clustering>
</event>
<event>
 6    0  0.1361744E+002  0.1838465E+03  0.7546771E-02  0.1164131E+00
         21   -1    0    0  504  502  0.00000000000E+00  0.00000000000E+00  0.44434950492E+03  0.44434950492E+03  0.00000000000E+00 0. -1.
         -4   -1    0    0    0  501 -0.00000000000E+00 -0.00000000000E+00 -0.18884369675E+03  0.18884369675E+03  0.00000000000E+00 0. -1.
         21    1    1    2  503  502  0.58259792871E+02  0.11959389636E+02 -0.52978637669E+02  0.79649020804E+02  0.00000000000E+00 0. -1.
         21    1    1    2  504  505 -0.15007452589E+02  0.32694396375E+02  0.16322806690E+03  0.16714529312E+03  0.00000000000E+00 0. -1.
         21    1    1    2  505  501 -0.13890389296E+03  0.37849397253E+02  0.20189204183E+03  0.24796625759E+03  0.00000000000E+00 0. -1.
         -4    1    1    2    0  503  0.95651552675E+02 -0.82503183265E+02 -0.56635662895E+02  0.13843263015E+03  0.00000000000E+00 0. -1.
<scales pt_clust_3="57.84071" pt_clust_4="35.97426" pt_clust_5="164.07428" pt_clust_6="57.84071"></scales>
<clustering>
<clus scale="   35.974">  1  4  2 -1</clus>
<clus scale="   57.841">  3  6 -1 -1</clus>
<clus scale="  164.074">  1  5  2 -1</clus>
<clus scale="   35.974">  1  3  2 -1</clus>
</clustering>
</event>
<event>
 6    0  0.1361744E+002  0.6451443E+02  0.7546771E-02  0.1379807E+00
         21   -1    0    0  503  502  0.00000000000E+00  0.00000000000E+00  0.69851030394E+02  0.69851030394E+02  0.00000000000E+00 0.  1.
         -3   -1    0    0    0  501 -0.00000000000E+00 -0.00000000000E+00 -0.80115736900E+03  0.80115736900E+03  0.00000000000E+00 0. -1.
         21    1    1    2  503  504 -0.10397985647E+02  0.10221389755E+03  0.34684424964E+01  0.10279994675E+03  0.00000000000E+00 0.  1.
         21    1    1    2  504  501 -0.89396139948E+01 -0.62811419863E+02 -0.62412239752E+03  0.62733879065E+03  0.00000000000E+00 0. -1.
         21    1    1    2  505  502  0.37387139108E+02  0.64049771359E+01 -0.46960776008E+02  0.60366682748E+02  0.00000000000E+00 0.  1.
         -3    1    1    2    0  505 -0.18049539466E+02 -0.45807454825E+02 -0.63691607571E+02  0.80502979246E+02  0.00000000000E+00 0. -1.
<scales pt_clust_3="14000.00000" pt_clust_4="64.51443" pt_clust_5="37.93181" pt_clust_6="46.81712"></scales>
<clustering>
<clus scale="   37.932">  1  5  2 -1</clus>
<clus scale="   46.817">  1  6  2 -1</clus>
<clus scale="   64.514">  2  4  1 -1</clus>
<clus scale="   37.932">  1  3  2 -1</clus>
</clustering>
</event>
<event>
 6    0  0.1361744E+002  0.6931179E+02  0.7546771E-02  0.1362449E+00
          4   -1    0    0  503    0 -0.00000000000E+00  0.00000000000E+00  0.47133074020E+03  0.47133074020E+03  0.00000000000E+00 0. -1.
         21   -1    0    0  505  502  0.00000000000E+00 -0.00000000000E+00 -0.33951582211E+03  0.33951582211E+03  0.00000000000E+00 0. -1.
         21    1    1    2  503  502 -0.20393348720E+02  0.83769528219E+02 -0.28580316468E+03  0.29852415559E+03  0.00000000000E+00 0. -1.
         21    1    1    2  504  501 -0.40798732447E+02 -0.40866613147E+02  0.56232826998E+02  0.80602403634E+02  0.00000000000E+00 0. -1.
         21    1    1    2  505  504 -0.14407406983E+02 -0.52378366204E+02 -0.76874462280E+01  0.54864956499E+02  0.00000000000E+00 0.  1.
          4    1    1    2  501    0  0.75599488150E+02  0.94754511319E+01  0.36907270199E+03  0.37685504659E+03  0.00000000000E+00 0. -1.
<scales pt_clust_3="48.20509" pt_clust_4="69.31179" pt_clust_5="54.32372" pt_clust_6="14000.00000"></scales>
<clustering>
<clus scale="   54.324">  2  5  1 -1</clus>
<clus scale="   48.205">  2  3  1 -1</clus>
<clus scale="   69.312">  2  4  1 -1</clus>
<clus scale="   54.324">  2  3  1 -1</clus>
</clustering>
</event>
<event>
 6    0  0.1464298E+002  0.1375239E+03  0.7546771E-02  0.1216700E+00
          1   -1    0    0  504    0 -0.00000000000E+00  0.00000000000E+00  0.33268727003E+03  0.33268727003E+03  0.00000000000E+00 0.  1.
         21   -1    0    0  505  502  0.00000000000E+00 -0.00000000000E+00 -0.13563325639E+04  0.13563325639E+04  0.00000000000E+00 0.  1.
         21    1    1    2  503  502 -0.49356143507E+02  0.16282246931E+02 -0.17011887838E+03  0.17788078381E+03  0.00000000000E+00 0.  1.
         21    1    1    2  504  503  0.31615492287E+02  0.77085950497E+00 -0.39473895336E+01  0.31870291199E+02  0.00000000000E+00 0. -1.
         21    1    1    2  505  501 -0.75957065538E+02  0.44931237861E+02 -0.11526613262E+04  0.11560347853E+04  0.00000000000E+00 0.  1.
          1    1    1    2  501    0  0.93697716758E+02 -0.61984344297E+02  0.30308230017E+03  0.32323397368E+03  0.00000000000E+00 0.  1.
<scales pt_clust_3="51.61002" pt_clust_4="31.62489" pt_clust_5="14000.00000" pt_clust_6="137.52394"></scales>
<clustering>
<clus scale="   31.625">  1  4  2 -1</clus>
<clus scale="   51.610">  2  3  1 -1</clus>
<clus scale="  137.524">  1  6  2 -1</clus>
<clus scale="   51.610">  2  3  1 -1</clus>
</clustering>
</event>
<event>
 6    0  0.1361744E+002  0.1855302E+03  0.7546771E-02  0.1162556E+00
         21   -1    0    0  504  502  0.00000000000E+00  0.00000000000E+00  0.21427971722E+03  0.21427971722E+03  0.00000000000E+00 0. -1.
          2   -1    0    0  503    0 -0.00000000000E+00 -0.00000000000E+00 -0.28034570876E+04  0.28034570876E+04  0.00000000000E+00 0. -1.
         21    1    1    2  503  502 -0.19611490274E+03  0.12646804832E+03  0.12588745781E+03  0.26514689204E+03  0.00000000000E+00 0. -1.
         21    1    1    2  504  505  0.59450107794E+02 -0.93120523127E+01 -0.42551492827E+02  0.73699790887E+02  0.00000000000E+00 0. -1.
         21    1    1    2  505  501  0.85890200142E+02 -0.47875621357E+02 -0.13274788224E+04  0.13311157822E+04  0.00000000000E+00 0.  1.
          2    1    1    2  501    0  0.50774594801E+02 -0.69280374653E+02 -0.13450345130E+04  0.13477743397E+04  0.00000000000E+00 0. -1.
<scales pt_clust_3="180.82996" pt_clust_4="60.17499" pt_clust_5="38.78346" pt_clust_6="38.78346"></scales>
<clustering>
<clus scale="   38.783">  5  6 -1 -1</clus>
<clus scale="   60.175">  1  4  2 -1</clus>
<clus scale="  180.830">  1  3  2 -1</clus>
<clus scale="   60.175">  1  3  2 -1</clus>
</clustering>
</event>
<event>
 6    0  0.1361744E+002  0.7458265E+02  0.7546771E-02  0.1345168E+00
          2   -1    0    0  505    0 -0.00000000000E+00  0.00000000000E+00  0.69908785044E+03  0.69908785044E+03  0.00000000000E+00 0. -1.
         21   -1    0    0  504  502  0.00000000000E+00 -0.00000000000E+00 -0.56361073129E+02  0.56361073129E+02  0.00000000000E+00 0. -1.
         21    1    1    2  503  502 -0.24883110102E+02 -0.22864120087E+02 -0.12159538851E+02  0.35913667882E+02  0.00000000000E+00 0. -1.
         21    1    1    2  504  501  0.12756205833E+02 -0.35996198719E+02  0.79830683858E+01  0.39015080293E+02  0.00000000000E+00 0. -1.
         21    1    1    2  505  503  0.64623820916E+02  0.10029419631E+03  0.23851253769E+03  0.26668969736E+03  0.00000000000E+00 0. -1.
          2    1    1    2  501    0 -0.52496916647E+02 -0.41433877506E+02  0.40839071009E+03  0.41383047803E+03  0.00000000000E+00 0. -1.
<scales pt_clust_3="33.79256" pt_clust_4="46.97818" pt_clust_5="74.58265" pt_clust_6="14000.00000"></scales>
<clustering>
<clus scale="   33.793">  2  3  1 -1</clus>
<clus scale="   46.978">  2  4  1 -1</clus>
<clus scale="   74.583">  2  5  1 -1</clus>
<clus scale="   33.793">  2  3  1 -1</clus>
</clustering>
</event>
<event>
 6    0  0.1361744E+002  0.1362377E+03  0.7546771E-02  0.1218483E+00
          1   -1    0    0  505    0 -0.00000000000E+00  0.00000000000E+00  0.69924332091E+03  0.69924332091E+03  0.00000000000E+00 0. -1.
         21   -1    0    0  504  502  0.00000000000E+00 -0.00000000000E+00 -0.16957235898E+03  0.16957235898E+03  0.00000000000E+00 0. -1.
         21    1    1    2  503  502 -0.10561359177E+03 -0.22741671382E+02 -0.37610475867E+02  0.11439389091E+03  0.00000000000E+00 0. -1.
         21    1    1    2  504  501 -0.30238140815E+02  0.26199174890E+01 -0.59526855436E+02  0.66818078734E+02  0.00000000000E+00 0. -1.
         21    1    1    2  505  503 -0.65303159891E+02  0.45654191897E+02  0.18968904247E+03  0.20574435779E+03  0.00000000000E+00 0. -1.
          1    1    1    2  501    0  0.20115489247E+03 -0.25532438004E+02  0.43711925077E+03  0.48185935246E+03  0.00000000000E+00 0. -1.
<scales pt_clust_3="136.23772" pt_clust_4="30.35143" pt_clust_5="81.67048" pt_clust_6="14000.00000"></scales>
<clustering>
<clus scale="   30.351">  2  4  1 -1</clus>
<clus scale="   81.670">  1  5  2 -1</clus>
<clus scale="  136.238">  2  3  1 -1</clus>
<clus scale="   30.351">  2  3  1 -1</clus>
</clustering>
</event>
<event>
 6    0  0.1361744E+002  0.2172579E+03  0.7546771E-02  0.1135944E+00
          2   -1    0    0  504    0 -0.00000000000E+00  0.00000000000E+00  0.59155583515E+03  0.59155583515E+03  0.00000000000E+00 0.  1.
         21   -1    0    0  503  502  0.00000000000E+00 -0.00000000000E+00 -0.37324359325E+03  0.37324359325E+03  0.00000000000E+00 0.  1.
         21    1    1    2  503  505  0.58691297192E+02 -0.38711111656E+02 -0.94132112635E+02  0.11749073649E+03  0.00000000000E+00 0.  1.
         21    1    1    2  504  502 -0.15885190419E+02  0.33775085808E+02  0.13139087795E+03  0.13658937918E+03  0.00000000000E+00 0.  1.
         21    1    1    2  505  501  0.14762542512E+03 -0.16388475444E+02 -0.22045767388E+03  0.26582594727E+03  0.00000000000E+00 0.  1.
          2    1    1    2  501    0 -0.19043153189E+03  0.21324501292E+02  0.40151115045E+03  0.44489336546E+03  0.00000000000E+00 0.  1.
<scales pt_clust_3="33.44013" pt_clust_4="37.32420" pt_clust_5="33.44013" pt_clust_6="211.75132"></scales>
<clustering>
<clus scale="   33.440">  3  5 -1 -1</clus>
<clus scale="   37.324">  1  4  2 -1</clus>
<clus scale="  211.751">  1  6  2 -1</clus>
<clus scale="  217.258">  2  3  1 -1</clus>
</clustering>
</event>
<event>
 6    0  0.1361744E+002  0.1285265E+03  0.7546771E-02  0.1229659E+00
         21   -1    0    0  503  502  0.00000000000E+00  0.00000000000E+00  0.88396298519E+02  0.88396298519E+02  0.00000000000E+00 0.  1.
          2   -1    0    0  504    0 -0.00000000000E+00 -0.00000000000E+00 -0.11501393542E+04  0.11501393542E+04  0.00000000000E+00 0.  1.
         21    1    1    2  503  501  0.62062345904E+02  0.68484282697E+02 -0.38142965472E+03  0.39246708557E+03  0.00000000000E+00 0.  1.
         21    1    1    2  504  505 -0.58529554703E+02 -0.31220600450E+02  0.31108623867E+02  0.73267872530E+02  0.00000000000E+00 0.  1.
         21    1    1    2  505  502 -0.43295534507E+02 -0.45110101056E+02 -0.23481550059E+01  0.62569468253E+02  0.00000000000E+00 0.  1.
          2    1    1    2  501    0  0.39762743305E+02  0.78464188081E+01 -0.70907386987E+03  0.71023122641E+03  0.00000000000E+00 0.  1.
<scales pt_clust_3="122.83801" pt_clust_4="36.71184" pt_clust_5="36.71184" pt_clust_6="40.52952"></scales>
<clustering>
<clus scale="   36.712">  4  5 -1 -1</clus>
<clus scale="   40.530">  2  6  1 -1</clus>
<clus scale="  122.838">  2  3  1 -1</clus>
<clus scale="  128.527">  1  3  2 -1</clus>
</clustering>
</event>
<event>
 6    0  0.1361744E+002  0.1792726E+03  0.7546771E-02  0.1168509E+00
         21   -1    0    0  503  502  0.00000000000E+00  0.00000000000E+00  0.15617874315E+03  0.15617874315E+03  0.00000000000E+00 0. -1.
          4   -1    0    0  504    0 -0.00000000000E+00 -0.00000000000E+00 -0.85136364581E+03  0.85136364581E+03  0.00000000000E+00 0.  1.
         21    1    1    2  503  501  0.13098683688E+02  0.27766420307E+02 -0.26948047523E+02  0.40850298363E+02  0.00000000000E+00 0.  1.
         21    1    1    2  504  505  0.29836526243E+02  0.71248543792E+02  0.18667024166E+02  0.79467169837E+02  0.00000000000E+00 0.  1.
         21    1    1    2  505  502  0.14175416688E+02  0.62279765441E+02  0.79484312408E+02  0.10196797311E+03  0.00000000000E+00 0. -1.
          4    1    1    2  501    0 -0.57110626618E+02 -0.16129472954E+03 -0.76638819171E+03  0.78525694765E+03  0.00000000000E+00 0.  1.
<scales pt_clust_3="30.70097" pt_clust_4="57.54525" pt_clust_5="57.54525" pt_clust_6="169.17597"></scales>
<clustering>
<clus scale="   30.701">  1  3  2 -1</clus>
<clus scale="   57.545">  4  5 -1 -1</clus>
<clus scale="  169.176">  2  6  1 -1</clus>
<clus scale="   30.701">  1  3  2 -1</clus>
</clustering>
</event>
<event>
 6    0  0.1361744E+002  0.1027969E+03  0.7546771E-02  0.1274522E+00
         21   -1    0    0  505  502  0.00000000000E+00  0.00000000000E+00  0.21422296153E+03  0.21422296153E+03  0.00000000000E+00 0. -1.
          2   -1    0    0  503    0 -0.00000000000E+00 -0.00000000000E+00 -0.19305630733E+04  0.19305630733E+04  0.00000000000E+00 0. -1.
         21    1    1    2  503  504 -0.87619310945E+02 -0.79150565158E+02 -0.12524101160E+04  0.12579638525E+04  0.00000000000E+00 0. -1.
         21    1    1    2  504  502  0.32232745771E+02  0.69159475434E+00 -0.34036251710E+02  0.46881708946E+02  0.00000000000E+00 0.  1.
         21    1    1    2  505  501 -0.20426680890E+02  0.34995047963E+02  0.19997472871E+03  0.20403870907E+03  0.00000000000E+00 0. -1.
          2    1    1    2  501    0  0.75813246064E+02  0.43463922441E+02 -0.62986847280E+03  0.63590176431E+03  0.00000000000E+00 0. -1.
<scales pt_clust_3="14000.00000" pt_clust_4="32.24016" pt_clust_5="37.29788" pt_clust_6="102.79694"></scales>
<clustering>
<clus scale="   32.240">  1  4  2 -1</clus>
<clus scale="   37.298">  1  5  2 -1</clus>
<clus scale="  102.797">  1  6  2 -1</clus>
<clus scale="   32.240">  1  3  2 -1</clus>
</clustering>
</event>
<event>
 6    0  0.1671510E+002  0.1312250E+03  0.7546771E-02  0.1225649E+00
         21   -1    0    0  503  502  0.00000000000E+00  0.00000000000E+00  0.22871421787E+03  0.22871421787E+03  0.00000000000E+00 0. -1.
          2   -1    0    0  504    0 -0.00000000000E+00 -0.00000000000E+00 -0.39816938637E+04  0.39816938637E+04  0.00000000000E+00 0.  1.
         21    1    1    2  503  501 -0.33512048904E+02  0.20083173700E+02 -0.61970804980E+02  0.73258255217E+02  0.00000000000E+00 0. -1.
         21    1    1    2  504  505  0.95208803919E+02  0.64979988065E+02 -0.18294868965E+03  0.21623445201E+03  0.00000000000E+00 0.  1.
         21    1    1    2  505  502  0.68570148406E+02 -0.58365205711E+02  0.19535739636E+03  0.21511130794E+03  0.00000000000E+00 0. -1.
          2    1    1    2  501    0 -0.13026690342E+03 -0.26697956054E+02 -0.37034175476E+04  0.37058040664E+04  0.00000000000E+00 0.  1.
<scales pt_clust_3="39.06906" pt_clust_4="131.22499" pt_clust_5="54.91055" pt_clust_6="14000.00000"></scales>
<clustering>
<clus scale="   39.069">  1  3  2 -1</clus>
<clus scale="   54.911">  1  5  2 -1</clus>
<clus scale="  131.225">  1  4  2 -1</clus>
<clus scale="   39.069">  1  3  2 -1</clus>
</clustering>
</event>
<event>
 6    0  0.1361744E+002  0.1484633E+03  0.7546771E-02  0.1202374E+00
         21   -1    0    0  503  502  0.00000000000E+00  0.00000000000E+00  0.91880350287E+02  0.91880350287E+02  0.00000000000E+00 0. -1.
          2   -1    0    0  504    0 -0.00000000000E+00 -0.00000000000E+00 -0.10686654111E+04  0.10686654111E+04  0.00000000000E+00 0. -1.
         21    1    1    2  503  505  0.48446469292E+02 -0.36441511388E+02 -0.22570554027E+02  0.64687510759E+02  0.00000000000E+00 0. -1.
         21    1    1    2  504  502  0.93343486199E+02  0.22872291696E+02  0.29400400680E+02  0.10050140150E+03  0.00000000000E+00 0. -1.
         21    1    1    2  505  501 -0.45234936793E+02 -0.18622364915E+02 -0.25290530429E+03  0.25759286659E+03  0.00000000000E+00 0. -1.
          2    1    1    2  501    0 -0.96555018697E+02  0.32191584608E+02 -0.73070960314E+03  0.73776398250E+03  0.00000000000E+00 0. -1.
<scales pt_clust_3="60.62214" pt_clust_4="138.17707" pt_clust_5="37.64449" pt_clust_6="37.64449"></scales>
<clustering>
<clus scale="   37.644">  5  6 -1 -1</clus>
<clus scale="   60.622">  1  3  2 -1</clus>
<clus scale="  138.177">  1  4  2 -1</clus>
<clus scale="   60.622">  1  3  2 -1</clus>
</clustering>
</event>
<event>
 6    0  0.1361744E+002  0.2008424E+03  0.7546771E-02  0.1149030E+00
          2   -1    0    0  504    0 -0.00000000000E+00  0.00000000000E+00  0.10503062888E+04  0.10503062888E+04  0.00000000000E+00 0. -1.
         21   -1    0    0  505  502  0.00000000000E+00 -0.00000000000E+00 -0.83284369170E+02  0.83284369170E+02  0.00000000000E+00 0. -1.
         21    1    1    2  503  502  0.64270255322E+02  0.41876220679E+01 -0.80359252454E+01  0.64905916466E+02  0.00000000000E+00 0. -1.
         21    1    1    2  504  503 -0.26650423478E+02  0.19550591986E+02  0.67953108471E+02  0.75565174978E+02  0.00000000000E+00 0.  1.
         21    1    1    2  505  501  0.15788209907E+03  0.79039010882E+02  0.31418953365E+03  0.36040114525E+03  0.00000000000E+00 0. -1.
          2    1    1    2  501    0 -0.19550193091E+03 -0.10277722494E+03  0.59291520275E+03  0.63271842127E+03  0.00000000000E+00 0. -1.
<scales pt_clust_3="63.67369" pt_clust_4="33.05254" pt_clust_5="14000.00000" pt_clust_6="200.84241"></scales>
<clustering>
<clus scale="   33.053">  1  4  2 -1</clus>
<clus scale="   63.674">  2  3  1 -1</clus>
<clus scale="  200.842">  1  6  2 -1</clus>
<clus scale="   63.674">  2  3  1 -1</clus>
</clustering>
</event>
<event>
 6    0  0.1361744E+002  0.1438597E+03  0.7546771E-02  0.1208228E+00
          2   -1    0    0  504    0 -0.00000000000E+00  0.00000000000E+00  0.48082622039E+03  0.48082622039E+03  0.00000000000E+00 0.  1.
         21   -1    0    0  503  502  0.00000000000E+00 -0.00000000000E+00 -0.28885327429E+03  0.28885327429E+03  0.00000000000E+00 0. -1.
         21    1    1    2  503  501  0.71745396245E+02 -0.27097870535E+02 -0.20115020738E+03  0.21527448154E+03  0.00000000000E+00 0. -1.
         21    1    1    2  504  505  0.31632448741E+02 -0.51970498909E+01  0.11296680625E+03  0.11742708569E+03  0.00000000000E+00 0.  1.
         21    1    1    2  505  502  0.59691205438E+02 -0.39628875850E+02 -0.31257646844E+02  0.78169868198E+02  0.00000000000E+00 0. -1.
          2    1    1    2  501    0 -0.16306905042E+03  0.71923796276E+02  0.31141399408E+03  0.35880805925E+03  0.00000000000E+00 0.  1.
<scales pt_clust_3="14000.00000" pt_clust_4="32.05653" pt_clust_5="73.52826" pt_clust_6="143.85975"></scales>
<clustering>
<clus scale="   32.057">  1  4  2 -1</clus>
<clus scale="   73.528">  2  5  1 -1</clus>
<clus scale="  143.860">  1  6  2 -1</clus>
<clus scale="   73.528">  2  3  1 -1</clus>
</clustering>
</event>
<event>
 6    0  0.2419578E+002  0.1086592E+03  0.7546771E-02  0.1263073E+00
         21   -1    0    0  503  502  0.00000000000E+00  0.00000000000E+00  0.29497812887E+03  0.29497812887E+03  0.00000000000E+00 0.  1.
          2   -1    0    0  505    0 -0.00000000000E+00 -0.00000000000E+00 -0.16157448022E+04  0.16157448022E+04  0.00000000000E+00 0.  1.
         21    1    1    2  503  501 -0.76494966780E+02  0.80676727581E+02  0.26138549837E+03  0.28404681494E+03  0.00000000000E+00 0.  1.
         21    1    1    2  504  502  0.25866683873E+02  0.29071079224E+02 -0.14062952175E+02  0.41376075281E+02  0.00000000000E+00 0. -1.
         21    1    1    2  505  504  0.37657271941E+02 -0.56158505845E+02 -0.13345262844E+03  0.14960431794E+03  0.00000000000E+00 0.  1.
          2    1    1    2  501    0  0.12971010966E+02 -0.53589300960E+02 -0.14346365910E+04  0.14356957229E+04  0.00000000000E+00 0.  1.
<scales pt_clust_3="108.65919" pt_clust_4="38.91289" pt_clust_5="14000.00000" pt_clust_6="55.09504"></scales>
<clustering>
<clus scale="   38.913">  1  4  2 -1</clus>
<clus scale="   55.095">  2  6  1 -1</clus>
<clus scale="  108.659">  1  3  2 -1</clus>
<clus scale="   38.913">  1  3  2 -1</clus>
</clustering>
</event>
<event>
 6    0  0.1361744E+002  0.1396849E+03  0.7546771E-02  0.1213754E+00
         21   -1    0    0  503  502  0.00000000000E+00  0.00000000000E+00  0.29017764217E+03  0.29017764217E+03  0.00000000000E+00 0.  1.
          2   -1    0    0  505    0 -0.00000000000E+00 -0.00000000000E+00 -0.18516490960E+03  0.18516490960E+03  0.00000000000E+00 0. -1.
         21    1    1    2  503  504  0.55124911443E+02  0.32781092232E+02  0.42805768126E+02  0.77108298220E+02  0.00000000000E+00 0.  1.
         21    1    1    2  504  501  0.12935281885E+03 -0.25254947552E+01  0.92736458914E+02  0.15918096833E+03  0.00000000000E+00 0.  1.
         21    1    1    2  505  502 -0.98535925609E+02  0.91623359656E+01  0.53554845367E+02  0.11252287989E+03  0.00000000000E+00 0.  1.
          2    1    1    2  501    0 -0.85941804680E+02 -0.39417933442E+02 -0.84084339836E+02  0.12653040533E+03  0.00000000000E+00 0. -1.
<scales pt_clust_3="35.29865" pt_clust_4="35.29865" pt_clust_5="130.37781" pt_clust_6="94.55034"></scales>
<clustering>
<clus scale="   35.299">  3  4 -1 -1</clus>
<clus scale="   94.550">  2  6  1 -1</clus>
<clus scale="  130.378">  1  5  2 -1</clus>
<clus scale="  130.378">  1  3  2 -1</clus>
</clustering>
</event>
<event>
 6    0  0.1361744E+002  0.1616067E+03  0.7546771E-02  0.1186895E+00
         21   -1    0    0  504  502  0.00000000000E+00  0.00000000000E+00  0.55208154601E+02  0.55208154601E+02  0.00000000000E+00 0.  1.
          1   -1    0    0  505    0 -0.00000000000E+00 -0.00000000000E+00 -0.86787191036E+03  0.86787191036E+03  0.00000000000E+00 0.  1.
         21    1    1    2  503  501  0.10563380347E+02 -0.58991144742E+02 -0.16866334261E+02  0.62257637232E+02  0.00000000000E+00 0.  1.
         21    1    1    2  504  503 -0.41264829917E+02 -0.88453200754E+02 -0.11396122131E+03  0.15004637575E+03  0.00000000000E+00 0.  1.
         21    1    1    2  505  502  0.31053534571E+02  0.13081116372E+02 -0.36598993003E+03  0.36753784363E+03  0.00000000000E+00 0. -1.
          1    1    1    2  501    0 -0.35208500125E+00  0.13436322912E+03 -0.31584627016E+03  0.34323820836E+03  0.00000000000E+00 0.  1.
<scales pt_clust_3="58.60815" pt_clust_4="58.60815" pt_clust_5="33.69626" pt_clust_6="144.36754"></scales>
<clustering>
<clus scale="   33.696">  2  5  1 -1</clus>
<clus scale="   58.608">  3  4 -1 -1</clus>
<clus scale="  144.368">  2  6  1 -1</clus>
<clus scale="  161.607">  1  3  2 -1</clus>
</clustering>
</event>
<event>
 6    0  0.1361744E+002  0.1121233E+03  0.7546771E-02  0.1256688E+00
         21   -1    0    0  503  502  0.00000000000E+00  0.00000000000E+00  0.81290664126E+02  0.81290664126E+02  0.00000000000E+00 0.  1.
          2   -1    0    0  504    0 -0.00000000000E+00 -0.00000000000E+00 -0.86756146160E+03  0.86756146160E+03  0.00000000000E+00 0.  1.
         21    1    1    2  503  501  0.83378794473E+00  0.61380742963E+02 -0.54779261415E+02  0.82274286932E+02  0.00000000000E+00 0. -1.
         21    1    1    2  504  505  0.72121369647E+02  0.28215842629E+02 -0.28302169194E+03  0.29342614717E+03  0.00000000000E+00 0. -1.
         21    1    1    2  505  502  0.46922182282E+02  0.44524094924E+02  0.22904138276E+02  0.68619864245E+02  0.00000000000E+00 0.  1.
          2    1    1    2  501    0 -0.11987733987E+03 -0.13412068052E+03 -0.47137398240E+03  0.50453182738E+03  0.00000000000E+00 0.  1.
<scales pt_clust_3="61.38641" pt_clust_4="79.34752" pt_clust_5="14000.00000" pt_clust_6="112.12328"></scales>
<clustering>
<clus scale="   61.386">  1  3  2 -1</clus>
<clus scale="   79.348">  2  4  1 -1</clus>
<clus scale="  112.123">  2  6  1 -1</clus>
<clus scale="   61.386">  1  3  2 -1</clus>
</clustering>
</event>
<event>
 6    0  0.1361744E+002  0.9778636E+02  0.7546771E-02  0.1285021E+00
          2   -1    0    0  504    0 -0.00000000000E+00  0.00000000000E+00  0.72958744710E+03  0.72958744710E+03  0.00000000000E+00 0.  1.
         21   -1    0    0  503  502  0.00000000000E+00 -0.00000000000E+00 -0.22200440820E+03  0.22200440820E+03  0.00000000000E+00 0. -1.
         21    1    1    2  503  501 -0.82021276920E+02 -0.47818220531E+02 -0.15216821590E+03  0.17935784904E+03  0.00000000000E+00 0. -1.
         21    1    1    2  504  505  0.29149718903E+01  0.42776020181E+02  0.13768221105E+03  0.14420359289E+03  0.00000000000E+00 0. -1.
         21    1    1    2  505  502 -0.14801186262E+02  0.29384002936E+02 -0.43309483767E+02  0.54389393520E+02  0.00000000000E+00 0. -1.
          2    1    1    2  501    0  0.93907491292E+02 -0.24341802587E+02  0.56537852752E+03  0.57364101985E+03  0.00000000000E+00 0.  1.
<scales pt_clust_3="97.78636" pt_clust_4="43.40948" pt_clust_5="32.90129" pt_clust_6="14000.00000"></scales>
<clustering>
<clus scale="   32.901">  2  5  1 -1</clus>
<clus scale="   43.409">  1  4  2 -1</clus>
<clus scale="   97.786">  2  3  1 -1</clus>
<clus scale="   32.901">  2  3  1 -1</clus>
</clustering>
</event>
<event>
 6    0  0.1361744E+002  0.1367933E+03  0.7546771E-02  0.1217710E+00
          2   -1    0    0  502    0 -0.00000000000E+00  0.00000000000E+00  0.49229571763E+03  0.49229571763E+03  0.00000000000E+00 0. -1.
         21   -1    0    0  505  502  0.00000000000E+00 -0.00000000000E+00 -0.28283893758E+03  0.28283893758E+03  0.00000000000E+00 0.  1.
         21    1    1    2  503  501  0.31699987246E+02  0.29336865011E+02  0.89640179491E+02  0.99503279440E+02  0.00000000000E+00 0. -1.
         21    1    1    2  504  503 -0.91078640300E+02 -0.59149884378E+02 -0.16783139235E+03  0.19990348621E+03  0.00000000000E+00 0.  1.
         21    1    1    2  505  504 -0.27277822671E+02  0.15685015938E+02 -0.86170993393E+02  0.91736249307E+02  0.00000000000E+00 0.  1.
          2    1    1    2  501    0  0.86656475725E+02  0.14128003428E+02  0.37381898630E+03  0.38399164025E+03  0.00000000000E+00 0. -1.
<scales pt_clust_3="38.93390" pt_clust_4="125.04764" pt_clust_5="31.46584" pt_clust_6="38.93390"></scales>
<clustering>
<clus scale="   31.466">  2  5  1 -1</clus>
<clus scale="   38.934">  3  6 -1 -1</clus>
<clus scale="  125.048">  2  4  1 -1</clus>
<clus scale="   31.466">  2  3  1 -1</clus>
</clustering>
</event>
<event>
 6    0  0.1361744E+002  0.1523325E+03  0.7546771E-02  0.1197636E+00
         21   -1    0    0  504  502  0.00000000000E+00  0.00000000000E+00  0.73962266197E+03  0.73962266197E+03  0.00000000000E+00 0. -1.
          2   -1    0    0  505    0 -0.00000000000E+00 -0.00000000000E+00 -0.16520812005E+03  0.16520812005E+03  0.00000000000E+00 0.  1.
         21    1    1    2  503  502 -0.78508752701E+02  0.12058987622E+03  0.64681404909E+03  0.66262655893E+03  0.00000000000E+00 0. -1.
         21    1    1    2  504  501  0.34316522392E+02 -0.64916750174E+02 -0.57550529792E+02  0.93294542400E+02  0.00000000000E+00 0.  1.
         21    1    1    2  505  503  0.21869792746E+01  0.40455325519E+02  0.85965023185E+01  0.41416374700E+02  0.00000000000E+00 0.  1.
          2    1    1    2  501    0  0.42005251034E+02 -0.96128451564E+02 -0.23445479700E+02  0.10749330599E+03  0.00000000000E+00 0.  1.
<scales pt_clust_3="145.63777" pt_clust_4="37.36703" pt_clust_5="40.51440" pt_clust_6="37.36703"></scales>
<clustering>
<clus scale="   37.367">  4  6 -1 -1</clus>
<clus scale="   40.514">  2  5  1 -1</clus>
<clus scale="  145.638">  1  3  2 -1</clus>
<clus scale="  145.638">  1  3  2 -1</clus>
</clustering>
</event>
<event>
 6    0  0.1361744E+002  0.1076678E+03  0.7546771E-02  0.1264951E+00
         21   -1    0    0  504  502  0.00000000000E+00  0.00000000000E+00  0.99884931914E+02  0.99884931914E+02  0.00000000000E+00 0.  1.
          1   -1    0    0  502    0 -0.00000000000E+00 -0.00000000000E+00 -0.12703716667E+04  0.12703716667E+04  0.00000000000E+00 0.  1.
         21    1    1    2  503  501 -0.97392224443E+02 -0.50100066595E+02  0.24593030721E+02  0.11225007445E+03  0.00000000000E+00 0.  1.
         21    1    1    2  504  505  0.39343375203E+02 -0.10978545771E+01 -0.61846653057E+02  0.73308355263E+02  0.00000000000E+00 0.  1.
         21    1    1    2  505  503 -0.47491760422E+02  0.29516179716E+02 -0.10607396551E+02  0.56913873832E+02  0.00000000000E+00 0.  1.
          1    1    1    2  501    0  0.10554060966E+03  0.21681741456E+02 -0.11226257159E+04  0.11277842951E+04  0.00000000000E+00 0.  1.
<scales pt_clust_3="14000.00000" pt_clust_4="39.35869" pt_clust_5="47.80648" pt_clust_6="107.66781"></scales>
<clustering>
<clus scale="   39.359">  1  4  2 -1</clus>
<clus scale="   47.806">  1  5  2 -1</clus>
<clus scale="  107.668">  2  6  1 -1</clus>
<clus scale="   39.359">  1  3  2 -1</clus>
</clustering>
</event>
<event>
 6    0  0.1361744E+002  0.1277092E+03  0.7546771E-02  0.1230895E+00
         21   -1    0    0  505  502  0.00000000000E+00  0.00000000000E+00  0.21672116546E+04  0.21672116546E+04  0.00000000000E+00 0.  1.
          3   -1    0    0  504    0 -0.00000000000E+00 -0.00000000000E+00 -0.72326933142E+03  0.72326933142E+03  0.00000000000E+00 0. -1.
         21    1    1    2  503  502 -0.82364409826E+02 -0.65650358109E+02  0.10017231226E+04  0.10072452928E+04  0.00000000000E+00 0.  1.
         21    1    1    2  504  503  0.62622317814E+02 -0.24654681032E+02 -0.28513404981E+03  0.29296899895E+03  0.00000000000E+00 0.  1.
         21    1    1    2  505  501 -0.34328817358E+02  0.11977113265E+02  0.11532709614E+04  0.11538439363E+04  0.00000000000E+00 0.  1.
          3    1    1    2  501    0  0.54070909370E+02  0.78327925876E+02 -0.42591771095E+03  0.43642275802E+03  0.00000000000E+00 0. -1.
<scales pt_clust_3="127.70922" pt_clust_4="67.16047" pt_clust_5="36.35820" pt_clust_6="14000.00000"></scales>
<clustering>
<clus scale="   36.358">  1  5  2 -1</clus>
<clus scale="   67.160">  2  4  1 -1</clus>
<clus scale="  127.709">  1  3  2 -1</clus>
<clus scale="   36.358">  1  3  2 -1</clus>
</clustering>
</event>
<event>
 6    0  0.1361744E+002  0.1667617E+03  0.7546771E-02  0.1181268E+00
          1   -1    0    0  505    0 -0.00000000000E+00  0.00000000000E+00  0.24712230540E+04  0.24712230540E+04  0.00000000000E+00 0. -1.
         21   -1    0    0  504  502  0.00000000000E+00 -0.00000000000E+00 -0.18754516566E+03  0.18754516566E+03  0.00000000000E+00 0. -1.
         21    1    1    2  503  501 -0.12877715262E+03  0.89381982531E+01  0.41937716467E+02  0.13572847339E+03  0.00000000000E+00 0. -1.
         21    1    1    2  504  503  0.17968011289E+03 -0.10911347403E+03 -0.52212216648E+02  0.21660288260E+03  0.00000000000E+00 0. -1.
         21    1    1    2  505  502  0.28925004859E+02 -0.12806517940E+02  0.56826169670E+02  0.65037499700E+02  0.00000000000E+00 0. -1.
          1    1    1    2  501    0 -0.79827965124E+02  0.11298179371E+03  0.22371262189E+04  0.22413993640E+04  0.00000000000E+00 0. -1.
<scales pt_clust_3="166.76167" pt_clust_4="14000.00000" pt_clust_5="31.63325" pt_clust_6="114.11507"></scales>
<clustering>
<clus scale="   31.633">  1  5  2 -1</clus>
<clus scale="  114.115">  1  6  2 -1</clus>
<clus scale="  166.762">  1  3  2 -1</clus>
<clus scale="  166.762">  2  3  1 -1</clus>
</clustering>
</event>
<event>
 6    0  0.1361744E+002  0.1207589E+03  0.7546771E-02  0.1241850E+00
         21   -1    0    0  501  502  0.00000000000E+00  0.00000000000E+00  0.52597223526E+03  0.52597223526E+03  0.00000000000E+00 0.  1.
          2   -1    0    0  503    0 -0.00000000000E+00 -0.00000000000E+00 -0.36858059690E+03  0.36858059690E+03  0.00000000000E+00 0. -1.
         21    1    1    2  503  504 -0.90368434049E+02  0.18198489267E+02 -0.65143172508E+01  0.92412527362E+02  0.00000000000E+00 0.  1.
         21    1    1    2  504  505  0.77767693735E+02  0.16822746235E+03  0.16972470304E+03  0.25130612428E+03  0.00000000000E+00 0.  1.
         21    1    1    2  505  502  0.50466593934E+02 -0.10387330317E+03  0.25215367547E+03  0.27734097473E+03  0.00000000000E+00 0.  1.
          2    1    1    2  501    0 -0.37865853620E+02 -0.82552648443E+02 -0.25797242290E+03  0.27349320579E+03  0.00000000000E+00 0. -1.
<scales pt_clust_3="110.68855" pt_clust_4="120.75888" pt_clust_5="14000.00000" pt_clust_6="90.82270"></scales>
<clustering>
<clus scale="   90.823">  2  6  1 -1</clus>
<clus scale="  110.689">  2  3  1 -1</clus>
<clus scale="  120.759">  2  4  1 -1</clus>
<clus scale="  120.759">  1  3  2 -1</clus>
</clustering>
</event>
<event>
 6    0  0.1361744E+002  0.9299211E+02  0.7546771E-02  0.1295763E+00
         21   -1    0    0  504  502  0.00000000000E+00  0.00000000000E+00  0.25007954256E+02  0.25007954256E+02  0.00000000000E+00 0.  1.
         -3   -1    0    0    0  501 -0.00000000000E+00 -0.00000000000E+00 -0.91114793431E+03  0.91114793431E+03  0.00000000000E+00 0.  1.
         21    1    1    2  503  501 -0.31047523723E+01 -0.30515927416E+02 -0.20999442241E+03  0.21222280452E+03  0.00000000000E+00 0.  1.
         21    1    1    2  504  503 -0.54259717180E+02 -0.89773822775E+02 -0.24474682897E+03  0.26627892604E+03  0.00000000000E+00 0.  1.
         21    1    1    2  505  502  0.12361549059E+01  0.87933291725E+02 -0.24238544283E+03  0.25784587406E+03  0.00000000000E+00 0.  1.
         -3    1    1    2    0  505  0.56128314647E+02  0.32356458466E+02 -0.18901328585E+03  0.19980828396E+03  0.00000000000E+00 0.  1.
<scales pt_clust_3="30.67346" pt_clust_4="92.99211" pt_clust_5="14000.00000" pt_clust_6="60.20530"></scales>
<clustering>
<clus scale="   30.673">  2  3  1 -1</clus>
<clus scale="   60.205">  2  6  1 -1</clus>
<clus scale="   92.992">  2  4  1 -1</clus>
<clus scale="   92.992">  1  3  2 -1</clus>
</clustering>
</event>
<event>
 6    0  0.1361744E+002  0.1560764E+03  0.7546771E-02  0.1193199E+00
         21   -1    0    0  505  502  0.00000000000E+00  0.00000000000E+00  0.37059886448E+02  0.37059886448E+02  0.00000000000E+00 0. -1.
         -1   -1    0    0    0  501 -0.00000000000E+00 -0.00000000000E+00 -0.83671884790E+03  0.83671884790E+03  0.00000000000E+00 0. -1.
         21    1    1    2  503  501  0.16347291442E+02  0.30318441989E+02 -0.11167598057E+03  0.11686730295E+03  0.00000000000E+00 0. -1.
         21    1    1    2  504  503 -0.92660064415E+02  0.22767428593E+00 -0.37841693820E+03  0.38959635328E+03  0.00000000000E+00 0. -1.
         21    1    1    2  505  504 -0.56603450874E+02  0.12334460476E+02 -0.96569164942E+02  0.11261302404E+03  0.00000000000E+00 0. -1.
         -1    1    1    2    0  502  0.13291622385E+03 -0.42880576750E+02 -0.21299687774E+03  0.25470205408E+03  0.00000000000E+00 0. -1.
<scales pt_clust_3="34.44477" pt_clust_4="52.56753" pt_clust_5="52.56753" pt_clust_6="142.10833"></scales>
<clustering>
<clus scale="   34.445">  2  3  1 -1</clus>
<clus scale="   52.568">  4  5 -1 -1</clus>
<clus scale="  142.108">  1  6  2 -1</clus>
<clus scale="  142.108">  1  3  2 -1</clus>
</clustering>
</event>
<event>
 6    0  0.1361744E+002  0.1216995E+03  0.7546771E-02  0.1240320E+00
          2   -1    0    0  505    0 -0.00000000000E+00  0.00000000000E+00  0.94797375508E+03  0.94797375508E+03  0.00000000000E+00 0. -1.
         21   -1    0    0  503  502  0.00000000000E+00 -0.00000000000E+00 -0.14134114695E+03  0.14134114695E+03  0.00000000000E+00 0. -1.
         21    1    1    2  503  504  0.57751768739E+02  0.72428583153E+01 -0.34435361609E+02  0.67627804328E+02  0.00000000000E+00 0.  1.
         21    1    1    2  504  501  0.62748304577E+02 -0.45960120921E+02  0.15100666888E+03  0.16986081504E+03  0.00000000000E+00 0. -1.
         21    1    1    2  505  502  0.28950411896E+02 -0.27704404880E+02 -0.66581949947E+02  0.77709822143E+02  0.00000000000E+00 0. -1.
          2    1    1    2  501    0 -0.14945048521E+03  0.66421667485E+02  0.75664325081E+03  0.77411646051E+03  0.00000000000E+00 0. -1.
<scales pt_clust_3="80.19474" pt_clust_4="14000.00000" pt_clust_5="40.07069" pt_clust_6="121.69947"></scales>
<clustering>
<clus scale="   40.071">  2  5  1 -1</clus>
<clus scale="   80.195">  2  3  1 -1</clus>
<clus scale="  121.699">  1  6  2 -1</clus>
<clus scale="   40.071">  2  3  1 -1</clus>
</clustering>
</event>
<event>
 6    0  0.1361744E+002  0.1608991E+03  0.7546771E-02  0.1187685E+00
         21   -1    0    0  503  502  0.00000000000E+00  0.00000000000E+00  0.96402810101E+03  0.96402810101E+03  0.00000000000E+00 0.  1.
          2   -1    0    0  505    0 -0.00000000000E+00 -0.00000000000E+00 -0.25542650380E+04  0.25542650380E+04  0.00000000000E+00 0. -1.
         21    1    1    2  503  504  0.20976578432E+03  0.63639578518E+02  0.90594033368E+03  0.93208345572E+03  0.00000000000E+00 0.  1.
         21    1    1    2  504  501 -0.99312678693E+02 -0.25331779729E+02 -0.38557720960E+03  0.39896678030E+03  0.00000000000E+00 0.  1.
         21    1    1    2  505  502 -0.47783370632E+02 -0.32736775843E+02  0.15700176002E+02  0.60012019863E+02  0.00000000000E+00 0.  1.
          2    1    1    2  501    0 -0.62669734997E+02 -0.55710229469E+01 -0.21263002371E+04  0.21272308831E+04  0.00000000000E+00 0. -1.
<scales pt_clust_3="160.89905" pt_clust_4="14000.00000" pt_clust_5="57.92190" pt_clust_6="62.94224"></scales>
<clustering>
<clus scale="   57.922">  1  5  2 -1</clus>
<clus scale="   62.942">  2  6  1 -1</clus>
<clus scale="  160.899">  1  3  2 -1</clus>
<clus scale="   57.922">  1  3  2 -1</clus>
</clustering>
</event>
<event>
 6    0  0.1361744E+002  0.1445572E+03  0.7546771E-02  0.1207325E+00
          2   -1    0    0  504    0 -0.00000000000E+00  0.00000000000E+00  0.26600764412E+04  0.26600764412E+04  0.00000000000E+00 0. -1.
         21   -1    0    0  503  502  0.00000000000E+00 -0.00000000000E+00 -0.57984227835E+03  0.57984227835E+03  0.00000000000E+00 0. -1.
         21    1    1    2  503  505  0.13063951286E+02  0.51198163305E+02 -0.18721293139E+02  0.56057163376E+02  0.00000000000E+00 0. -1.
         21    1    1    2  504  502  0.37164611039E+01  0.83812461808E+02 -0.53721218921E+03  0.54372353000E+03  0.00000000000E+00 0. -1.
         21    1    1    2  505  501  0.13013597995E+02 -0.70768598071E+02  0.11114098203E+04  0.11137366551E+04  0.00000000000E+00 0. -1.
          2    1    1    2  501    0 -0.29794010384E+02 -0.64242027041E+02  0.15247578249E+04  0.15264013711E+04  0.00000000000E+00 0. -1.
<scales pt_clust_3="52.83861" pt_clust_4="135.85761" pt_clust_5="48.99823" pt_clust_6="48.99823"></scales>
<clustering>
<clus scale="   48.998">  5  6 -1 -1</clus>
<clus scale="   52.839">  2  3  1 -1</clus>
<clus scale="  135.858">  2  4  1 -1</clus>
<clus scale="   52.839">  2  3  1 -1</clus>
</clustering>
</event>
<event>
 6    0  0.1361744E+002  0.1164091E+03  0.7546771E-02  0.1249141E+00
         21   -1    0    0  503  502  0.00000000000E+00  0.00000000000E+00  0.15658443930E+03  0.15658443930E+03  0.00000000000E+00 0. -1.
          2   -1    0    0  504    0 -0.00000000000E+00 -0.00000000000E+00 -0.20069408747E+04  0.20069408747E+04  0.00000000000E+00 0.  1.
         21    1    1    2  503  501  0.72528354368E+02  0.25965993839E+02  0.12629520291E+03  0.14793604464E+03  0.00000000000E+00 0. -1.
         21    1    1    2  504  505  0.92819826278E+02 -0.52806651023E+02 -0.81047636992E+03  0.81748150361E+03  0.00000000000E+00 0. -1.
         21    1    1    2  505  502 -0.32970087316E+02  0.16214114504E+02 -0.15637336576E+02  0.39930570519E+02  0.00000000000E+00 0. -1.
          2    1    1    2  501    0 -0.13237809333E+03  0.10626542680E+02 -0.11505379319E+04  0.11581771953E+04  0.00000000000E+00 0.  1.
<scales pt_clust_3="58.39847" pt_clust_4="116.40915" pt_clust_5="36.74131" pt_clust_6="14000.00000"></scales>
<clustering>
<clus scale="   36.741">  1  5  2 -1</clus>
<clus scale="   58.398">  1  3  2 -1</clus>
<clus scale="  116.409">  2  4  1 -1</clus>
<clus scale="   36.741">  1  3  2 -1</clus>
</clustering>
</event>
<event>
 6    0  0.1361744E+002  0.1494699E+03  0.7546771E-02  0.1201126E+00
          2   -1    0    0  504    0 -0.00000000000E+00  0.00000000000E+00  0.40527403240E+03  0.40527403240E+03  0.00000000000E+00 0.  1.
         21   -1    0    0  503  502  0.00000000000E+00 -0.00000000000E+00 -0.14941648359E+04  0.14941648359E+04  0.00000000000E+00 0.  1.
         21    1    1    2  503  505  0.68972338807E+01 -0.69443015318E+02 -0.94447582809E+03  0.94705041790E+03  0.00000000000E+00 0.  1.
         21    1    1    2  504  502  0.24958694311E+02  0.46042770386E+02  0.16962136320E+03  0.17752261822E+03  0.00000000000E+00 0.  1.
         21    1    1    2  505  501  0.28364679957E+02 -0.67529643441E+02 -0.52887844028E+03  0.53392622374E+03  0.00000000000E+00 0.  1.
          2    1    1    2  501    0 -0.60220608149E+02  0.90929888372E+02  0.21484210169E+03  0.24093960842E+03  0.00000000000E+00 0.  1.
<scales pt_clust_3="48.94214" pt_clust_4="52.37245" pt_clust_5="48.94214" pt_clust_6="140.80886"></scales>
<clustering>
<clus scale="   48.942">  3  5 -1 -1</clus>
<clus scale="   52.372">  1  4  2 -1</clus>
<clus scale="  140.809">  1  6  2 -1</clus>
<clus scale="  149.470">  2  3  1 -1</clus>
</clustering>
</event>
<event>
 6    0  0.1361744E+002  0.1412585E+03  0.7546771E-02  0.1211646E+00
          2   -1    0    0  505    0 -0.00000000000E+00  0.00000000000E+00  0.89082164502E+03  0.89082164502E+03  0.00000000000E+00 0. -1.
         21   -1    0    0  501  502  0.00000000000E+00 -0.00000000000E+00 -0.15068864437E+03  0.15068864437E+03  0.00000000000E+00 0. -1.
         21    1    1    2  503  502  0.36854077388E+02 -0.66663573981E+00 -0.19813571004E+01  0.36913320079E+02  0.00000000000E+00 0. -1.
         21    1    1    2  504  503  0.75747845267E+02  0.89368242380E+02 -0.88176027933E+02  0.14662684171E+03  0.00000000000E+00 0. -1.
         21    1    1    2  505  504 -0.22344658351E+02  0.43175499128E+02  0.11163348804E+03  0.12175977633E+03  0.00000000000E+00 0. -1.
          2    1    1    2  501    0 -0.90257264304E+02 -0.13187710577E+03  0.71865689764E+03  0.73621035127E+03  0.00000000000E+00 0. -1.
<scales pt_clust_3="36.86011" pt_clust_4="14000.00000" pt_clust_5="47.95488" pt_clust_6="141.25846"></scales>
<clustering>
<clus scale="   36.860">  2  3  1 -1</clus>
<clus scale="   47.955">  1  5  2 -1</clus>
<clus scale="  141.258">  1  6  2 -1</clus>
<clus scale="   36.860">  2  3  1 -1</clus>
</clustering>
</event>
<event>
 6    0  0.1361744E+002  0.1341828E+03  0.7546771E-02  0.1221378E+00
          1   -1    0    0  505    0 -0.00000000000E+00  0.00000000000E+00  0.35271667554E+04  0.35271667554E+04  0.00000000000E+00 0. -1.
         21   -1    0    0  503  502  0.00000000000E+00 -0.00000000000E+00 -0.36623069068E+02  0.36623069068E+02  0.00000000000E+00 0.  1.
         21    1    1    2  503  501 -0.53440866262E+02  0.82174068861E+02  0.69627256281E+02  0.12023501402E+03  0.00000000000E+00 0.  1.
         21    1    1    2  504  502 -0.65501967049E+02 -0.35256085638E+01  0.10896797791E+03  0.12718867014E+03  0.00000000000E+00 0. -1.
         21    1    1    2  505  504  0.36484326389E+01 -0.47419141542E+02  0.13048436389E+04  0.13057100781E+04  0.00000000000E+00 0. -1.
          1    1    1    2  501    0  0.11529440067E+03 -0.31229318755E+02  0.20071048133E+04  0.20106560623E+04  0.00000000000E+00 0. -1.
<scales pt_clust_3="14000.00000" pt_clust_4="65.58730" pt_clust_5="47.55929" pt_clust_6="134.18276"></scales>
<clustering>
<clus scale="   47.559">  1  5  2 -1</clus>
<clus scale="   65.587">  2  4  1 -1</clus>
<clus scale="  134.183">  1  6  2 -1</clus>
<clus scale="   65.587">  2  3  1 -1</clus>
</clustering>
</event>
<event>
 6    0  0.1361744E+002  0.1802737E+03  0.7546771E-02  0.1167538E+00
         -2   -1    0    0    0  501 -0.00000000000E+00  0.00000000000E+00  0.14409828170E+04  0.14409828170E+04  0.00000000000E+00 0.  1.
         21   -1    0    0  501  502  0.00000000000E+00 -0.00000000000E+00 -0.30890390150E+02  0.30890390150E+02  0.00000000000E+00 0. -1.
         21    1    1    2  503  504 -0.56231976365E+02 -0.19383730171E+02  0.37643617669E+03  0.38110623097E+03  0.00000000000E+00 0.  1.
         21    1    1    2  504  505  0.11437707873E+02  0.50573153521E+02  0.12721725322E+03  0.13737792594E+03  0.00000000000E+00 0. -1.
         21    1    1    2  505  502  0.73145540076E+02  0.86227069041E+02  0.15256028834E+03  0.18989475782E+03  0.00000000000E+00 0. -1.
         -2    1    1    2    0  503 -0.28351271584E+02 -0.11741649239E+03  0.75387870864E+03  0.76349429246E+03  0.00000000000E+00 0.  1.
<scales pt_clust_3="57.13756" pt_clust_4="36.86262" pt_clust_5="169.79970" pt_clust_6="57.13756"></scales>
<clustering>
<clus scale="   36.863">  4  5 -1 -1</clus>
<clus scale="   57.138">  3  6 -1 -1</clus>
<clus scale="  169.800">  2  4  1 -1</clus>
<clus scale="  169.800">  2  3  1 -1</clus>
</clustering>
</event>
<event>
 6    0  0.1361744E+002  0.1460728E+03  0.7546771E-02  0.1205383E+00
          2   -1    0    0  505    0 -0.00000000000E+00  0.00000000000E+00  0.51778053359E+03  0.51778053359E+03  0.00000000000E+00 0. -1.
         21   -1    0    0  504  502  0.00000000000E+00 -0.00000000000E+00 -0.23811595507E+03  0.23811595507E+03  0.00000000000E+00 0. -1.
         21    1    1    2  503  502  0.40395143591E+02  0.39243574208E+02  0.22566665669E+02  0.60671905704E+02  0.00000000000E+00 0. -1.
         21    1    1    2  504  501 -0.26838869594E+02 -0.14705225679E+03 -0.18194471067E+03  0.23547519803E+03  0.00000000000E+00 0. -1.
         21    1    1    2  505  503 -0.31061368125E+02  0.12068798335E+02  0.62464880615E+02  0.70797780992E+02  0.00000000000E+00 0. -1.
          2    1    1    2  501    0  0.17505094128E+02  0.95739884246E+02  0.37657774290E+03  0.38895160394E+03  0.00000000000E+00 0. -1.
<scales pt_clust_3="55.11043" pt_clust_4="14000.00000" pt_clust_5="33.32363" pt_clust_6="146.07281"></scales>
<clustering>
<clus scale="   33.324">  1  5  2 -1</clus>
<clus scale="   55.110">  1  3  2 -1</clus>
<clus scale="  146.073">  1  6  2 -1</clus>
<clus scale="  146.073">  2  3  1 -1</clus>
</clustering>
</event>
<event>
 6    0  0.1361744E+002  0.8826346E+02  0.7546771E-02  0.1307112E+00
         21   -1    0    0  501  502  0.00000000000E+00  0.00000000000E+00  0.40827602801E+03  0.40827602801E+03  0.00000000000E+00 0.  1.
          4   -1    0    0  503    0 -0.00000000000E+00 -0.00000000000E+00 -0.68639693422E+03  0.68639693422E+03  0.00000000000E+00 0.  1.
         21    1    1    2  503  505 -0.19161392162E+02 -0.60398736140E+02 -0.84239129187E+01  0.63922833055E+02  0.00000000000E+00 0. -1.
         21    1    1    2  504  502  0.40028744253E+02  0.55680821954E+01  0.16902424739E+03  0.17378866508E+03  0.00000000000E+00 0.  1.
         21    1    1    2  505  504 -0.76109932001E+02 -0.18235760910E+02  0.19840546926E+03  0.21328383660E+03  0.00000000000E+00 0.  1.
          4    1    1    2  501    0  0.55242579911E+02  0.73066414855E+02 -0.63712670994E+03  0.64367762749E+03  0.00000000000E+00 0.  1.
<scales pt_clust_3="88.26346" pt_clust_4="40.41415" pt_clust_5="43.44147" pt_clust_6="14000.00000"></scales>
<clustering>
<clus scale="   40.414">  1  4  2 -1</clus>
<clus scale="   43.441">  1  5  2 -1</clus>
<clus scale="   88.263">  1  3  2 -1</clus>
<clus scale="   40.414">  1  3  2 -1</clus>
</clustering>
</event>
<event>
 6    0  0.1361744E+002  0.2691430E+03  0.7546771E-02  0.1101771E+00
         21   -1    0    0  503  502  0.00000000000E+00  0.00000000000E+00  0.49625597501E+02  0.49625597501E+02  0.00000000000E+00 0. -1.
          2   -1    0    0  504    0 -0.00000000000E+00 -0.00000000000E+00 -0.26632232909E+04  0.26632232909E+04  0.00000000000E+00 0.  1.
         21    1    1    2  503  501 -0.27075149728E+02 -0.66359335435E+02 -0.45930614900E+03  0.46486424216E+03  0.00000000000E+00 0.  1.
         21    1    1    2  504  505  0.12681925403E+02  0.36501936177E+02 -0.79453420027E+02  0.88351958272E+02  0.00000000000E+00 0.  1.
         21    1    1    2  505  502  0.20286812105E+03  0.75681192465E+02 -0.27808661198E+03  0.35244188343E+03  0.00000000000E+00 0. -1.
          2    1    1    2  501    0 -0.18847489673E+03 -0.45823793207E+02 -0.17967515124E+04  0.18071908046E+04  0.00000000000E+00 0.  1.
<scales pt_clust_3="70.34207" pt_clust_4="36.38351" pt_clust_5="257.80678" pt_clust_6="70.34207"></scales>
<clustering>
<clus scale="   36.384">  4  5 -1 -1</clus>
<clus scale="   70.342">  3  6 -1 -1</clus>
<clus scale="  257.807">  1  4  2 -1</clus>
<clus scale="  257.807">  1  3  2 -1</clus>
</clustering>
</event>
<event>
 6    0  0.1361744E+002  0.1093022E+03  0.7546771E-02  0.1261868E+00
          2   -1    0    0  503    0 -0.00000000000E+00  0.00000000000E+00  0.36871089294E+03  0.36871089294E+03  0.00000000000E+00 0. -1.
         21   -1    0    0  501  502  0.00000000000E+00 -0.00000000000E+00 -0.25915703640E+04  0.25915703640E+04  0.00000000000E+00 0. -1.
         21    1    1    2  503  504  0.37979241620E+02  0.76892411069E+02  0.16384912919E+03  0.18493621282E+03  0.00000000000E+00 0. -1.
         21    1    1    2  504  505 -0.59099120162E+02  0.89593410430E+01 -0.76937744994E+03  0.77169594807E+03  0.00000000000E+00 0. -1.
         21    1    1    2  505  502 -0.52780556261E+02 -0.14121440748E+02 -0.17963174769E+04  0.17971482076E+04  0.00000000000E+00 0. -1.
          2    1    1    2  501    0  0.73900434804E+02 -0.71730311364E+02  0.17898632658E+03  0.20650088846E+03  0.00000000000E+00 0. -1.
<scales pt_clust_3="85.28425" pt_clust_4="14000.00000" pt_clust_5="54.63700" pt_clust_6="109.30216"></scales>
<clustering>
<clus scale="   54.637">  2  5  1 -1</clus>
<clus scale="   85.284">  1  3  2 -1</clus>
<clus scale="  109.302">  1  6  2 -1</clus>
<clus scale="   54.637">  2  3  1 -1</clus>
</clustering>
</event>
<event>
 6    0  0.1361744E+002  0.1069831E+03  0.7546771E-02  0.1266261E+00
         21   -1    0    0  505  502  0.00000000000E+00  0.00000000000E+00  0.17632368582E+04  0.17632368582E+04  0.00000000000E+00 0.  1.
          2   -1    0    0  503    0 -0.00000000000E+00 -0.00000000000E+00 -0.52535873666E+02  0.52535873666E+02  0.00000000000E+00 0. -1.
         21    1    1    2  503  504 -0.42473871555E+02  0.15396383700E+02  0.78031865028E+02  0.90166791867E+02  0.00000000000E+00 0.  1.
         21    1    1    2  504  502  0.39908974956E+02  0.72137299909E+02  0.32332511686E+03  0.33366996795E+03  0.00000000000E+00 0. -1.
         21    1    1    2  505  501 -0.41725341158E+01 -0.17275418904E+03  0.12935023056E+04  0.13049941128E+04  0.00000000000E+00 0.  1.
          2    1    1    2  501    0  0.67374307143E+01  0.85220505434E+02  0.15841697022E+02  0.86941859214E+02  0.00000000000E+00 0. -1.
<scales pt_clust_3="45.17830" pt_clust_4="81.80280" pt_clust_5="106.98309" pt_clust_6="14000.00000"></scales>
<clustering>
<clus scale="   45.178">  2  3  1 -1</clus>
<clus scale="   81.803">  1  4  2 -1</clus>
<clus scale="  106.983">  1  5  2 -1</clus>
<clus scale="   81.803">  1  3  2 -1</clus>
</clustering>
</event>
<event>
 6    0  0.1361744E+002  0.1428596E+03  0.7546771E-02  0.1209532E+00
          2   -1    0    0  505    0 -0.00000000000E+00  0.00000000000E+00  0.63371216053E+03  0.63371216053E+03  0.00000000000E+00 0.  1.
         21   -1    0    0  504  502  0.00000000000E+00 -0.00000000000E+00 -0.45862901252E+03  0.45862901252E+03  0.00000000000E+00 0.  1.
         21    1    1    2  503  501 -0.78619581484E+02  0.70950135579E+02 -0.10356456490E+03  0.14812352762E+03  0.00000000000E+00 0.  1.
         21    1    1    2  504  503 -0.55077462768E+02  0.90022971392E+01 -0.31614764188E+03  0.32103566737E+03  0.00000000000E+00 0.  1.
         21    1    1    2  505  502  0.25316711759E+02 -0.44716158472E+02  0.34260190573E+03  0.34643402912E+03  0.00000000000E+00 0.  1.
          2    1    1    2  501    0  0.10838033249E+03 -0.35236274246E+02  0.25219344905E+03  0.27674794893E+03  0.00000000000E+00 0.  1.
<scales pt_clust_3="14000.00000" pt_clust_4="55.53724" pt_clust_5="51.38551" pt_clust_6="142.85962"></scales>
<clustering>
<clus scale="   51.386">  1  5  2 -1</clus>
<clus scale="   55.537">  2  4  1 -1</clus>
<clus scale="  142.860">  1  6  2 -1</clus>
<clus scale="   55.537">  2  3  1 -1</clus>
</clustering>
</event>
<event>
 6    0  0.1361744E+002  0.1516046E+03  0.7546771E-02  0.1198515E+00
         21   -1    0    0  505  502  0.00000000000E+00  0.00000000000E+00  0.23613793398E+03  0.23613793398E+03  0.00000000000E+00 0.  1.
          1   -1    0    0  504    0 -0.00000000000E+00 -0.00000000000E+00 -0.18922895645E+04  0.18922895645E+04  0.00000000000E+00 0. -1.
         21    1    1    2  503  502  0.36526877231E+02  0.10235706586E+03  0.16738148184E+03  0.19956889075E+03  0.00000000000E+00 0.  1.
         21    1    1    2  504  503  0.15658957659E+02  0.42677098936E+02  0.25866965912E+02  0.52303323546E+02  0.00000000000E+00 0.  1.
         21    1    1    2  505  501 -0.59314786852E+02 -0.15018937151E+01 -0.71747053535E+02  0.93102842680E+02  0.00000000000E+00 0.  1.
          1    1    1    2  501    0  0.71289519632E+01 -0.14353227108E+03 -0.17776530248E+04  0.17834524415E+04  0.00000000000E+00 0. -1.
<scales pt_clust_3="31.26145" pt_clust_4="31.26145" pt_clust_5="59.33380" pt_clust_6="143.69268"></scales>
<clustering>
<clus scale="   31.261">  3  4 -1 -1</clus>
<clus scale="   59.334">  1  5  2 -1</clus>
<clus scale="  143.693">  2  6  1 -1</clus>
<clus scale="   59.334">  1  3  2 -1</clus>
</clustering>
</event>
<event>
 6    0  0.1361744E+002  0.7182800E+02  0.7546771E-02  0.1353985E+00
         21   -1    0    0  501  502  0.00000000000E+00  0.00000000000E+00  0.13042996597E+03  0.13042996597E+03  0.00000000000E+00 0.  1.
          1   -1    0    0  504    0 -0.00000000000E+00 -0.00000000000E+00 -0.18396985277E+04  0.18396985277E+04  0.00000000000E+00 0. -1.
         21    1    1    2  503  502  0.65964615812E+02 -0.27624940530E+02  0.10936428201E+03  0.13067139724E+03  0.00000000000E+00 0.  1.
         21    1    1    2  504  505 -0.20887858040E+02 -0.28970017881E+02 -0.37303644845E+03  0.37474225331E+03  0.00000000000E+00 0. -1.
         21    1    1    2  505  503 -0.82485550778E+02  0.30432022633E+01 -0.18679029153E+03  0.20421493622E+03  0.00000000000E+00 0.  1.
          1    1    1    2  501    0  0.37408793005E+02  0.53551756148E+02 -0.12588061038E+04  0.12604999069E+04  0.00000000000E+00 0. -1.
<scales pt_clust_3="14000.00000" pt_clust_4="35.71505" pt_clust_5="71.82800" pt_clust_6="34.63836"></scales>
<clustering>
<clus scale="   35.715">  2  4  1 -1</clus>
<clus scale="   34.638">  2  6  1 -1</clus>
<clus scale="   71.828">  2  5  1 -1</clus>
<clus scale="   71.828">  1  3  2 -1</clus>
</clustering>
</event>
<event>
 6    0  0.1361744E+002  0.1744070E+03  0.7546771E-02  0.1173328E+00
         -2   -1    0    0    0  501 -0.00000000000E+00  0.00000000000E+00  0.10112067196E+04  0.10112067196E+04  0.00000000000E+00 0.  1.
         21   -1    0    0  504  502  0.00000000000E+00 -0.00000000000E+00 -0.31196287447E+03  0.31196287447E+03  0.00000000000E+00 0. -1.
         21    1    1    2  503  505 -0.36364360880E+02  0.56627280277E+02  0.13221243270E+02  0.68584377867E+02  0.00000000000E+00 0.  1.
         21    1    1    2  504  501 -0.55653220671E+02 -0.13656589274E+03 -0.23544468895E+03  0.27781599231E+03  0.00000000000E+00 0. -1.
         21    1    1    2  505  502 -0.34498383057E+02 -0.41984558532E+02  0.19321921733E+02  0.57673028775E+02  0.00000000000E+00 0. -1.
         -2    1    1    2    0  503  0.12651596461E+03  0.12192317099E+03  0.90214536910E+03  0.91909619513E+03  0.00000000000E+00 0.  1.
<scales pt_clust_3="65.90197" pt_clust_4="174.40703" pt_clust_5="54.34006" pt_clust_6="14000.00000"></scales>
<clustering>
<clus scale="   54.340">  2  5  1 -1</clus>
<clus scale="   65.902">  2  3  1 -1</clus>
<clus scale="  174.407">  2  4  1 -1</clus>
<clus scale="   54.340">  2  3  1 -1</clus>
</clustering>
</event>
<event>
 6    0  0.1361744E+002  0.1205075E+03  0.7546771E-02  0.1242262E+00
          1   -1    0    0  502    0 -0.00000000000E+00  0.00000000000E+00  0.16708884456E+04  0.16708884456E+04  0.00000000000E+00 0. -1.
         21   -1    0    0  505  502  0.00000000000E+00 -0.00000000000E+00 -0.12853215185E+03  0.12853215185E+03  0.00000000000E+00 0.  1.
         21    1    1    2  503  501  0.53084338757E+02 -0.98238018023E+02  0.54034822572E+03  0.55176522204E+03  0.00000000000E+00 0. -1.
         21    1    1    2  504  503  0.12651035506E+02  0.47335472675E+02 -0.15903584173E+02  0.51513295976E+02  0.00000000000E+00 0.  1.
         21    1    1    2  505  504 -0.94409569801E+01  0.65266947373E+02 -0.76037691919E+02  0.10065106398E+03  0.00000000000E+00 0.  1.
          1    1    1    2  501    0 -0.56294417283E+02 -0.14364402025E+02  0.10939493441E+04  0.10954910154E+04  0.00000000000E+00 0. -1.
<scales pt_clust_3="111.85203" pt_clust_4="38.65585" pt_clust_5="38.65585" pt_clust_6="58.09817"></scales>
<clustering>
<clus scale="   38.656">  4  5 -1 -1</clus>
<clus scale="   58.098">  1  6  2 -1</clus>
<clus scale="  111.852">  1  3  2 -1</clus>
<clus scale="  120.508">  2  3  1 -1</clus>
</clustering>
</event>
<event>
 6    0  0.1361744E+002  0.3136329E+03  0.7546771E-02  0.1078617E+00
          2   -1    0    0  502    0 -0.00000000000E+00  0.00000000000E+00  0.23973217342E+04  0.23973217342E+04  0.00000000000E+00 0. -1.
         21   -1    0    0  503  502  0.00000000000E+00 -0.00000000000E+00 -0.12025271332E+03  0.12025271332E+03  0.00000000000E+00 0.  1.
         21    1    1    2  503  505 -0.11340287164E+03  0.87074063303E+02 -0.44335250332E+01  0.14304460822E+03  0.00000000000E+00 0.  1.
         21    1    1    2  504  501  0.73989955561E+02 -0.50896549547E+02  0.92790992155E+03  0.93224556572E+03  0.00000000000E+00 0.  1.
         21    1    1    2  505  504 -0.90357717779E+02  0.11900688459E+03  0.11842607468E+03  0.19066171852E+03  0.00000000000E+00 0.  1.
          2    1    1    2  501    0  0.12977063386E+03 -0.15518439835E+03  0.12351665496E+04  0.12516225550E+04  0.00000000000E+00 0. -1.
<scales pt_clust_3="117.29255" pt_clust_4="53.27118" pt_clust_5="117.29255" pt_clust_6="300.63291"></scales>
<clustering>
<clus scale="   53.271">  4  6 -1 -1</clus>
<clus scale="  117.293">  3  5 -1 -1</clus>
<clus scale="  300.633">  1  4  2 -1</clus>
<clus scale="  313.633">  2  3  1 -1</clus>
</clustering>
</event>
<event>
 6    0  0.1361744E+002  0.1986458E+03  0.7546771E-02  0.1150887E+00
         21   -1    0    0  501  502  0.00000000000E+00  0.00000000000E+00  0.26689663675E+03  0.26689663675E+03  0.00000000000E+00 0. -1.
          2   -1    0    0  504    0 -0.00000000000E+00 -0.00000000000E+00 -0.16122197382E+04  0.16122197382E+04  0.00000000000E+00 0.  1.
         21    1    1    2  503  505  0.86209853551E+01 -0.13802725288E+03  0.12176429148E+03  0.18426173397E+03  0.00000000000E+00 0. -1.
         21    1    1    2  504  503  0.98635795865E+01  0.84248508713E+02 -0.35283107558E+03  0.36288409902E+03  0.00000000000E+00 0. -1.
         21    1    1    2  505  502 -0.13879381535E+02 -0.55750798815E+02  0.98628307991E+02  0.11414171865E+03  0.00000000000E+00 0. -1.
          2    1    1    2  501    0 -0.46051834061E+01  0.10952954298E+03 -0.12128846254E+04  0.12178288233E+04  0.00000000000E+00 0.  1.
<scales pt_clust_3="34.67440" pt_clust_4="84.82394" pt_clust_5="34.67440" pt_clust_6="191.22240"></scales>
<clustering>
<clus scale="   34.674">  3  5 -1 -1</clus>
<clus scale="   84.824">  2  4  1 -1</clus>
<clus scale="  191.222">  2  6  1 -1</clus>
<clus scale="  198.646">  1  3  2 -1</clus>
</clustering>
</event>
<event>
 6    0  0.1361744E+002  0.1192819E+03  0.7546771E-02  0.1244286E+00
         -1   -1    0    0    0  501 -0.00000000000E+00  0.00000000000E+00  0.87884684642E+03  0.87884684642E+03  0.00000000000E+00 0. -1.
         21   -1    0    0  505  502  0.00000000000E+00 -0.00000000000E+00 -0.36366038634E+03  0.36366038634E+03  0.00000000000E+00 0. -1.
         21    1    1    2  503  501  0.98316769397E+02  0.47826506461E+02  0.24192914011E+03  0.26548685599E+03  0.00000000000E+00 0. -1.
         21    1    1    2  504  502 -0.30150955271E+02  0.16678415074E+03 -0.12807163052E+03  0.21243440302E+03  0.00000000000E+00 0. -1.
         21    1    1    2  505  503 -0.50271259222E+02 -0.80607120805E+02 -0.16061614026E+03  0.18660721299E+03  0.00000000000E+00 0. -1.
         -1    1    1    2    0  504 -0.17894554903E+02 -0.13400353640E+03  0.56194509076E+03  0.57797876076E+03  0.00000000000E+00 0. -1.
<scales pt_clust_3="104.39207" pt_clust_4="119.28194" pt_clust_5="94.99846" pt_clust_6="14000.00000"></scales>
<clustering>
<clus scale="   94.998">  2  5  1 -1</clus>
<clus scale="  104.392">  1  3  2 -1</clus>
<clus scale="  119.282">  2  4  1 -1</clus>
<clus scale="   94.998">  2  3  1 -1</clus>
</clustering>
</event>
<event>
 6    0  0.1361744E+002  0.8999751E+02  0.7546771E-02  0.1302858E+00
          1   -1    0    0  505    0 -0.00000000000E+00  0.00000000000E+00  0.34058660306E+03  0.34058660306E+03  0.00000000000E+00 0. -1.
         21   -1    0    0  504  502  0.00000000000E+00 -0.00000000000E+00 -0.54605160531E+03  0.54605160531E+03  0.00000000000E+00 0.  1.
         21    1    1    2  503  501 -0.86863634343E+02 -0.89870541232E+01 -0.16605194560E+02  0.88892016512E+02  0.00000000000E+00 0.  1.
         21    1    1    2  504  503  0.85773051334E+02 -0.31177995411E+02 -0.47635687115E+03  0.48502056908E+03  0.00000000000E+00 0.  1.
         21    1    1    2  505  502  0.15849176045E+02 -0.39196091180E+02  0.10329887412E+03  0.11161625034E+03  0.00000000000E+00 0.  1.
          1    1    1    2  501    0 -0.14758593036E+02  0.79361140715E+02  0.18419818935E+03  0.20110937244E+03  0.00000000000E+00 0. -1.
<scales pt_clust_3="89.99751" pt_clust_4="14000.00000" pt_clust_5="42.27919" pt_clust_6="46.99954"></scales>
<clustering>
<clus scale="   42.279">  1  5  2 -1</clus>
<clus scale="   47.000">  1  6  2 -1</clus>
<clus scale="   89.998">  1  3  2 -1</clus>
<clus scale="   89.998">  2  3  1 -1</clus>
</clustering>
</event>
<event>
 6    0  0.1361744E+002  0.1740450E+03  0.7546771E-02  0.1173694E+00
          2   -1    0    0  502    0 -0.00000000000E+00  0.00000000000E+00  0.91190043947E+03  0.91190043947E+03  0.00000000000E+00 0.  1.
         21   -1    0    0  505  502  0.00000000000E+00 -0.00000000000E+00 -0.81355240521E+02  0.81355240521E+02  0.00000000000E+00 0.  1.
         21    1    1    2  503  504  0.13067717152E+03  0.55597509930E+02  0.23921753003E+02  0.14401339012E+03  0.00000000000E+00 0.  1.
         21    1    1    2  504  501 -0.68655127305E+02 -0.38986915308E+01  0.37638529041E+03  0.38261548993E+03  0.00000000000E+00 0.  1.
         21    1    1    2  505  503  0.42882184398E+02 -0.31524499548E+02  0.55234313468E+02  0.76704010291E+02  0.00000000000E+00 0.  1.
          2    1    1    2  501    0 -0.10490422861E+03 -0.20174318851E+02  0.37500384208E+03  0.38992278966E+03  0.00000000000E+00 0.  1.
<scales pt_clust_3="169.60029" pt_clust_4="31.35622" pt_clust_5="53.22289" pt_clust_6="31.35622"></scales>
<clustering>
<clus scale="   31.356">  4  6 -1 -1</clus>
<clus scale="   53.223">  2  5  1 -1</clus>
<clus scale="  169.600">  2  3  1 -1</clus>
<clus scale="   53.223">  2  3  1 -1</clus>
</clustering>
</event>
<event>
 6    0  0.1361744E+002  0.8944178E+02  0.7546771E-02  0.1304209E+00
         21   -1    0    0  503  502  0.00000000000E+00  0.00000000000E+00  0.32809110718E+03  0.32809110718E+03  0.00000000000E+00 0. -1.
          1   -1    0    0  504    0 -0.00000000000E+00 -0.00000000000E+00 -0.16135918780E+03  0.16135918780E+03  0.00000000000E+00 0. -1.
         21    1    1    2  503  505 -0.49274259936E+02 -0.11546893117E+02  0.11117736771E+03  0.12215437170E+03  0.00000000000E+00 0. -1.
         21    1    1    2  504  502  0.18198665048E+02 -0.84075819070E+02  0.14622742743E+03  0.16965375119E+03  0.00000000000E+00 0. -1.
         21    1    1    2  505  501 -0.23676482501E+02  0.84531415877E+02  0.38236747385E+01  0.87867835880E+02  0.00000000000E+00 0. -1.
          1    1    1    2  501    0  0.54752077389E+02  0.11091296309E+02 -0.94496550499E+02  0.10977433620E+03  0.00000000000E+00 0. -1.
<scales pt_clust_3="50.60912" pt_clust_4="89.44178" pt_clust_5="14000.00000" pt_clust_6="54.03652"></scales>
<clustering>
<clus scale="   50.609">  1  3  2 -1</clus>
<clus scale="   54.037">  2  6  1 -1</clus>
<clus scale="   89.442">  1  4  2 -1</clus>
<clus scale="   50.609">  1  3  2 -1</clus>
</clustering>
</event>
<event>
 6    0  0.1361744E+002  0.1472570E+03  0.7546771E-02  0.1203885E+00
         21   -1    0    0  504  502  0.00000000000E+00  0.00000000000E+00  0.63178408356E+03  0.63178408356E+03  0.00000000000E+00 0. -1.
          2   -1    0    0  505    0 -0.00000000000E+00 -0.00000000000E+00 -0.35631516513E+03  0.35631516513E+03  0.00000000000E+00 0. -1.
         21    1    1    2  503  502 -0.10206327172E+02  0.29867710248E+02  0.14687642820E+03  0.15022960557E+03  0.00000000000E+00 0. -1.
         21    1    1    2  504  501  0.39304083954E+02  0.17334835475E+03 -0.39278961452E+01  0.17779170813E+03  0.00000000000E+00 0. -1.
         21    1    1    2  505  503  0.64531770040E+01 -0.16659032125E+03  0.37600152942E+03  0.41130418033E+03  0.00000000000E+00 0. -1.
          2    1    1    2  501    0 -0.35550933786E+02 -0.36625743747E+02 -0.24348114304E+03  0.24877375467E+03  0.00000000000E+00 0. -1.
<scales pt_clust_3="31.56342" pt_clust_4="14000.00000" pt_clust_5="147.25704" pt_clust_6="50.96407"></scales>
<clustering>
<clus scale="   31.563">  1  3  2 -1</clus>
<clus scale="   50.964">  2  6  1 -1</clus>
<clus scale="  147.257">  1  5  2 -1</clus>
<clus scale="   31.563">  1  3  2 -1</clus>
</clustering>
</event>
<event>
 6    0  0.1361744E+002  0.1694785E+03  0.7546771E-02  0.1178393E+00
          2   -1    0    0  504    0 -0.00000000000E+00  0.00000000000E+00  0.44120929966E+04  0.44120929966E+04  0.00000000000E+00 0. -1.
         21   -1    0    0  503  502  0.00000000000E+00 -0.00000000000E+00 -0.33609618510E+03  0.33609618510E+03  0.00000000000E+00 0.  1.
         21    1    1    2  503  501  0.38715355631E+02  0.56689553176E+02 -0.23085356698E+03  0.24084425172E+03  0.00000000000E+00 0.  1.
         21    1    1    2  504  505  0.60511122846E+02  0.69338690191E+00  0.40038943645E+03  0.40493675752E+03  0.00000000000E+00 0.  1.
         21    1    1    2  505  502  0.11933758491E+03  0.95075221866E+01 -0.56838286957E+02  0.13252336780E+03  0.00000000000E+00 0.  1.
          2    1    1    2  501    0 -0.21856406338E+03 -0.66890462265E+02  0.39632992290E+04  0.39698848047E+04  0.00000000000E+00 0. -1.
<scales pt_clust_3="68.69152" pt_clust_4="60.51510" pt_clust_5="14000.00000" pt_clust_6="169.47854"></scales>
<clustering>
<clus scale="   60.515">  1  4  2 -1</clus>
<clus scale="   68.692">  2  3  1 -1</clus>
<clus scale="  169.479">  1  6  2 -1</clus>
<clus scale="   68.692">  2  3  1 -1</clus>
</clustering>
</event>
<event>
 6    0  0.1361744E+002  0.1524686E+03  0.7546771E-02  0.1197472E+00
         21   -1    0    0  505  502  0.00000000000E+00  0.00000000000E+00  0.12079965604E+03  0.12079965604E+03  0.00000000000E+00 0.  1.
          3   -1    0    0  502    0 -0.00000000000E+00 -0.00000000000E+00 -0.17856491391E+04  0.17856491391E+04  0.00000000000E+00 0.  1.
         21    1    1    2  503  504 -0.13100774204E+01 -0.99532403910E+02  0.22048202022E+02  0.10195361172E+03  0.00000000000E+00 0.  1.
         21    1    1    2  504  501 -0.80063278255E+01  0.65063164682E+02 -0.72696060831E+03  0.72991029772E+03  0.00000000000E+00 0.  1.
         21    1    1    2  505  503 -0.20659903210E+02 -0.40905576085E+02  0.46264368657E+02  0.65119041476E+02  0.00000000000E+00 0.  1.
          3    1    1    2  501    0  0.29976308456E+02  0.75374815313E+02 -0.10062014454E+04  0.10094658442E+04  0.00000000000E+00 0.  1.
<scales pt_clust_3="37.41780" pt_clust_4="33.31219" pt_clust_5="37.41780" pt_clust_6="146.89676"></scales>
<clustering>
<clus scale="   33.312">  4  6 -1 -1</clus>
<clus scale="   37.418">  3  5 -1 -1</clus>
<clus scale="  146.897">  2  4  1 -1</clus>
<clus scale="  152.469">  1  3  2 -1</clus>
</clustering>
</event>
<event>
 6    0  0.1361744E+002  0.2185791E+03  0.7546771E-02  0.1134947E+00
          1   -1    0    0  503    0 -0.00000000000E+00  0.00000000000E+00  0.10354556375E+04  0.10354556375E+04  0.00000000000E+00 0. -1.
         21   -1    0    0  504  502  0.00000000000E+00 -0.00000000000E+00 -0.32319192719E+03  0.32319192719E+03  0.00000000000E+00 0.  1.
         21    1    1    2  503  502 -0.29688067569E+02  0.51089800014E+02  0.80898642950E+02  0.10018053430E+03  0.00000000000E+00 0.  1.
         21    1    1    2  504  505 -0.45999805575E+02 -0.91647345687E+02 -0.16569910438E+03  0.19486254457E+03  0.00000000000E+00 0.  1.
         21    1    1    2  505  501 -0.78179374408E+02 -0.79067687206E+02 -0.97604054258E+02  0.14795359120E+03  0.00000000000E+00 0.  1.
          1    1    1    2  501    0  0.15386724755E+03  0.11962523288E+03  0.89466822601E+03  0.91565089464E+03  0.00000000000E+00 0. -1.
<scales pt_clust_3="59.08933" pt_clust_4="57.86102" pt_clust_5="57.86102" pt_clust_6="210.11086"></scales>
<clustering>
<clus scale="   57.861">  4  5 -1 -1</clus>
<clus scale="   59.089">  1  3  2 -1</clus>
<clus scale="  210.111">  1  6  2 -1</clus>
<clus scale="  218.579">  2  3  1 -1</clus>
</clustering>
</event>
<event>
 6    0  0.1361744E+002  0.9630402E+02  0.7546771E-02  0.1288266E+00
         21   -1    0    0  501  502  0.00000000000E+00  0.00000000000E+00  0.12896774954E+03  0.12896774954E+03  0.00000000000E+00 0.  1.
          2   -1    0    0  504    0 -0.00000000000E+00 -0.00000000000E+00 -0.53856768716E+03  0.53856768716E+03  0.00000000000E+00 0. -1.
         21    1    1    2  503  502 -0.39272338509E+02 -0.79672795491E+01  0.19154518954E+02  0.44414971707E+02  0.00000000000E+00 0.  1.
         21    1    1    2  504  505  0.22015927755E+02 -0.22993340248E+02 -0.77717317146E+02  0.83984380423E+02  0.00000000000E+00 0.  1.
         21    1    1    2  505  503 -0.12246042993E+02 -0.75664842379E+02  0.70002056701E+02  0.10380472958E+03  0.00000000000E+00 0.  1.
          2    1    1    2  501    0  0.29502453746E+02  0.10662546218E+03 -0.42103919613E+03  0.43533135499E+03  0.00000000000E+00 0. -1.
<scales pt_clust_3="39.61009" pt_clust_4="31.83386" pt_clust_5="96.30402" pt_clust_6="14000.00000"></scales>
<clustering>
<clus scale="   31.834">  2  4  1 -1</clus>
<clus scale="   39.610">  1  3  2 -1</clus>
<clus scale="   96.304">  1  5  2 -1</clus>
<clus scale="   39.610">  1  3  2 -1</clus>
</clustering>
</event>
<event>
 6    0  0.1361744E+002  0.2828942E+03  0.7546771E-02  0.1094119E+00
          2   -1    0    0  502    0 -0.00000000000E+00  0.00000000000E+00  0.61548972616E+03  0.61548972616E+03  0.00000000000E+00 0.  1.
         21   -1    0    0  505  502  0.00000000000E+00 -0.00000000000E+00 -0.21208657258E+03  0.21208657258E+03  0.00000000000E+00 0.  1.
         21    1    1    2  503  504 -0.76248620781E+02  0.82739514211E+01  0.14717033766E+02  0.78095464183E+02  0.00000000000E+00 0.  1.
         21    1    1    2  504  501  0.12735827055E+03  0.52084544109E+02  0.16174694747E+03  0.21235584246E+03  0.00000000000E+00 0.  1.
         21    1    1    2  505  503 -0.17473805267E+03 -0.92345315099E+02 -0.73350136208E+02  0.21081102142E+03  0.00000000000E+00 0.  1.
          2    1    1    2  501    0  0.12362840290E+03  0.31986819570E+02  0.30028930855E+03  0.32631397068E+03  0.00000000000E+00 0.  1.
<scales pt_clust_3="62.19123" pt_clust_4="78.41421" pt_clust_5="62.19123" pt_clust_6="276.92538"></scales>
<clustering>
<clus scale="   62.191">  3  5 -1 -1</clus>
<clus scale="   78.414">  4  6 -1 -1</clus>
<clus scale="  276.925">  1  4  2 -1</clus>
<clus scale="  282.894">  2  3  1 -1</clus>
</clustering>
</event>
<event>
 6    0  0.1361744E+002  0.8490186E+02  0.7546771E-02  0.1315689E+00
         21   -1    0    0  504  502  0.00000000000E+00  0.00000000000E+00  0.29195905498E+02  0.29195905498E+02  0.00000000000E+00 0. -1.
          1   -1    0    0  503    0 -0.00000000000E+00 -0.00000000000E+00 -0.93652667171E+03  0.93652667171E+03  0.00000000000E+00 0.  1.
         21    1    1    2  503  502 -0.26325585507E+02 -0.29867000035E+02 -0.87779534408E+02  0.96386310253E+02  0.00000000000E+00 0.  1.
         21    1    1    2  504  505  0.44277726987E+02  0.60678770468E+02 -0.87743993896E+02  0.11550514602E+03  0.00000000000E+00 0. -1.
         21    1    1    2  505  501  0.48007981509E+00  0.64195180921E+02 -0.13815260507E+03  0.15233973224E+03  0.00000000000E+00 0.  1.
          1    1    1    2  501    0 -0.18432221296E+02 -0.95006951354E+02 -0.59365463283E+03  0.60149138869E+03  0.00000000000E+00 0.  1.
<scales pt_clust_3="39.81299" pt_clust_4="53.04889" pt_clust_5="14000.00000" pt_clust_6="84.90186"></scales>
<clustering>
<clus scale="   39.813">  1  3  2 -1</clus>
<clus scale="   53.049">  1  4  2 -1</clus>
<clus scale="   84.902">  2  6  1 -1</clus>
<clus scale="   39.813">  1  3  2 -1</clus>
</clustering>
</event>
<event>
 6    0  0.1361744E+002  0.1136480E+03  0.7546771E-02  0.1253960E+00
          3   -1    0    0  503    0 -0.00000000000E+00  0.00000000000E+00  0.14383259745E+04  0.14383259745E+04  0.00000000000E+00 0.  1.
         21   -1    0    0  504  502  0.00000000000E+00 -0.00000000000E+00 -0.13172147539E+03  0.13172147539E+03  0.00000000000E+00 0.  1.
         21    1    1    2  503  505  0.37444730013E+02  0.38387979341E+02  0.42362145713E+03  0.42700220574E+03  0.00000000000E+00 0. -1.
         21    1    1    2  504  501 -0.29648737758E+02 -0.87435423872E+01 -0.79121772847E+02  0.84945583302E+02  0.00000000000E+00 0.  1.
         21    1    1    2  505  502  0.13584186790E+03  0.36983573789E+01  0.68072736821E+02  0.15198877728E+03  0.00000000000E+00 0.  1.
          3    1    1    2  501    0 -0.14363786016E+03 -0.33342794333E+02  0.89403207805E+03  0.90611088360E+03  0.00000000000E+00 0.  1.
<scales pt_clust_3="52.71125" pt_clust_4="30.91112" pt_clust_5="14000.00000" pt_clust_6="113.64797"></scales>
<clustering>
<clus scale="   30.911">  2  4  1 -1</clus>
<clus scale="   52.711">  1  3  2 -1</clus>
<clus scale="  113.648">  1  6  2 -1</clus>
<clus scale="   30.911">  2  3  1 -1</clus>
</clustering>
</event>
<event>
 6    0  0.1361744E+002  0.9723858E+02  0.7546771E-02  0.1286212E+00
         21   -1    0    0  504  502  0.00000000000E+00  0.00000000000E+00  0.64042162850E+02  0.64042162850E+02  0.00000000000E+00 0.  1.
          2   -1    0    0  503    0 -0.00000000000E+00 -0.00000000000E+00 -0.73611372330E+03  0.73611372330E+03  0.00000000000E+00 0. -1.
         21    1    1    2  503  505  0.66841572607E+02  0.80201599870E+02 -0.98262981345E+02  0.14337261228E+03  0.00000000000E+00 0.  1.
         21    1    1    2  504  501 -0.44750934534E+02 -0.22130213965E+02 -0.87529005458E+02  0.10076566532E+03  0.00000000000E+00 0.  1.
         21    1    1    2  505  502  0.55776041619E+01  0.35113137039E+02  0.19794702079E+02  0.40692410734E+02  0.00000000000E+00 0.  1.
          2    1    1    2  501    0 -0.27668242234E+02 -0.93184522945E+02 -0.50607427573E+03  0.51532519781E+03  0.00000000000E+00 0. -1.
<scales pt_clust_3="14000.00000" pt_clust_4="46.24700" pt_clust_5="35.55337" pt_clust_6="97.23858"></scales>
<clustering>
<clus scale="   35.553">  1  5  2 -1</clus>
<clus scale="   46.247">  1  4  2 -1</clus>
<clus scale="   97.239">  2  6  1 -1</clus>
<clus scale="   35.553">  1  3  2 -1</clus>
</clustering>
</event>
<event>
 6    0  0.1361744E+002  0.1463410E+03  0.7546771E-02  0.1205043E+00
         21   -1    0    0  504  502  0.00000000000E+00  0.00000000000E+00  0.28904827404E+03  0.28904827404E+03  0.00000000000E+00 0. -1.
          2   -1    0    0  505    0 -0.00000000000E+00 -0.00000000000E+00 -0.76655489781E+03  0.76655489781E+03  0.00000000000E+00 0. -1.
         21    1    1    2  503  502  0.31438439809E+02  0.75969090841E+02 -0.10163297471E+02  0.82843049656E+02  0.00000000000E+00 0. -1.
         21    1    1    2  504  501  0.94361781356E+02  0.18246740504E+02  0.22838772522E+03  0.24778628362E+03  0.00000000000E+00 0. -1.
         21    1    1    2  505  503 -0.48519749691E+02 -0.44620887534E+02 -0.85947162014E+02  0.10831483912E+03  0.00000000000E+00 0.  1.
          2    1    1    2  501    0 -0.77280471474E+02 -0.49594943812E+02 -0.60978388950E+03  0.61665899946E+03  0.00000000000E+00 0. -1.
<scales pt_clust_3="78.08812" pt_clust_4="146.34100" pt_clust_5="65.91805" pt_clust_6="14000.00000"></scales>
<clustering>
<clus scale="   65.918">  2  5  1 -1</clus>
<clus scale="   78.088">  1  3  2 -1</clus>
<clus scale="  146.341">  1  4  2 -1</clus>
<clus scale="   78.088">  1  3  2 -1</clus>
</clustering>
</event>
<event>
 6    0  0.1361744E+002  0.1084879E+03  0.7546771E-02  0.1263396E+00
         21   -1    0    0  505  502  0.00000000000E+00  0.00000000000E+00  0.20758584455E+03  0.20758584455E+03  0.00000000000E+00 0. -1.
          4   -1    0    0  504    0 -0.00000000000E+00 -0.00000000000E+00 -0.40406437612E+04  0.40406437612E+04  0.00000000000E+00 0. -1.
         21    1    1    2  503  501 -0.66183869552E+02  0.23562966413E+02 -0.11348329910E+04  0.11370054685E+04  0.00000000000E+00 0. -1.
         21    1    1    2  504  502 -0.26183999283E+02 -0.25218566476E+02 -0.11323800705E+02  0.38076323036E+02  0.00000000000E+00 0. -1.
         21    1    1    2  505  503  0.12108763008E+03 -0.30124381097E+02  0.17279108488E+03  0.21313482003E+03  0.00000000000E+00 0. -1.
          4    1    1    2  501    0 -0.28719761248E+02  0.31779981160E+02 -0.28596922098E+04  0.28600129941E+04  0.00000000000E+00 0. -1.
<scales pt_clust_3="108.48789" pt_clust_4="36.35351" pt_clust_5="14000.00000" pt_clust_6="42.83353"></scales>
<clustering>
<clus scale="   36.354">  1  4  2 -1</clus>
<clus scale="   42.834">  2  6  1 -1</clus>
<clus scale="  108.488">  2  3  1 -1</clus>
<clus scale="   36.354">  1  3  2 -1</clus>
</clustering>
</event>
<event>
 6    0  0.1361744E+002  0.9889651E+02  0.7546771E-02  0.1282634E+00
         -1   -1    0    0    0  501 -0.00000000000E+00  0.00000000000E+00  0.47750030702E+03  0.47750030702E+03  0.00000000000E+00 0. -1.
         21   -1    0    0  505  502  0.00000000000E+00 -0.00000000000E+00 -0.55921534520E+02  0.55921534520E+02  0.00000000000E+00 0. -1.
         21    1    1    2  503  504 -0.28862007824E+02  0.83364874529E+02  0.10289715981E+03  0.13553797733E+03  0.00000000000E+00 0. -1.
         21    1    1    2  504  502  0.40597206310E+02 -0.15447837664E+01  0.29423740640E+02  0.50162496253E+02  0.00000000000E+00 0. -1.
         21    1    1    2  505  501  0.45065521517E+02 -0.10270764647E+03  0.10447416673E+03  0.15327952697E+03  0.00000000000E+00 0. -1.
         -1    1    1    2    0  503 -0.56800720004E+02  0.20887555711E+02  0.18478370531E+03  0.19444184099E+03  0.00000000000E+00 0. -1.
<scales pt_clust_3="14000.00000" pt_clust_4="40.62659" pt_clust_5="98.89651" pt_clust_6="56.43938"></scales>
<clustering>
<clus scale="   40.627">  2  4  1 -1</clus>
<clus scale="   56.439">  1  6  2 -1</clus>
<clus scale="   98.897">  1  5  2 -1</clus>
<clus scale="   40.627">  2  3  1 -1</clus>
</clustering>
</event>
<event>
 6    0  0.1361744E+002  0.7256070E+02  0.7546771E-02  0.1351596E+00
         -3   -1    0    0    0  501 -0.00000000000E+00  0.00000000000E+00  0.18460274481E+03  0.18460274481E+03  0.00000000000E+00 0. -1.
         21   -1    0    0  504  502  0.00000000000E+00 -0.00000000000E+00 -0.31163443312E+03  0.31163443312E+03  0.00000000000E+00 0. -1.
         21    1    1    2  503  501 -0.66121573646E+02 -0.84725015981E+02 -0.23660661414E+02  0.11004643444E+03  0.00000000000E+00 0. -1.
         21    1    1    2  504  505  0.43334849225E+02  0.64855208207E+01 -0.12959187780E+03  0.13679921758E+03  0.00000000000E+00 0. -1.
         21    1    1    2  505  503 -0.30821469861E+02  0.35924443732E+02 -0.97324929700E+02  0.10822509230E+03  0.00000000000E+00 0. -1.
         -3    1    1    2    0  502  0.53608194282E+02  0.42315051428E+02  0.12354578061E+03  0.14116643361E+03  0.00000000000E+00 0. -1.
<scales pt_clust_3="14000.00000" pt_clust_4="43.81748" pt_clust_5="40.09077" pt_clust_6="72.56070"></scales>
<clustering>
<clus scale="   43.817">  2  4  1 -1</clus>
<clus scale="   40.091">  2  5  1 -1</clus>
<clus scale="   72.561">  1  6  2 -1</clus>
<clus scale="   43.817">  2  3  1 -1</clus>
</clustering>
</event>
<event>
 6    0  0.1361744E+002  0.1560359E+03  0.7546771E-02  0.1193246E+00
         21   -1    0    0  503  502  0.00000000000E+00  0.00000000000E+00  0.29803998149E+03  0.29803998149E+03  0.00000000000E+00 0.  1.
          4   -1    0    0  504    0 -0.00000000000E+00 -0.00000000000E+00 -0.89347934575E+03  0.89347934575E+03  0.00000000000E+00 0.  1.
         21    1    1    2  503  501 -0.68490264765E+02  0.83686729983E+02 -0.62000769798E+02  0.12465344198E+03  0.00000000000E+00 0.  1.
         21    1    1    2  504  505 -0.27244529006E+02  0.15513706429E+02 -0.21570555885E+03  0.21797207979E+03  0.00000000000E+00 0.  1.
         21    1    1    2  505  502  0.11474646186E+03 -0.12553283929E+03  0.23782907454E+03  0.29238316119E+03  0.00000000000E+00 0.  1.
          4    1    1    2  501    0 -0.19011668087E+02  0.26332402876E+02 -0.55556211015E+03  0.55651064428E+03  0.00000000000E+00 0.  1.
<scales pt_clust_3="156.03588" pt_clust_4="31.35187" pt_clust_5="14000.00000" pt_clust_6="56.93235"></scales>
<clustering>
<clus scale="   31.352">  2  4  1 -1</clus>
<clus scale="   56.932">  2  6  1 -1</clus>
<clus scale="  156.036">  2  3  1 -1</clus>
<clus scale="  156.036">  1  3  2 -1</clus>
</clustering>
</event>
<event>
 6    0  0.1361744E+002  0.8397109E+02  0.7546771E-02  0.1318145E+00
         21   -1    0    0  504  502  0.00000000000E+00  0.00000000000E+00  0.54659117042E+03  0.54659117042E+03  0.00000000000E+00 0. -1.
          2   -1    0    0  503    0 -0.00000000000E+00 -0.00000000000E+00 -0.77197093292E+03  0.77197093292E+03  0.00000000000E+00 0.  1.
         21    1    1    2  503  505 -0.67454508535E+01 -0.53847056556E+02 -0.11059558123E+03  0.12319248839E+03  0.00000000000E+00 0. -1.
         21    1    1    2  504  501  0.56924689892E+02 -0.12444846013E+02  0.21483354362E+03  0.22259547609E+03  0.00000000000E+00 0. -1.
         21    1    1    2  505  502  0.10432864513E+02 -0.39704437498E+02  0.31450877803E+03  0.31717669914E+03  0.00000000000E+00 0. -1.
          2    1    1    2  501    0 -0.60612103551E+02  0.10599634007E+03 -0.64412650292E+03  0.65559743972E+03  0.00000000000E+00 0.  1.
<scales pt_clust_3="55.30945" pt_clust_4="14000.00000" pt_clust_5="41.05225" pt_clust_6="83.97109"></scales>
<clustering>
<clus scale="   41.052">  1  5  2 -1</clus>
<clus scale="   55.309">  2  3  1 -1</clus>
<clus scale="   83.971">  2  6  1 -1</clus>
<clus scale="   41.052">  1  3  2 -1</clus>
</clustering>
</event>
<event>
 6    0  0.1361744E+002  0.1018013E+03  0.7546771E-02  0.1276553E+00
          2   -1    0    0  503    0 -0.00000000000E+00  0.00000000000E+00  0.11013022971E+04  0.11013022971E+04  0.00000000000E+00 0. -1.
         21   -1    0    0  505  502  0.00000000000E+00 -0.00000000000E+00 -0.11435294548E+04  0.11435294548E+04  0.00000000000E+00 0. -1.
         21    1    1    2  503  502  0.35512894921E+02 -0.96092871309E+01  0.12175621522E+03  0.12719308177E+03  0.00000000000E+00 0. -1.
         21    1    1    2  504  501 -0.72862872771E+02  0.24067891893E+02 -0.16378820142E+03  0.18087243177E+03  0.00000000000E+00 0. -1.
         21    1    1    2  505  504 -0.22973867413E+02 -0.63292886120E+02 -0.96575133731E+03  0.96809577704E+03  0.00000000000E+00 0. -1.
          2    1    1    2  501    0  0.60323845262E+02  0.48834281359E+02  0.96555616580E+03  0.96867046134E+03  0.00000000000E+00 0. -1.
<scales pt_clust_3="36.79000" pt_clust_4="14000.00000" pt_clust_5="67.32972" pt_clust_6="101.80129"></scales>
<clustering>
<clus scale="   36.790">  1  3  2 -1</clus>
<clus scale="   67.330">  2  5  1 -1</clus>
<clus scale="  101.801">  1  6  2 -1</clus>
<clus scale="   67.330">  2  3  1 -1</clus>
</clustering>
</event>
<event>
 6    0  0.1361744E+002  0.6402041E+02  0.7546771E-02  0.1381695E+00
          2   -1    0    0  504    0 -0.00000000000E+00  0.00000000000E+00  0.48694696408E+04  0.48694696408E+04  0.00000000000E+00 0.  1.
         21   -1    0    0  503  502  0.00000000000E+00 -0.00000000000E+00 -0.16513607045E+02  0.16513607045E+02  0.00000000000E+00 0. -1.
         21    1    1    2  503  501  0.34388748226E+02 -0.15929845011E+02  0.15224244517E+03  0.15688883988E+03  0.00000000000E+00 0.  1.
         21    1    1    2  504  505  0.11711416401E+02  0.34072390229E+02  0.45955783135E+03  0.46096798740E+03  0.00000000000E+00 0. -1.
         21    1    1    2  505  502 -0.40844239236E+02  0.76122331913E+02  0.13120300534E+03  0.15708943282E+03  0.00000000000E+00 0. -1.
          2    1    1    2  501    0 -0.52559253915E+01 -0.94264877130E+02  0.41099527519E+04  0.41110369877E+04  0.00000000000E+00 0.  1.
<scales pt_clust_3="37.79053" pt_clust_4="36.02895" pt_clust_5="64.02041" pt_clust_6="14000.00000"></scales>
<clustering>
<clus scale="   36.029">  1  4  2 -1</clus>
<clus scale="   37.791">  2  3  1 -1</clus>
<clus scale="   64.020">  2  5  1 -1</clus>
<clus scale="   37.791">  2  3  1 -1</clus>
</clustering>
</event>
<event>
 6    0  0.1361744E+002  0.1091303E+03  0.7546771E-02  0.1262189E+00
         -1   -1    0    0    0  501 -0.00000000000E+00  0.00000000000E+00  0.12229142674E+03  0.12229142674E+03  0.00000000000E+00 0. -1.
         21   -1    0    0  504  502  0.00000000000E+00 -0.00000000000E+00 -0.34301657704E+03  0.34301657704E+03  0.00000000000E+00 0. -1.
         21    1    1    2  503  501 -0.88452064591E+01 -0.90562340254E+02 -0.59247705695E+02  0.10858206933E+03  0.00000000000E+00 0. -1.
         21    1    1    2  504  505  0.22278538003E+02  0.60769786623E+02 -0.13083789625E+03  0.14597210458E+03  0.00000000000E+00 0. -1.
         21    1    1    2  505  503  0.46174177606E+02  0.31521612470E+02 -0.10287440570E+03  0.11708462785E+03  0.00000000000E+00 0. -1.
         -1    1    1    2    0  502 -0.59607509150E+02 -0.17290588383E+01  0.72234857347E+02  0.93669202022E+02  0.00000000000E+00 0. -1.
<scales pt_clust_3="102.64251" pt_clust_4="34.44945" pt_clust_5="34.44945" pt_clust_6="59.63258"></scales>
<clustering>
<clus scale="   34.449">  4  5 -1 -1</clus>
<clus scale="   59.633">  1  6  2 -1</clus>
<clus scale="  102.643">  1  3  2 -1</clus>
<clus scale="  109.130">  2  3  1 -1</clus>
</clustering>
</event>
<event>
 6    0  0.1361744E+002  0.1802268E+03  0.7546771E-02  0.1167584E+00
          1   -1    0    0  505    0 -0.00000000000E+00  0.00000000000E+00  0.29178700295E+04  0.29178700295E+04  0.00000000000E+00 0. -1.
         21   -1    0    0  503  502  0.00000000000E+00 -0.00000000000E+00 -0.18270152208E+03  0.18270152208E+03  0.00000000000E+00 0. -1.
         21    1    1    2  503  504 -0.11327845716E+03 -0.42980794474E+02 -0.10583940002E+03  0.16087677318E+03  0.00000000000E+00 0. -1.
         21    1    1    2  504  501 -0.56338728825E+02  0.45132426580E+01 -0.22427766363E+02  0.60806466999E+02  0.00000000000E+00 0.  1.
         21    1    1    2  505  502  0.17701241331E+02  0.76523268085E+02  0.28279184503E+03  0.29349680087E+03  0.00000000000E+00 0. -1.
          1    1    1    2  501    0  0.15191594466E+03 -0.38055716269E+02  0.25806438288E+04  0.25853915106E+04  0.00000000000E+00 0. -1.
<scales pt_clust_3="33.74640" pt_clust_4="33.74640" pt_clust_5="78.54390" pt_clust_6="173.32185"></scales>
<clustering>
<clus scale="   33.746">  3  4 -1 -1</clus>
<clus scale="   78.544">  1  5  2 -1</clus>
<clus scale="  173.322">  1  6  2 -1</clus>
<clus scale="  180.227">  2  3  1 -1</clus>
</clustering>
</event>
<event>
 6    0  0.1361744E+002  0.8081017E+02  0.7546771E-02  0.1326768E+00
         21   -1    0    0  503  502  0.00000000000E+00  0.00000000000E+00  0.94390506192E+02  0.94390506192E+02  0.00000000000E+00 0. -1.
         -2   -1    0    0    0  501 -0.00000000000E+00 -0.00000000000E+00 -0.11201366833E+04  0.11201366833E+04  0.00000000000E+00 0. -1.
         21    1    1    2  503  504  0.40462629369E+02 -0.44230543992E+02  0.62911954708E+02  0.86899248803E+02  0.00000000000E+00 0. -1.
         21    1    1    2  504  501  0.61013985868E+02 -0.17245730957E+01 -0.27818457078E+03  0.28480227534E+03  0.00000000000E+00 0. -1.
         21    1    1    2  505  502 -0.17347950050E+01  0.46133695493E+02 -0.27943246937E+02  0.53964362527E+02  0.00000000000E+00 0. -1.
         -2    1    1    2    0  505 -0.99741820232E+02 -0.17857840498E+00 -0.78253031412E+03  0.78886130283E+03  0.00000000000E+00 0. -1.
<scales pt_clust_3="38.90600" pt_clust_4="14000.00000" pt_clust_5="46.16630" pt_clust_6="80.81017"></scales>
<clustering>
<clus scale="   46.166">  1  5  2 -1</clus>
<clus scale="   38.906">  1  3  2 -1</clus>
<clus scale="   80.810">  2  6  1 -1</clus>
<clus scale="   46.166">  1  3  2 -1</clus>
</clustering>
</event>
<event>
 6    0  0.1361744E+002  0.1438080E+03  0.7546771E-02  0.1208295E+00
         21   -1    0    0  505  502  0.00000000000E+00  0.00000000000E+00  0.31063523753E+03  0.31063523753E+03  0.00000000000E+00 0. -1.
         -2   -1    0    0    0  501 -0.00000000000E+00 -0.00000000000E+00 -0.79619943175E+02  0.79619943175E+02  0.00000000000E+00 0.  1.
         21    1    1    2  503  501 -0.94255741755E+02 -0.19584087351E+02  0.12091751522E+03  0.15455978396E+03  0.00000000000E+00 0. -1.
         21    1    1    2  504  502  0.42663164581E+02  0.45422834637E+02  0.18000987940E+02  0.64864590382E+02  0.00000000000E+00 0. -1.
         21    1    1    2  505  503 -0.19006619315E+02 -0.41476771654E+02  0.87126994302E+02  0.98349821051E+02  0.00000000000E+00 0.  1.
         -2    1    1    2    0  504  0.70599196489E+02  0.15638024367E+02  0.49697968971E+01  0.72480985315E+02  0.00000000000E+00 0.  1.
<scales pt_clust_3="44.20917" pt_clust_4="39.15921" pt_clust_5="44.20917" pt_clust_6="135.41104"></scales>
<clustering>
<clus scale="   39.159">  4  6 -1 -1</clus>
<clus scale="   44.209">  3  5 -1 -1</clus>
<clus scale="  135.411">  2  4  1 -1</clus>
<clus scale="  143.808">  1  3  2 -1</clus>
</clustering>
</event>
<event>
 6    0  0.1361744E+002  0.1135390E+03  0.7546771E-02  0.1254153E+00
         21   -1    0    0  505  502  0.00000000000E+00  0.00000000000E+00  0.24340307701E+04  0.24340307701E+04  0.00000000000E+00 0.  1.
          2   -1    0    0  503    0 -0.00000000000E+00 -0.00000000000E+00 -0.23786999477E+03  0.23786999477E+03  0.00000000000E+00 0.  1.
         21    1    1    2  503  504  0.18504832906E+02 -0.34789377161E+02 -0.10998204424E+02  0.40910757811E+02  0.00000000000E+00 0.  1.
         21    1    1    2  504  502  0.42123052667E+02 -0.37141798202E+02  0.13455384834E+03  0.14580330189E+03  0.00000000000E+00 0.  1.
         21    1    1    2  505  501  0.25989179012E+02 -0.53297588744E+02  0.22503548973E+04  0.22511359874E+04  0.00000000000E+00 0.  1.
          2    1    1    2  501    0 -0.86617064584E+02  0.12522876411E+03 -0.17774976580E+03  0.23405071775E+03  0.00000000000E+00 0.  1.
<scales pt_clust_3="39.40469" pt_clust_4="57.13956" pt_clust_5="113.53898" pt_clust_6="14000.00000"></scales>
<clustering>
<clus scale="   39.405">  2  3  1 -1</clus>
<clus scale="   57.140">  1  4  2 -1</clus>
<clus scale="  113.539">  1  5  2 -1</clus>
<clus scale="   57.140">  1  3  2 -1</clus>
</clustering>
</event>
<event>
 6    0  0.1361744E+002  0.1303547E+03  0.7546771E-02  0.1226930E+00
          2   -1    0    0  503    0 -0.00000000000E+00  0.00000000000E+00  0.14532689030E+04  0.14532689030E+04  0.00000000000E+00 0.  1.
         21   -1    0    0  505  502  0.00000000000E+00 -0.00000000000E+00 -0.39670938331E+02  0.39670938331E+02  0.00000000000E+00 0.  1.
         21    1    1    2  503  502  0.36625576898E+02 -0.10472084939E+02  0.13794097066E+03  0.14310418873E+03  0.00000000000E+00 0.  1.
         21    1    1    2  504  501 -0.40173803185E+02  0.43821498981E+02  0.12672221988E+02  0.60785223907E+02  0.00000000000E+00 0.  1.
         21    1    1    2  505  504 -0.36417710137E+02  0.51474468912E+02  0.77715010615E+02  0.10007743720E+03  0.00000000000E+00 0. -1.
          2    1    1    2  501    0  0.39965936424E+02 -0.84823882954E+02  0.11852697614E+04  0.11889729914E+04  0.00000000000E+00 0.  1.
<scales pt_clust_3="38.09327" pt_clust_4="51.43403" pt_clust_5="51.43403" pt_clust_6="119.30203"></scales>
<clustering>
<clus scale="   38.093">  1  3  2 -1</clus>
<clus scale="   51.434">  4  5 -1 -1</clus>
<clus scale="  119.302">  1  6  2 -1</clus>
<clus scale="  130.355">  2  3  1 -1</clus>
</clustering>
</event>
<event>
 6    0  0.1361744E+002  0.1027398E+03  0.7546771E-02  0.1274638E+00
          1   -1    0    0  505    0 -0.00000000000E+00  0.00000000000E+00  0.81841701536E+03  0.81841701536E+03  0.00000000000E+00 0.  1.
         21   -1    0    0  503  502  0.00000000000E+00 -0.00000000000E+00 -0.16737486372E+03  0.16737486372E+03  0.00000000000E+00 0. -1.
         21    1    1    2  503  501 -0.34922538250E+02 -0.66826343343E+02  0.26544127127E+02  0.79937066042E+02  0.00000000000E+00 0.  1.
         21    1    1    2  504  502  0.60611904284E+02 -0.43825027954E+02 -0.10756318631E+03  0.13101249966E+03  0.00000000000E+00 0. -1.
         21    1    1    2  505  504  0.24508778569E+02 -0.61389858417E+02  0.11903712650E+03  0.13615884999E+03  0.00000000000E+00 0. -1.
          1    1    1    2  501    0 -0.50198144604E+02  0.17204122971E+03  0.61302408433E+03  0.63868346340E+03  0.00000000000E+00 0.  1.
<scales pt_clust_3="14000.00000" pt_clust_4="75.74591" pt_clust_5="66.10140" pt_clust_6="102.73981"></scales>
<clustering>
<clus scale="   66.101">  1  5  2 -1</clus>
<clus scale="   75.746">  2  4  1 -1</clus>
<clus scale="  102.740">  1  6  2 -1</clus>
<clus scale="   75.746">  2  3  1 -1</clus>
</clustering>
</event>
<event>
 6    0  0.1361744E+002  0.1903439E+03  0.7546771E-02  0.1158152E+00
          4   -1    0    0  503    0 -0.00000000000E+00  0.00000000000E+00  0.29401025661E+03  0.29401025661E+03  0.00000000000E+00 0. -1.
         21   -1    0    0  505  502  0.00000000000E+00 -0.00000000000E+00 -0.15812229705E+03  0.15812229705E+03  0.00000000000E+00 0. -1.
         21    1    1    2  503  502  0.50362596746E+02 -0.16170097831E+03  0.32457620088E+02  0.17244446828E+03  0.00000000000E+00 0. -1.
         21    1    1    2  504  501  0.12591344528E+02  0.89151069180E+02  0.37050793031E+02  0.97361267232E+02  0.00000000000E+00 0. -1.
         21    1    1    2  505  504 -0.24783398875E+02 -0.26505227867E+02 -0.23500493238E+02  0.43232130950E+02  0.00000000000E+00 0.  1.
          4    1    1    2  501    0 -0.38170542400E+02  0.99055137000E+02  0.89880039678E+02  0.13909468719E+03  0.00000000000E+00 0. -1.
<scales pt_clust_3="180.29614" pt_clust_4="54.72105" pt_clust_5="36.28697" pt_clust_6="54.72105"></scales>
<clustering>
<clus scale="   36.287">  2  5  1 -1</clus>
<clus scale="   54.721">  4  6 -1 -1</clus>
<clus scale="  180.296">  2  3  1 -1</clus>
<clus scale="   36.287">  2  3  1 -1</clus>
</clustering>
</event>
<event>
 6    0  0.1361744E+002  0.1488770E+03  0.7546771E-02  0.1201860E+00
          2   -1    0    0  503    0 -0.00000000000E+00  0.00000000000E+00  0.19597058279E+04  0.19597058279E+04  0.00000000000E+00 0. -1.
         21   -1    0    0  505  502  0.00000000000E+00 -0.00000000000E+00 -0.37920884663E+02  0.37920884663E+02  0.00000000000E+00 0. -1.
         21    1    1    2  503  504  0.89264292814E+02  0.29921650564E+01  0.42052816981E+02  0.98719331639E+02  0.00000000000E+00 0. -1.
         21    1    1    2  504  502  0.54658934531E+02  0.28632548027E+01  0.11411777765E+03  0.12656486293E+03  0.00000000000E+00 0. -1.
         21    1    1    2  505  501 -0.55643953138E+02 -0.10426299763E+02  0.41573139018E+03  0.41956828530E+03  0.00000000000E+00 0.  1.
          2    1    1    2  501    0 -0.88279274207E+02  0.45708799037E+01  0.13498829584E+04  0.13527742327E+04  0.00000000000E+00 0. -1.
<scales pt_clust_3="138.23372" pt_clust_4="54.73388" pt_clust_5="44.23819" pt_clust_6="44.23819"></scales>
<clustering>
<clus scale="   44.238">  5  6 -1 -1</clus>
<clus scale="   54.734">  2  4  1 -1</clus>
<clus scale="  138.234">  2  3  1 -1</clus>
<clus scale="   54.734">  2  3  1 -1</clus>
</clustering>
</event>
<event>
 6    0  0.1361744E+002  0.1156405E+03  0.7546771E-02  0.1250467E+00
         21   -1    0    0  503  502  0.00000000000E+00  0.00000000000E+00  0.54725757560E+02  0.54725757560E+02  0.00000000000E+00 0.  1.
          2   -1    0    0  505    0 -0.00000000000E+00 -0.00000000000E+00 -0.23767019514E+04  0.23767019514E+04  0.00000000000E+00 0.  1.
         21    1    1    2  503  504  0.58929161566E+02  0.20808082810E+02 -0.94082783991E+01  0.63199193789E+02  0.00000000000E+00 0.  1.
         21    1    1    2  504  501  0.24306327654E+02  0.47707788294E+02 -0.43719262854E+01  0.53720986284E+02  0.00000000000E+00 0.  1.
         21    1    1    2  505  502  0.10295284232E+02 -0.39018741316E+02 -0.19993950586E+03  0.20397122605E+03  0.00000000000E+00 0. -1.
          2    1    1    2  501    0 -0.93530773452E+02 -0.29497129789E+02 -0.21082564833E+04  0.21105363028E+04  0.00000000000E+00 0.  1.
<scales pt_clust_3="39.89650" pt_clust_4="39.89650" pt_clust_5="40.35412" pt_clust_6="107.30738"></scales>
<clustering>
<clus scale="   39.897">  3  4 -1 -1</clus>
<clus scale="   40.354">  2  5  1 -1</clus>
<clus scale="  107.307">  2  6  1 -1</clus>
<clus scale="  115.641">  1  3  2 -1</clus>
</clustering>
</event>
<event>
 6    0  0.1361744E+002  0.6824177E+02  0.7546771E-02  0.1366176E+00
          2   -1    0    0  505    0 -0.00000000000E+00  0.00000000000E+00  0.24749807187E+04  0.24749807187E+04  0.00000000000E+00 0.  1.
         21   -1    0    0  504  502  0.00000000000E+00 -0.00000000000E+00 -0.82663970614E+03  0.82663970614E+03  0.00000000000E+00 0.  1.
         21    1    1    2  503  501  0.50783138794E+02 -0.68949447829E+02  0.64228503353E+03  0.64796837719E+03  0.00000000000E+00 0.  1.
         21    1    1    2  504  503 -0.87953921703E+02 -0.13393398996E+02 -0.79760851232E+03  0.80255505382E+03  0.00000000000E+00 0.  1.
         21    1    1    2  505  502  0.20981707206E+02  0.26682357136E+02 -0.10866200427E+02  0.35640630344E+02  0.00000000000E+00 0. -1.
          2    1    1    2  501    0  0.16189075703E+02  0.55660489689E+02  0.18145306918E+04  0.18154563635E+04  0.00000000000E+00 0.  1.
<scales pt_clust_3="68.24177" pt_clust_4="14000.00000" pt_clust_5="33.94378" pt_clust_6="57.98516"></scales>
<clustering>
<clus scale="   33.944">  2  5  1 -1</clus>
<clus scale="   57.985">  1  6  2 -1</clus>
<clus scale="   68.242">  1  3  2 -1</clus>
<clus scale="   33.944">  2  3  1 -1</clus>
</clustering>
</event>
<event>
 6    0  0.1361744E+002  0.1824784E+03  0.7546771E-02  0.1165426E+00
         21   -1    0    0  501  502  0.00000000000E+00  0.00000000000E+00  0.10380926159E+03  0.10380926159E+03  0.00000000000E+00 0. -1.
          2   -1    0    0  504    0 -0.00000000000E+00 -0.00000000000E+00 -0.71957786798E+03  0.71957786798E+03  0.00000000000E+00 0.  1.
         21    1    1    2  503  505  0.24988345484E+02  0.36966640471E+02 -0.55973113329E+01  0.44969765531E+02  0.00000000000E+00 0. -1.
         21    1    1    2  504  503  0.16347097148E+01  0.58504288286E+02 -0.27001697789E+03  0.27628715564E+03  0.00000000000E+00 0.  1.
         21    1    1    2  505  502 -0.15953495980E+02  0.12269186234E+03 -0.38259306057E+02  0.12950514128E+03  0.00000000000E+00 0. -1.
          2    1    1    2  501    0 -0.10669559218E+02 -0.21816279109E+03 -0.30189501111E+03  0.37262506712E+03  0.00000000000E+00 0.  1.
<scales pt_clust_3="32.59309" pt_clust_4="58.52712" pt_clust_5="32.59309" pt_clust_6="174.22037"></scales>
<clustering>
<clus scale="   32.593">  3  5 -1 -1</clus>
<clus scale="   58.527">  2  4  1 -1</clus>
<clus scale="  174.220">  2  6  1 -1</clus>
<clus scale="  182.478">  1  3  2 -1</clus>
</clustering>
</event>
<event>
 6    0  0.1361744E+002  0.1620300E+03  0.7546771E-02  0.1186424E+00
         21   -1    0    0  504  502  0.00000000000E+00  0.00000000000E+00  0.17451192401E+02  0.17451192401E+02  0.00000000000E+00 0.  1.
          1   -1    0    0  503    0 -0.00000000000E+00 -0.00000000000E+00 -0.24576947108E+04  0.24576947108E+04  0.00000000000E+00 0. -1.
         21    1    1    2  503  505  0.11958728117E+03 -0.38150419395E+02 -0.67167941498E+03  0.68330798973E+03  0.00000000000E+00 0.  1.
         21    1    1    2  504  501 -0.10203703905E+03  0.20931726446E+02 -0.72589488512E+03  0.73333012944E+03  0.00000000000E+00 0. -1.
         21    1    1    2  505  502  0.44949992045E+02  0.14484816967E+02 -0.73775336643E+02  0.87596301316E+02  0.00000000000E+00 0.  1.
          1    1    1    2  501    0 -0.62500234160E+02  0.27338759818E+01 -0.96889388165E+03  0.97091148271E+03  0.00000000000E+00 0. -1.
<scales pt_clust_3="147.49838" pt_clust_4="53.98918" pt_clust_5="47.22618" pt_clust_6="53.98918"></scales>
<clustering>
<clus scale="   47.226">  1  5  2 -1</clus>
<clus scale="   53.989">  4  6 -1 -1</clus>
<clus scale="  147.498">  1  3  2 -1</clus>
<clus scale="   47.226">  1  3  2 -1</clus>
</clustering>
</event>
<event>
 6    0  0.1361744E+002  0.1781543E+03  0.7546771E-02  0.1169601E+00
          2   -1    0    0  503    0 -0.00000000000E+00  0.00000000000E+00  0.93743949346E+03  0.93743949346E+03  0.00000000000E+00 0. -1.
         21   -1    0    0  504  502  0.00000000000E+00 -0.00000000000E+00 -0.37754589305E+02  0.37754589305E+02  0.00000000000E+00 0. -1.
         21    1    1    2  503  505  0.19265552190E+02 -0.45337857757E+02  0.12902570810E+03  0.13810979761E+03  0.00000000000E+00 0. -1.
         21    1    1    2  504  501 -0.49061195798E-01  0.90306015014E+02  0.39857721051E+03  0.40867954621E+03  0.00000000000E+00 0. -1.
         21    1    1    2  505  502 -0.45470371583E+01 -0.12098478777E+03  0.14733831002E+03  0.19070021504E+03  0.00000000000E+00 0. -1.
          2    1    1    2  501    0 -0.14669453836E+02  0.76016630511E+02  0.22474367553E+03  0.23770452390E+03  0.00000000000E+00 0. -1.
<scales pt_clust_3="39.62575" pt_clust_4="34.68843" pt_clust_5="39.62575" pt_clust_6="171.12405"></scales>
<clustering>
<clus scale="   34.688">  4  6 -1 -1</clus>
<clus scale="   39.626">  3  5 -1 -1</clus>
<clus scale="  171.124">  1  4  2 -1</clus>
<clus scale="  178.154">  2  3  1 -1</clus>
</clustering>
</event>
<event>
 6    0  0.1361744E+002  0.1319893E+03  0.7546771E-02  0.1224533E+00
         -1   -1    0    0    0  501 -0.00000000000E+00  0.00000000000E+00  0.80685366445E+03  0.80685366445E+03  0.00000000000E+00 0. -1.
         21   -1    0    0  503  502  0.00000000000E+00 -0.00000000000E+00 -0.42289154605E+03  0.42289154605E+03  0.00000000000E+00 0.  1.
         21    1    1    2  503  504  0.72097263825E+02 -0.66104731132E+02 -0.33561085510E+03  0.34957473735E+03  0.00000000000E+00 0.  1.
         21    1    1    2  504  501 -0.33812338914E+02  0.16288239388E+03  0.22246299324E+03  0.27778360617E+03  0.00000000000E+00 0.  1.
         21    1    1    2  505  502 -0.21750977943E+02  0.27012152737E+02 -0.38844621975E+02  0.52073660264E+02  0.00000000000E+00 0.  1.
         -1    1    1    2    0  505 -0.16533946969E+02 -0.12378981548E+03  0.53595460224E+03  0.55031320671E+03  0.00000000000E+00 0. -1.
<scales pt_clust_3="66.86061" pt_clust_4="14000.00000" pt_clust_5="34.68085" pt_clust_6="131.98930"></scales>
<clustering>
<clus scale="   34.681">  2  5  1 -1</clus>
<clus scale="   66.861">  2  3  1 -1</clus>
<clus scale="  131.989">  1  6  2 -1</clus>
<clus scale="   34.681">  2  3  1 -1</clus>
</clustering>
</event>
<event>
 6    0  0.1361744E+002  0.1926287E+03  0.7546771E-02  0.1156112E+00
          2   -1    0    0  502    0 -0.00000000000E+00  0.00000000000E+00  0.86270728458E+03  0.86270728458E+03  0.00000000000E+00 0.  1.
         21   -1    0    0  504  502  0.00000000000E+00 -0.00000000000E+00 -0.11051185862E+03  0.11051185862E+03  0.00000000000E+00 0. -1.
         21    1    1    2  503  501 -0.64139378898E+02  0.52985828353E+02  0.24600116988E+03  0.25968814666E+03  0.00000000000E+00 0. -1.
         21    1    1    2  504  505  0.21919811268E+01 -0.40851428362E+02  0.18513661875E+01  0.40952063895E+02  0.00000000000E+00 0. -1.
         21    1    1    2  505  503  0.12849285162E+03 -0.80394066976E+02 -0.76726451067E+01  0.15176458218E+03  0.00000000000E+00 0. -1.
          2    1    1    2  501    0 -0.66545453847E+02  0.68259666986E+02  0.51201553500E+03  0.52081435046E+03  0.00000000000E+00 0.  1.
<scales pt_clust_3="49.57213" pt_clust_4="37.91775" pt_clust_5="37.91775" pt_clust_6="185.99684"></scales>
<clustering>
<clus scale="   37.918">  4  5 -1 -1</clus>
<clus scale="   49.572">  3  6 -1 -1</clus>
<clus scale="  185.997">  1  3  2 -1</clus>
<clus scale="  192.629">  2  3  1 -1</clus>
</clustering>
</event>
<event>
 6    0  0.1361744E+002  0.2174714E+03  0.7546771E-02  0.1135782E+00
         21   -1    0    0  501  502  0.00000000000E+00  0.00000000000E+00  0.88987102458E+03  0.88987102458E+03  0.00000000000E+00 0.  1.
          1   -1    0    0  503    0 -0.00000000000E+00 -0.00000000000E+00 -0.16843813518E+03  0.16843813518E+03  0.00000000000E+00 0. -1.
         21    1    1    2  503  504 -0.17641361138E+02  0.13516063960E+03 -0.80413427306E+02  0.15825907687E+03  0.00000000000E+00 0. -1.
         21    1    1    2  504  505  0.30812621738E+02 -0.39842793779E+02  0.10298193078E+03  0.11463919025E+03  0.00000000000E+00 0.  1.
         21    1    1    2  505  502  0.50483277393E+02 -0.16178620737E+03  0.66672453137E+03  0.68792800417E+03  0.00000000000E+00 0.  1.
          1    1    1    2  501    0 -0.63654537992E+02  0.66468361552E+02  0.32139854550E+02  0.97482888472E+02  0.00000000000E+00 0. -1.
<scales pt_clust_3="207.10149" pt_clust_4="36.17258" pt_clust_5="36.17258" pt_clust_6="92.03229"></scales>
<clustering>
<clus scale="   36.173">  4  5 -1 -1</clus>
<clus scale="   92.032">  2  6  1 -1</clus>
<clus scale="  207.101">  2  3  1 -1</clus>
<clus scale="  217.471">  1  3  2 -1</clus>
</clustering>
</event>
<event>
 6    0  0.1361744E+002  0.1093776E+03  0.7546771E-02  0.1261727E+00
         -2   -1    0    0    0  501 -0.00000000000E+00  0.00000000000E+00  0.40593075317E+03  0.40593075317E+03  0.00000000000E+00 0. -1.
         21   -1    0    0  503  502  0.00000000000E+00 -0.00000000000E+00 -0.38638271475E+03  0.38638271475E+03  0.00000000000E+00 0.  1.
         21    1    1    2  503  501  0.11304330185E+03  0.46696063982E+02  0.61675566572E+02  0.13697877937E+03  0.00000000000E+00 0.  1.
         21    1    1    2  504  505 -0.46834118116E+02 -0.47566510547E+02 -0.29320249246E+02  0.72908741322E+02  0.00000000000E+00 0.  1.
         21    1    1    2  505  502  0.33274805053E+02  0.37417942978E+02 -0.28550177943E+03  0.28985958871E+03  0.00000000000E+00 0.  1.
         -2    1    1    2    0  504 -0.99483988791E+02 -0.36547496413E+02  0.27269450052E+03  0.29256635851E+03  0.00000000000E+00 0. -1.
<scales pt_clust_3="14000.00000" pt_clust_4="40.87677" pt_clust_5="50.07310" pt_clust_6="109.37764"></scales>
<clustering>
<clus scale="   50.073">  2  5  1 -1</clus>
<clus scale="   40.877">  2  4  1 -1</clus>
<clus scale="  109.378">  1  6  2 -1</clus>
<clus scale="   50.073">  2  3  1 -1</clus>
</clustering>
</event>
<event>
 6    0  0.1361744E+002  0.1298615E+03  0.7546771E-02  0.1227661E+00
         21   -1    0    0  503  502  0.00000000000E+00  0.00000000000E+00  0.57976162925E+03  0.57976162925E+03  0.00000000000E+00 0. -1.
          4   -1    0    0  504    0 -0.00000000000E+00 -0.00000000000E+00 -0.13108194409E+03  0.13108194409E+03  0.00000000000E+00 0.  1.
         21    1    1    2  503  501 -0.84162259357E+02 -0.63832882960E+01 -0.34834486901E+02  0.91309768082E+02  0.00000000000E+00 0. -1.
         21    1    1    2  504  505  0.49549333948E+02 -0.60326741590E+02  0.22881769688E+03  0.24176846496E+03  0.00000000000E+00 0. -1.
         21    1    1    2  505  502  0.51182699462E+02 -0.15607028497E+02  0.28387330615E+03  0.28887246669E+03  0.00000000000E+00 0. -1.
          4    1    1    2  501    0 -0.16569774054E+02  0.82317058384E+02 -0.29176830975E+02  0.88892873611E+02  0.00000000000E+00 0.  1.
<scales pt_clust_3="118.52912" pt_clust_4="43.92472" pt_clust_5="43.92472" pt_clust_6="83.96818"></scales>
<clustering>
<clus scale="   43.925">  4  5 -1 -1</clus>
<clus scale="   83.968">  2  6  1 -1</clus>
<clus scale="  118.529">  2  3  1 -1</clus>
<clus scale="  129.861">  1  3  2 -1</clus>
</clustering>
</event>
<event>
 6    0  0.1361744E+002  0.1440784E+03  0.7546771E-02  0.1207944E+00
          2   -1    0    0  503    0 -0.00000000000E+00  0.00000000000E+00  0.13028351093E+04  0.13028351093E+04  0.00000000000E+00 0.  1.
         21   -1    0    0  504  502  0.00000000000E+00 -0.00000000000E+00 -0.21698127658E+03  0.21698127658E+03  0.00000000000E+00 0. -1.
         21    1    1    2  503  502 -0.60536524128E+02  0.49230980228E+02  0.78874849893E+02  0.11094864629E+03  0.00000000000E+00 0.  1.
         21    1    1    2  504  505  0.11099010965E+03  0.30915250356E+01 -0.11728443844E+03  0.16150542241E+03  0.00000000000E+00 0. -1.
         21    1    1    2  505  501  0.12963866883E+02  0.83029905845E+02 -0.25581172994E+02  0.87843175722E+02  0.00000000000E+00 0. -1.
          2    1    1    2  501    0 -0.63417452406E+02 -0.13535241111E+03  0.11498445942E+04  0.11595191414E+04  0.00000000000E+00 0.  1.
<scales pt_clust_3="78.02794" pt_clust_4="78.40591" pt_clust_5="14000.00000" pt_clust_6="144.07839"></scales>
<clustering>
<clus scale="   78.028">  2  3  1 -1</clus>
<clus scale="   78.406">  2  4  1 -1</clus>
<clus scale="  144.078">  1  6  2 -1</clus>
<clus scale="   78.028">  2  3  1 -1</clus>
</clustering>
</event>
<event>
 6    0  0.1361744E+002  0.9387120E+02  0.7546771E-02  0.1293739E+00
          2   -1    0    0  502    0 -0.00000000000E+00  0.00000000000E+00  0.25325341710E+03  0.25325341710E+03  0.00000000000E+00 0.  1.
         21   -1    0    0  504  502  0.00000000000E+00 -0.00000000000E+00 -0.24897707100E+03  0.24897707100E+03  0.00000000000E+00 0.  1.
         21    1    1    2  503  505 -0.69280320226E+02 -0.33381146670E+02 -0.10456212564E+03  0.12979715652E+03  0.00000000000E+00 0.  1.
         21    1    1    2  504  503  0.35970824089E+02 -0.53482096041E+02 -0.53724231305E+02  0.83907853101E+02  0.00000000000E+00 0.  1.
         21    1    1    2  505  501  0.14929304837E+02  0.14684302785E+03  0.43382943843E+02  0.15384355296E+03  0.00000000000E+00 0.  1.
          2    1    1    2  501    0  0.18380191299E+02 -0.59979785137E+02  0.11917975920E+03  0.13468192552E+03  0.00000000000E+00 0.  1.
<scales pt_clust_3="93.87120" pt_clust_4="71.65798" pt_clust_5="14000.00000" pt_clust_6="62.73281"></scales>
<clustering>
<clus scale="   62.733">  1  6  2 -1</clus>
<clus scale="   71.658">  2  4  1 -1</clus>
<clus scale="   93.871">  2  3  1 -1</clus>
<clus scale="   71.658">  2  3  1 -1</clus>
</clustering>
</event>
<event>
 6    0  0.1361744E+002  0.8424233E+02  0.7546771E-02  0.1317426E+00
         21   -1    0    0  504  502  0.00000000000E+00  0.00000000000E+00  0.64888288333E+02  0.64888288333E+02  0.00000000000E+00 0.  1.
          2   -1    0    0  505    0 -0.00000000000E+00 -0.00000000000E+00 -0.21708762772E+04  0.21708762772E+04  0.00000000000E+00 0.  1.
         21    1    1    2  503  502  0.46669745245E+02 -0.17545658772E+02 -0.11390005285E+02  0.51143401171E+02  0.00000000000E+00 0. -1.
         21    1    1    2  504  501 -0.84500643798E+02 -0.54602187487E+02 -0.21136623784E+02  0.10280328081E+03  0.00000000000E+00 0.  1.
         21    1    1    2  505  503 -0.47364194661E+01 -0.49860516581E+02 -0.35654686247E+03  0.36004745510E+03  0.00000000000E+00 0. -1.
          2    1    1    2  501    0  0.42567318019E+02  0.12200836284E+03 -0.17169144974E+04  0.17217704285E+04  0.00000000000E+00 0.  1.
<scales pt_clust_3="49.85895" pt_clust_4="84.24233" pt_clust_5="50.62716" pt_clust_6="14000.00000"></scales>
<clustering>
<clus scale="   49.859">  1  3  2 -1</clus>
<clus scale="   50.627">  2  5  1 -1</clus>
<clus scale="   84.242">  1  4  2 -1</clus>
<clus scale="   49.859">  1  3  2 -1</clus>
</clustering>
</event>
<event>
 6    0  0.1361744E+002  0.1067236E+03  0.7546771E-02  0.1266760E+00
          2   -1    0    0  505    0 -0.00000000000E+00  0.00000000000E+00  0.99818403335E+03  0.99818403335E+03  0.00000000000E+00 0.  1.
         21   -1    0    0  501  502  0.00000000000E+00 -0.00000000000E+00 -0.42458311018E+02  0.42458311018E+02  0.00000000000E+00 0.  1.
         21    1    1    2  503  502 -0.21403502137E+02 -0.25610442081E+02 -0.14107572896E+02  0.36235731817E+02  0.00000000000E+00 0.  1.
         21    1    1    2  504  503 -0.76729355591E+02 -0.50687566303E+02  0.19263357268E+03  0.21345799753E+03  0.00000000000E+00 0.  1.
         21    1    1    2  505  504  0.29405189028E+02 -0.13746593383E+02  0.21662473801E+03  0.21904317174E+03  0.00000000000E+00 0.  1.
          2    1    1    2  501    0  0.68727668700E+02  0.90044601767E+02  0.56057498454E+03  0.57190544328E+03  0.00000000000E+00 0.  1.
<scales pt_clust_3="33.26188" pt_clust_4="14000.00000" pt_clust_5="32.45973" pt_clust_6="106.72358"></scales>
<clustering>
<clus scale="   32.460">  1  5  2 -1</clus>
<clus scale="   33.262">  2  3  1 -1</clus>
<clus scale="  106.724">  1  6  2 -1</clus>
<clus scale="   33.262">  2  3  1 -1</clus>
</clustering>
</event>
<event>
 6    0  0.1361744E+002  0.1007134E+03  0.7546771E-02  0.1278803E+00
          2   -1    0    0  504    0 -0.00000000000E+00  0.00000000000E+00  0.18517503169E+04  0.18517503169E+04  0.00000000000E+00 0.  1.
         21   -1    0    0  503  502  0.00000000000E+00 -0.00000000000E+00 -0.56777341059E+02  0.56777341059E+02  0.00000000000E+00 0. -1.
         21    1    1    2  503  501  0.35671068872E+02  0.16489020066E+02 -0.19777453240E+02  0.43993869958E+02  0.00000000000E+00 0. -1.
         21    1    1    2  504  505  0.56817401314E+01  0.44437080126E+02  0.30440501232E+03  0.30768384388E+03  0.00000000000E+00 0. -1.
         21    1    1    2  505  502  0.11092288145E+02  0.75219919436E+02  0.54104509089E+02  0.93318663942E+02  0.00000000000E+00 0. -1.
          2    1    1    2  501    0 -0.52445097149E+02 -0.13614601963E+03  0.14562409077E+04  0.14635312802E+04  0.00000000000E+00 0.  1.
<scales pt_clust_3="39.29775" pt_clust_4="46.22607" pt_clust_5="14000.00000" pt_clust_6="100.71341"></scales>
<clustering>
<clus scale="   39.298">  2  3  1 -1</clus>
<clus scale="   46.226">  1  4  2 -1</clus>
<clus scale="  100.713">  1  6  2 -1</clus>
<clus scale="   39.298">  2  3  1 -1</clus>
</clustering>
</event>
<event>
 6    0  0.1361744E+002  0.1696452E+03  0.7546771E-02  0.1178218E+00
         -3   -1    0    0    0  501 -0.00000000000E+00  0.00000000000E+00  0.66145972441E+03  0.66145972441E+03  0.00000000000E+00 0.  1.
         21   -1    0    0  503  502  0.00000000000E+00 -0.00000000000E+00 -0.17618732733E+03  0.17618732733E+03  0.00000000000E+00 0.  1.
         21    1    1    2  503  504  0.25947362213E+02  0.37098008777E+02 -0.75213236403E+02  0.87787008100E+02  0.00000000000E+00 0. -1.
         21    1    1    2  504  505  0.66158711329E+02 -0.25546165888E+02 -0.73778087129E+01  0.71302270214E+02  0.00000000000E+00 0.  1.
         21    1    1    2  505  501 -0.40199085555E+02 -0.17601597839E+03  0.18426989541E+03  0.25797865315E+03  0.00000000000E+00 0.  1.
         -3    1    1    2    0  502 -0.51906987986E+02  0.16446413550E+03  0.38359354679E+03  0.42057912027E+03  0.00000000000E+00 0.  1.
<scales pt_clust_3="45.27171" pt_clust_4="77.60354" pt_clust_5="169.64521" pt_clust_6="14000.00000"></scales>
<clustering>
<clus scale="   45.272">  2  3  1 -1</clus>
<clus scale="   77.604">  2  4  1 -1</clus>
<clus scale="  169.645">  2  5  1 -1</clus>
<clus scale="   45.272">  2  3  1 -1</clus>
</clustering>
</event>
<event>
 6    0  0.1361744E+002  0.1256605E+03  0.7546771E-02  0.1234041E+00
         -3   -1    0    0    0  501 -0.00000000000E+00  0.00000000000E+00  0.57275970975E+03  0.57275970975E+03  0.00000000000E+00 0.  1.
         21   -1    0    0  505  502  0.00000000000E+00 -0.00000000000E+00 -0.12978609685E+03  0.12978609685E+03  0.00000000000E+00 0.  1.
         21    1    1    2  503  504  0.95255287688E+02  0.42275221127E+02 -0.24473058563E+02  0.10704996380E+03  0.00000000000E+00 0.  1.
         21    1    1    2  504  501 -0.33438806447E+01 -0.86819309599E+02  0.26557510295E+03  0.27942603559E+03  0.00000000000E+00 0.  1.
         21    1    1    2  505  503  0.55261825908E+01  0.83321775094E+02 -0.55035566951E+01  0.83685996649E+02  0.00000000000E+00 0.  1.
         -3    1    1    2    0  502 -0.97437589634E+02 -0.38777686623E+02  0.20737512521E+03  0.23238381056E+03  0.00000000000E+00 0.  1.
<scales pt_clust_3="14000.00000" pt_clust_4="80.09815" pt_clust_5="83.50483" pt_clust_6="125.66054"></scales>
<clustering>
<clus scale="   83.505">  2  5  1 -1</clus>
<clus scale="   80.098">  1  4  2 -1</clus>
<clus scale="  125.661">  1  6  2 -1</clus>
<clus scale="   83.505">  2  3  1 -1</clus>
</clustering>
</event>
<event>
 6    0  0.1361744E+002  0.1508548E+03  0.7546771E-02  0.1199427E+00
         21   -1    0    0  505  502  0.00000000000E+00  0.00000000000E+00  0.75183717912E+03  0.75183717912E+03  0.00000000000E+00 0.  1.
          1   -1    0    0  504    0 -0.00000000000E+00 -0.00000000000E+00 -0.37106379286E+03  0.37106379286E+03  0.00000000000E+00 0.  1.
         21    1    1    2  503  502  0.13348417597E+02 -0.57312431654E+02  0.19516397929E+03  0.20384276756E+03  0.00000000000E+00 0.  1.
         21    1    1    2  504  503 -0.32526988119E+02  0.14785060737E+01 -0.13844214113E+03  0.14221960967E+03  0.00000000000E+00 0. -1.
         21    1    1    2  505  501 -0.15071827269E+03 -0.14717531456E+01  0.50205039292E+03  0.52418771525E+03  0.00000000000E+00 0.  1.
          1    1    1    2  501    0  0.16989684322E+03  0.57305678726E+02 -0.17799884483E+03  0.25265087949E+03  0.00000000000E+00 0.  1.
<scales pt_clust_3="58.68348" pt_clust_4="32.56057" pt_clust_5="150.85483" pt_clust_6="14000.00000"></scales>
<clustering>
<clus scale="   32.561">  2  4  1 -1</clus>
<clus scale="   58.683">  1  3  2 -1</clus>
<clus scale="  150.855">  1  5  2 -1</clus>
<clus scale="   58.683">  1  3  2 -1</clus>
</clustering>
</event>
<event>
 6    0  0.1361744E+002  0.1497479E+03  0.7546771E-02  0.1200783E+00
         21   -1    0    0  503  502  0.00000000000E+00  0.00000000000E+00  0.34521900248E+03  0.34521900248E+03  0.00000000000E+00 0.  1.
          2   -1    0    0  505    0 -0.00000000000E+00 -0.00000000000E+00 -0.14650263218E+04  0.14650263218E+04  0.00000000000E+00 0.  1.
         21    1    1    2  503  501  0.97429096724E+02  0.11564412022E+03 -0.26052683835E+03  0.30123118187E+03  0.00000000000E+00 0. -1.
         21    1    1    2  504  502  0.29414763291E+02 -0.25493562372E+02  0.31493093399E+03  0.31732734393E+03  0.00000000000E+00 0.  1.
         21    1    1    2  505  504 -0.31550924906E+02  0.96894439829E+01 -0.56096363213E+02  0.65085698528E+02  0.00000000000E+00 0.  1.
          2    1    1    2  501    0 -0.95292935109E+02 -0.99840001833E+02 -0.11181150517E+04  0.11266010999E+04  0.00000000000E+00 0.  1.
<scales pt_clust_3="14000.00000" pt_clust_4="38.89917" pt_clust_5="33.00524" pt_clust_6="149.74787"></scales>
<clustering>
<clus scale="   33.005">  2  5  1 -1</clus>
<clus scale="   38.899">  1  4  2 -1</clus>
<clus scale="  149.748">  2  6  1 -1</clus>
<clus scale="   38.899">  1  3  2 -1</clus>
</clustering>
</event>
<event>
 6    0  0.1361744E+002  0.1365270E+03  0.7546771E-02  0.1218080E+00
         21   -1    0    0  501  502  0.00000000000E+00  0.00000000000E+00  0.12151531953E+04  0.12151531953E+04  0.00000000000E+00 0.  1.
          1   -1    0    0  503    0 -0.00000000000E+00 -0.00000000000E+00 -0.44149092557E+03  0.44149092557E+03  0.00000000000E+00 0.  1.
         21    1    1    2  503  504 -0.61712380285E+02  0.16939438819E+02 -0.43036974352E+02  0.77120319173E+02  0.00000000000E+00 0. -1.
         21    1    1    2  504  505  0.80848889477E+02  0.33791921479E+01  0.99045032537E+03  0.99375037555E+03  0.00000000000E+00 0.  1.
         21    1    1    2  505  502  0.57142700823E+02  0.15489985904E+02  0.19692885746E+03  0.20563609319E+03  0.00000000000E+00 0. -1.
          1    1    1    2  501    0 -0.76279210015E+02 -0.35808616871E+02 -0.37067993875E+03  0.38013733297E+03  0.00000000000E+00 0.  1.
<scales pt_clust_3="63.13973" pt_clust_4="136.52701" pt_clust_5="59.20497" pt_clust_6="14000.00000"></scales>
<clustering>
<clus scale="   59.205">  1  5  2 -1</clus>
<clus scale="   63.140">  2  3  1 -1</clus>
<clus scale="  136.527">  1  4  2 -1</clus>
<clus scale="   59.205">  1  3  2 -1</clus>
</clustering>
</event>
<event>
 6    0  0.1361744E+002  0.3227569E+03  0.7546771E-02  0.1074387E+00
         21   -1    0    0  503  502  0.00000000000E+00  0.00000000000E+00  0.40224124141E+03  0.40224124141E+03  0.00000000000E+00 0. -1.
          2   -1    0    0  504    0 -0.00000000000E+00 -0.00000000000E+00 -0.16162589539E+04  0.16162589539E+04  0.00000000000E+00 0.  1.
         21    1    1    2  503  505 -0.30207697176E+02 -0.21542412500E+01 -0.28483012412E+00  0.30285753289E+02  0.00000000000E+00 0. -1.
         21    1    1    2  504  502 -0.28063341605E+03 -0.66749807469E+02  0.31406104398E+03  0.42643286733E+03  0.00000000000E+00 0. -1.
         21    1    1    2  505  501  0.14896458953E+03  0.38664201951E+02 -0.59611277681E+03  0.61565884394E+03  0.00000000000E+00 0.  1.
          2    1    1    2  501    0  0.16187652369E+03  0.30239846768E+02 -0.93168114952E+03  0.94612273074E+03  0.00000000000E+00 0.  1.
<scales pt_clust_3="30.28441" pt_clust_4="317.07187" pt_clust_5="58.26126" pt_clust_6="58.26126"></scales>
<clustering>
<clus scale="   30.284">  1  3  2 -1</clus>
<clus scale="   58.261">  5  6 -1 -1</clus>
<clus scale="  317.072">  1  4  2 -1</clus>
<clus scale="   30.284">  1  3  2 -1</clus>
</clustering>
</event>
<event>
 6    0  0.1361744E+002  0.8414192E+02  0.7546771E-02  0.1317692E+00
          2   -1    0    0  503    0 -0.00000000000E+00  0.00000000000E+00  0.19388818383E+03  0.19388818383E+03  0.00000000000E+00 0.  1.
         21   -1    0    0  504  502  0.00000000000E+00 -0.00000000000E+00 -0.50854119130E+03  0.50854119130E+03  0.00000000000E+00 0. -1.
         21    1    1    2  503  505 -0.31168073735E+02 -0.79351384828E+02  0.86151631893E+02  0.12120311371E+03  0.00000000000E+00 0.  1.
         21    1    1    2  504  501  0.19668455833E+02  0.26407918681E+02 -0.21688130484E+03  0.21936664905E+03  0.00000000000E+00 0. -1.
         21    1    1    2  505  502 -0.54589272022E+02 -0.54062266819E+01 -0.24728155578E+03  0.25329307874E+03  0.00000000000E+00 0. -1.
          2    1    1    2  501    0  0.66088889924E+02  0.58349692829E+02  0.63358221261E+02  0.10856653364E+03  0.00000000000E+00 0.  1.
<scales pt_clust_3="14000.00000" pt_clust_4="32.92759" pt_clust_5="41.44610" pt_clust_6="84.14192"></scales>
<clustering>
<clus scale="   32.928">  2  4  1 -1</clus>
<clus scale="   41.446">  2  5  1 -1</clus>
<clus scale="   84.142">  2  6  1 -1</clus>
<clus scale="   32.928">  2  3  1 -1</clus>
</clustering>
</event>
<event>
 6    0  0.1361744E+002  0.2234344E+03  0.7546771E-02  0.1131348E+00
          2   -1    0    0  503    0 -0.00000000000E+00  0.00000000000E+00  0.14824456630E+03  0.14824456630E+03  0.00000000000E+00 0.  1.
         21   -1    0    0  504  502  0.00000000000E+00 -0.00000000000E+00 -0.11549219278E+04  0.11549219278E+04  0.00000000000E+00 0.  1.
         21    1    1    2  503  505  0.28493525766E+02  0.47447462212E+02 -0.59311304997E+02  0.81123200019E+02  0.00000000000E+00 0.  1.
         21    1    1    2  504  501 -0.12654450799E+03 -0.55041479715E+02 -0.59610456496E+01  0.13812534545E+03  0.00000000000E+00 0. -1.
         21    1    1    2  505  502  0.19964508370E+03  0.85011416279E+02 -0.93078966512E+03  0.95574813683E+03  0.00000000000E+00 0.  1.
          2    1    1    2  501    0 -0.10159410148E+03 -0.77417398776E+02 -0.10615345723E+02  0.12816981179E+03  0.00000000000E+00 0.  1.
<scales pt_clust_3="55.34567" pt_clust_4="31.11187" pt_clust_5="221.08187" pt_clust_6="31.11187"></scales>
<clustering>
<clus scale="   31.112">  4  6 -1 -1</clus>
<clus scale="   55.346">  1  3  2 -1</clus>
<clus scale="  221.082">  2  5  1 -1</clus>
<clus scale="  221.082">  2  3  1 -1</clus>
</clustering>
</event>
<event>
 6    0  0.1361744E+002  0.1754452E+03  0.7546771E-02  0.1172285E+00
         21   -1    0    0  504  502  0.00000000000E+00  0.00000000000E+00  0.30127538537E+03  0.30127538537E+03  0.00000000000E+00 0.  1.
          1   -1    0    0  503    0 -0.00000000000E+00 -0.00000000000E+00 -0.21090217933E+04  0.21090217933E+04  0.00000000000E+00 0. -1.
         21    1    1    2  503  502 -0.14333353851E+02 -0.30951848199E+02  0.10356016505E+03  0.10903288369E+03  0.00000000000E+00 0.  1.
         21    1    1    2  504  505  0.13619155601E+03  0.13693533699E+03  0.14250783514E+03  0.24001647760E+03  0.00000000000E+00 0.  1.
         21    1    1    2  505  501 -0.53713283269E+02 -0.16216283770E+02 -0.96119770582E+03  0.96283389758E+03  0.00000000000E+00 0.  1.
          1    1    1    2  501    0 -0.68144918887E+02 -0.89767205024E+02 -0.10926167023E+04  0.10984139198E+04  0.00000000000E+00 0. -1.
<scales pt_clust_3="34.10956" pt_clust_4="162.09255" pt_clust_5="47.30479" pt_clust_6="47.30479"></scales>
<clustering>
<clus scale="   34.110">  1  3  2 -1</clus>
<clus scale="   47.305">  5  6 -1 -1</clus>
<clus scale="  162.093">  1  4  2 -1</clus>
<clus scale="   34.110">  1  3  2 -1</clus>
</clustering>
</event>
<event>
 6    0  0.1361744E+002  0.1016340E+03  0.7546771E-02  0.1276897E+00
         21   -1    0    0  503  502  0.00000000000E+00  0.00000000000E+00  0.11285998192E+04  0.11285998192E+04  0.00000000000E+00 0.  1.
          3   -1    0    0  505    0 -0.00000000000E+00 -0.00000000000E+00 -0.92037050422E+02  0.92037050422E+02  0.00000000000E+00 0. -1.
         21    1    1    2  503  501 -0.23918081915E+02  0.31569135838E+02 -0.19411458657E+02  0.44107705758E+02  0.00000000000E+00 0.  1.
         21    1    1    2  504  502  0.24316885643E+02  0.78331074018E+02  0.78117079645E+03  0.78546475498E+03  0.00000000000E+00 0.  1.
         21    1    1    2  505  504  0.59430806553E+02 -0.11896431412E+03  0.29794694605E+03  0.32627735359E+03  0.00000000000E+00 0. -1.
          3    1    1    2  501    0 -0.59829610281E+02  0.90641042620E+01 -0.23143515026E+02  0.64787055344E+02  0.00000000000E+00 0. -1.
<scales pt_clust_3="30.08015" pt_clust_4="82.01871" pt_clust_5="94.58896" pt_clust_6="30.08015"></scales>
<clustering>
<clus scale="   30.080">  3  6 -1 -1</clus>
<clus scale="   82.019">  1  4  2 -1</clus>
<clus scale="   94.589">  1  5  2 -1</clus>
<clus scale="   82.019">  1  3  2 -1</clus>
</clustering>
</event>
<event>
 6    0  0.1361744E+002  0.1046034E+03  0.7546771E-02  0.1270903E+00
         -2   -1    0    0    0  501 -0.00000000000E+00  0.00000000000E+00  0.36352776910E+03  0.36352776910E+03  0.00000000000E+00 0. -1.
         21   -1    0    0  505  502  0.00000000000E+00 -0.00000000000E+00 -0.13991847218E+03  0.13991847218E+03  0.00000000000E+00 0.  1.
         21    1    1    2  503  501 -0.33964016378E+02 -0.72702291458E+01  0.37610476087E+02  0.51195298142E+02  0.00000000000E+00 0.  1.
         21    1    1    2  504  502 -0.18028553369E+02  0.99507662695E+02  0.15194070456E+03  0.18251789330E+03  0.00000000000E+00 0. -1.
         21    1    1    2  505  503 -0.43641509523E+02 -0.98644876483E+02 -0.69740816693E+02  0.12844911258E+03  0.00000000000E+00 0.  1.
         -2    1    1    2    0  504  0.95634079270E+02  0.64074429345E+01  0.10379893296E+03  0.14128393726E+03  0.00000000000E+00 0. -1.
<scales pt_clust_3="34.73342" pt_clust_4="104.60337" pt_clust_5="14000.00000" pt_clust_6="82.67127"></scales>
<clustering>
<clus scale="   34.733">  1  3  2 -1</clus>
<clus scale="   82.671">  1  6  2 -1</clus>
<clus scale="  104.603">  1  4  2 -1</clus>
<clus scale="  104.603">  2  3  1 -1</clus>
</clustering>
</event>
<event>
 6    0  0.1361744E+002  0.9062114E+02  0.7546771E-02  0.1301354E+00
         -2   -1    0    0    0  501 -0.00000000000E+00  0.00000000000E+00  0.67967741905E+02  0.67967741905E+02  0.00000000000E+00 0. -1.
         21   -1    0    0  505  502  0.00000000000E+00 -0.00000000000E+00 -0.56782867717E+03  0.56782867717E+03  0.00000000000E+00 0. -1.
         21    1    1    2  503  504 -0.85960408032E+02 -0.76630917803E+01 -0.29250312226E+03  0.30496883654E+03  0.00000000000E+00 0. -1.
         21    1    1    2  504  501  0.75088833827E+02  0.11327167629E+02 -0.63501931783E+01  0.76203429355E+02  0.00000000000E+00 0.  1.
         21    1    1    2  505  503 -0.90519430615E+01  0.45687060238E+02 -0.19566925529E+03  0.20113603012E+03  0.00000000000E+00 0. -1.
         -2    1    1    2    0  502  0.19923517267E+02 -0.49351136087E+02 -0.53383645353E+01  0.53488123067E+02  0.00000000000E+00 0. -1.
<scales pt_clust_3="90.62114" pt_clust_4="14000.00000" pt_clust_5="46.57516" pt_clust_6="49.58306"></scales>
<clustering>
<clus scale="   46.575">  2  5  1 -1</clus>
<clus scale="   49.583">  1  6  2 -1</clus>
<clus scale="   90.621">  2  3  1 -1</clus>
<clus scale="   46.575">  2  3  1 -1</clus>
</clustering>
</event>
<event>
 6    0  0.1361744E+002  0.9324057E+02  0.7546771E-02  0.1295189E+00
         21   -1    0    0  505  502  0.00000000000E+00  0.00000000000E+00  0.79899370987E+03  0.79899370987E+03  0.00000000000E+00 0.  1.
          4   -1    0    0  504    0 -0.00000000000E+00 -0.00000000000E+00 -0.75566246445E+02  0.75566246445E+02  0.00000000000E+00 0.  1.
         21    1    1    2  503  502 -0.74796185645E+02  0.76135079132E+02  0.45765946531E+03  0.46993957681E+03  0.00000000000E+00 0.  1.
         21    1    1    2  504  503  0.31707321601E+02 -0.35260194055E+01  0.28431082116E+02  0.42733049110E+02  0.00000000000E+00 0.  1.
         21    1    1    2  505  501 -0.94687813408E+01 -0.96364887665E+02  0.27597199093E+03  0.29246604790E+03  0.00000000000E+00 0.  1.
          4    1    1    2  501    0  0.52557645385E+02  0.23755827939E+02 -0.38635074929E+02  0.69421282502E+02  0.00000000000E+00 0.  1.
<scales pt_clust_3="93.24057" pt_clust_4="31.90278" pt_clust_5="14000.00000" pt_clust_6="80.38111"></scales>
<clustering>
<clus scale="   31.903">  2  4  1 -1</clus>
<clus scale="   80.381">  2  6  1 -1</clus>
<clus scale="   93.241">  1  3  2 -1</clus>
<clus scale="   93.241">  1  3  2 -1</clus>
</clustering>
</event>
<event>
 6    0  0.1361744E+002  0.1305878E+03  0.7546771E-02  0.1226586E+00
         21   -1    0    0  503  502  0.00000000000E+00  0.00000000000E+00  0.88807908435E+02  0.88807908435E+02  0.00000000000E+00 0. -1.
          2   -1    0    0  502    0 -0.00000000000E+00 -0.00000000000E+00 -0.97636508481E+03  0.97636508481E+03  0.00000000000E+00 0. -1.
         21    1    1    2  503  504 -0.10796764930E+03 -0.15736251168E+02 -0.27841220152E+02  0.11260451339E+03  0.00000000000E+00 0. -1.
         21    1    1    2  504  505  0.65210419597E+02 -0.10418285609E+03 -0.51923046529E+02  0.13342589362E+03  0.00000000000E+00 0. -1.
         21    1    1    2  505  501  0.67906467932E+01  0.84759355381E+02 -0.47084522387E+03  0.47846158262E+03  0.00000000000E+00 0. -1.
          2    1    1    2  501    0  0.35966582907E+02  0.35159751881E+02 -0.33694768583E+03  0.34068100362E+03  0.00000000000E+00 0. -1.
<scales pt_clust_3="109.10840" pt_clust_4="121.64192" pt_clust_5="36.53365" pt_clust_6="36.53365"></scales>
<clustering>
<clus scale="   36.534">  5  6 -1 -1</clus>
<clus scale="  109.108">  1  3  2 -1</clus>
<clus scale="  121.642">  1  4  2 -1</clus>
<clus scale="  109.108">  1  3  2 -1</clus>
</clustering>
</event>
<event>
 6    0  0.1361744E+002  0.2267822E+03  0.7546771E-02  0.1128925E+00
          1   -1    0    0  503    0 -0.00000000000E+00  0.00000000000E+00  0.34148017932E+04  0.34148017932E+04  0.00000000000E+00 0.  1.
         21   -1    0    0  501  502  0.00000000000E+00 -0.00000000000E+00 -0.17270440440E+02  0.17270440440E+02  0.00000000000E+00 0.  1.
         21    1    1    2  503  505  0.38466224162E+02 -0.99023294255E+02  0.83512295962E+03  0.84185249355E+03  0.00000000000E+00 0.  1.
         21    1    1    2  504  502  0.20312873158E+02  0.23759170524E+02  0.17816107960E+03  0.18088250685E+03  0.00000000000E+00 0. -1.
         21    1    1    2  505  504  0.72064636123E+02 -0.92444457332E+02  0.52297850504E+03  0.53595317539E+03  0.00000000000E+00 0.  1.
          1    1    1    2  501    0 -0.13084373344E+03  0.16770858106E+03  0.18612688084E+04  0.18733840578E+04  0.00000000000E+00 0.  1.
<scales pt_clust_3="67.11986" pt_clust_4="31.25877" pt_clust_5="67.11986" pt_clust_6="215.40256"></scales>
<clustering>
<clus scale="   31.259">  2  4  1 -1</clus>
<clus scale="   67.120">  3  5 -1 -1</clus>
<clus scale="  215.403">  1  6  2 -1</clus>
<clus scale="   31.259">  2  3  1 -1</clus>
</clustering>
</event>
<event>
 6    0  0.1361744E+002  0.1574338E+03  0.7546771E-02  0.1191625E+00
         21   -1    0    0  504  502  0.00000000000E+00  0.00000000000E+00  0.38228611754E+02  0.38228611754E+02  0.00000000000E+00 0.  1.
          2   -1    0    0  505    0 -0.00000000000E+00 -0.00000000000E+00 -0.12560873941E+04  0.12560873941E+04  0.00000000000E+00 0.  1.
         21    1    1    2  503  502 -0.47288205011E+02  0.18074236859E+02 -0.21614107816E+02  0.55045635866E+02  0.00000000000E+00 0.  1.
         21    1    1    2  504  501  0.82141590679E+02 -0.42682211863E+02 -0.41170914896E+03  0.42198748260E+03  0.00000000000E+00 0.  1.
         21    1    1    2  505  503 -0.10843126054E+03  0.15944373501E+02 -0.19990745693E+03  0.22797928118E+03  0.00000000000E+00 0.  1.
          2    1    1    2  501    0  0.73577874872E+02  0.86636015026E+01 -0.58462806868E+03  0.58930360626E+03  0.00000000000E+00 0.  1.
<scales pt_clust_3="50.62462" pt_clust_4="62.99365" pt_clust_5="142.01901" pt_clust_6="62.99365"></scales>
<clustering>
<clus scale="   50.625">  1  3  2 -1</clus>
<clus scale="   62.994">  4  6 -1 -1</clus>
<clus scale="  142.019">  1  5  2 -1</clus>
<clus scale="   50.625">  1  3  2 -1</clus>
</clustering>
</event>
<event>
 6    0  0.1361744E+002  0.8647664E+02  0.7546771E-02  0.1311616E+00
         -2   -1    0    0    0  501 -0.00000000000E+00  0.00000000000E+00  0.13544609736E+03  0.13544609736E+03  0.00000000000E+00 0. -1.
         21   -1    0    0  504  502  0.00000000000E+00 -0.00000000000E+00 -0.12879470751E+04  0.12879470751E+04  0.00000000000E+00 0.  1.
         21    1    1    2  503  502  0.20746508295E+02  0.92784882843E+02 -0.84390583114E+03  0.84924466670E+03  0.00000000000E+00 0. -1.
         21    1    1    2  504  505  0.61428025028E+02 -0.72724000714E+02 -0.40231764875E+03  0.41342674446E+03  0.00000000000E+00 0.  1.
         21    1    1    2  505  501 -0.36688706540E+02 -0.36790982383E+02 -0.35137554357E+01  0.52076713122E+02  0.00000000000E+00 0.  1.
         -2    1    1    2    0  503 -0.45485826782E+02  0.16730100254E+02  0.97236257610E+02  0.10864504815E+03  0.00000000000E+00 0. -1.
<scales pt_clust_3="14000.00000" pt_clust_4="86.47664" pt_clust_5="74.72573" pt_clust_6="48.46500"></scales>
<clustering>
<clus scale="   48.465">  1  6  2 -1</clus>
<clus scale="   74.726">  1  5  2 -1</clus>
<clus scale="   86.477">  1  4  2 -1</clus>
<clus scale="   86.477">  2  3  1 -1</clus>
</clustering>
</event>
<event>
 6    0  0.1361744E+002  0.8068410E+02  0.7546771E-02  0.1327121E+00
         21   -1    0    0  504  502  0.00000000000E+00  0.00000000000E+00  0.16923088715E+03  0.16923088715E+03  0.00000000000E+00 0.  1.
          3   -1    0    0  505    0 -0.00000000000E+00 -0.00000000000E+00 -0.27019115647E+03  0.27019115647E+03  0.00000000000E+00 0.  1.
         21    1    1    2  503  502  0.48477954112E+02 -0.37727968053E+01  0.49740883525E+02  0.69559338154E+02  0.00000000000E+00 0.  1.
         21    1    1    2  504  501  0.21761477413E+02  0.26293463410E+02  0.68829698286E+02  0.76827309489E+02  0.00000000000E+00 0. -1.
         21    1    1    2  505  503 -0.10829504960E+03 -0.72513298536E+02 -0.13422353209E+03  0.18708808834E+03  0.00000000000E+00 0.  1.
          3    1    1    2  501    0  0.38055618078E+02  0.49992631931E+02 -0.85307319039E+02  0.10594730764E+03  0.00000000000E+00 0.  1.
<scales pt_clust_3="63.19110" pt_clust_4="34.13075" pt_clust_5="80.68410" pt_clust_6="14000.00000"></scales>
<clustering>
<clus scale="   34.131">  1  4  2 -1</clus>
<clus scale="   63.191">  1  3  2 -1</clus>
<clus scale="   80.684">  1  5  2 -1</clus>
<clus scale="   34.131">  1  3  2 -1</clus>
</clustering>
</event>
<event>
 6    0  0.1361744E+002  0.9892708E+02  0.7546771E-02  0.1282568E+00
          2   -1    0    0  505    0 -0.00000000000E+00  0.00000000000E+00  0.11709757565E+04  0.11709757565E+04  0.00000000000E+00 0. -1.
         21   -1    0    0  503  502  0.00000000000E+00 -0.00000000000E+00 -0.10485017425E+03  0.10485017425E+03  0.00000000000E+00 0.  1.
         21    1    1    2  503  501  0.47976965774E+02  0.48148002517E+02  0.24349511496E-01  0.67970728877E+02  0.00000000000E+00 0.  1.
         21    1    1    2  504  502 -0.81038851118E+01  0.29716182237E+02 -0.49680846990E+02  0.58454349695E+02  0.00000000000E+00 0.  1.
         21    1    1    2  505  504 -0.12894837784E+03 -0.40375185217E+02  0.31431755215E+03  0.34213062318E+03  0.00000000000E+00 0.  1.
          2    1    1    2  501    0  0.89075297177E+02 -0.37488999537E+02  0.80146452754E+03  0.80727022896E+03  0.00000000000E+00 0. -1.
<scales pt_clust_3="80.24195" pt_clust_4="30.80137" pt_clust_5="14000.00000" pt_clust_6="98.92708"></scales>
<clustering>
<clus scale="   30.801">  2  4  1 -1</clus>
<clus scale="   80.242">  2  3  1 -1</clus>
<clus scale="   98.927">  1  6  2 -1</clus>
<clus scale="   30.801">  2  3  1 -1</clus>
</clustering>
</event>
<event>
 6    0  0.1361744E+002  0.1028570E+03  0.7546771E-02  0.1274400E+00
         21   -1    0    0  501  502  0.00000000000E+00  0.00000000000E+00  0.19161680205E+02  0.19161680205E+02  0.00000000000E+00 0. -1.
          2   -1    0    0  504    0 -0.00000000000E+00 -0.00000000000E+00 -0.44801789649E+04  0.44801789649E+04  0.00000000000E+00 0.  1.
         21    1    1    2  503  502 -0.24840686499E+02  0.18449065426E+02 -0.49195201008E+02  0.58117084605E+02  0.00000000000E+00 0. -1.
         21    1    1    2  504  505 -0.39392089803E+02  0.20500377284E+02 -0.40878597260E+03  0.41119092111E+03  0.00000000000E+00 0. -1.
         21    1    1    2  505  503  0.76125784955E+02 -0.10730408987E+03 -0.31535387953E+03  0.34169777900E+03  0.00000000000E+00 0. -1.
          2    1    1    2  501    0 -0.11893008653E+02  0.68354647160E+02 -0.36876822315E+04  0.36883348604E+04  0.00000000000E+00 0.  1.
<scales pt_clust_3="30.94233" pt_clust_4="46.90802" pt_clust_5="14000.00000" pt_clust_6="102.85703"></scales>
<clustering>
<clus scale="   30.942">  1  3  2 -1</clus>
<clus scale="   46.908">  2  4  1 -1</clus>
<clus scale="  102.857">  2  6  1 -1</clus>
<clus scale="   30.942">  1  3  2 -1</clus>
</clustering>
</event>
<event>
 6    0  0.1361744E+002  0.1460555E+03  0.7546771E-02  0.1205405E+00
          1   -1    0    0  504    0 -0.00000000000E+00  0.00000000000E+00  0.12843521040E+03  0.12843521040E+03  0.00000000000E+00 0. -1.
         21   -1    0    0  503  502  0.00000000000E+00 -0.00000000000E+00 -0.88358229536E+03  0.88358229536E+03  0.00000000000E+00 0.  1.
         21    1    1    2  503  505 -0.72532596867E+02 -0.62012585758E+00 -0.33216077389E+03  0.33998844373E+03  0.00000000000E+00 0.  1.
         21    1    1    2  504  502 -0.32655138910E+02  0.16696736194E+02 -0.20436173794E+02  0.41985429569E+02  0.00000000000E+00 0. -1.
         21    1    1    2  505  501 -0.61191511182E+02 -0.34090786564E+02 -0.45053558610E+03  0.45594834917E+03  0.00000000000E+00 0.  1.
          1    1    1    2  501    0  0.16637924696E+03  0.18014176228E+02  0.47985448819E+02  0.17409528328E+03  0.00000000000E+00 0. -1.
<scales pt_clust_3="41.69418" pt_clust_4="36.67614" pt_clust_5="41.69418" pt_clust_6="139.70477"></scales>
<clustering>
<clus scale="   36.676">  1  4  2 -1</clus>
<clus scale="   41.694">  3  5 -1 -1</clus>
<clus scale="  139.705">  1  6  2 -1</clus>
<clus scale="  146.056">  2  3  1 -1</clus>
</clustering>
</event>
<event>
 6    0  0.1361744E+002  0.1187320E+03  0.7546771E-02  0.1245204E+00
          2   -1    0    0  505    0 -0.00000000000E+00  0.00000000000E+00  0.41034332770E+04  0.41034332770E+04  0.00000000000E+00 0. -1.
         21   -1    0    0  501  502  0.00000000000E+00 -0.00000000000E+00 -0.73453983936E+02  0.73453983936E+02  0.00000000000E+00 0.  1.
         21    1    1    2  503  504 -0.10255994212E+03 -0.10516769915E+03  0.22980341909E+03  0.27274236579E+03  0.00000000000E+00 0. -1.
         21    1    1    2  504  502  0.11046186697E+03  0.31945482791E+02  0.19961263399E+02  0.11670814008E+03  0.00000000000E+00 0.  1.
         21    1    1    2  505  503 -0.32271295365E+02 -0.49720924428E+02  0.35384376198E+03  0.35877432283E+03  0.00000000000E+00 0.  1.
          2    1    1    2  501    0  0.24369370518E+02  0.12294314078E+03  0.34263708486E+04  0.34286624322E+04  0.00000000000E+00 0. -1.
<scales pt_clust_3="14000.00000" pt_clust_4="118.73198" pt_clust_5="59.27568" pt_clust_6="77.63408"></scales>
<clustering>
<clus scale="   59.276">  1  5  2 -1</clus>
<clus scale="   77.634">  1  6  2 -1</clus>
<clus scale="  118.732">  2  4  1 -1</clus>
<clus scale="  118.732">  2  3  1 -1</clus>
</clustering>
</event>
<event>
 6    0  0.1361744E+002  0.2197999E+03  0.7546771E-02  0.1134032E+00
          2   -1    0    0  503    0 -0.00000000000E+00  0.00000000000E+00  0.12773909737E+04  0.12773909737E+04  0.00000000000E+00 0. -1.
         21   -1    0    0  501  502  0.00000000000E+00 -0.00000000000E+00 -0.46663594305E+03  0.46663594305E+03  0.00000000000E+00 0.  1.
         21    1    1    2  503  504 -0.28815723310E+02  0.96753364473E+01  0.56678698895E+02  0.64315106730E+02  0.00000000000E+00 0. -1.
         21    1    1    2  504  505 -0.20628614614E+02 -0.54950343917E+02 -0.61635049461E+02  0.85111452576E+02  0.00000000000E+00 0. -1.
         21    1    1    2  505  502  0.42545439748E+02 -0.14449530138E+03 -0.36701684948E+03  0.39672455730E+03  0.00000000000E+00 0.  1.
          2    1    1    2  501    0  0.68988981756E+01  0.18977030885E+03  0.11827282307E+04  0.11978758001E+04  0.00000000000E+00 0. -1.
<scales pt_clust_3="30.39668" pt_clust_4="56.44949" pt_clust_5="56.44949" pt_clust_6="200.36820"></scales>
<clustering>
<clus scale="   30.397">  1  3  2 -1</clus>
<clus scale="   56.449">  4  5 -1 -1</clus>
<clus scale="  200.368">  1  6  2 -1</clus>
<clus scale="  219.800">  2  3  1 -1</clus>
</clustering>
</event>
<event>
 6    0  0.1361744E+002  0.1717300E+03  0.7546771E-02  0.1176056E+00
         21   -1    0    0  505  502  0.00000000000E+00  0.00000000000E+00  0.38901413798E+02  0.38901413798E+02  0.00000000000E+00 0.  1.
          2   -1    0    0  502    0 -0.00000000000E+00 -0.00000000000E+00 -0.11655078500E+04  0.11655078500E+04  0.00000000000E+00 0.  1.
         21    1    1    2  503  501  0.72692035814E+02 -0.67009015086E+02 -0.43695934075E+03  0.44800424734E+03  0.00000000000E+00 0.  1.
         21    1    1    2  504  503 -0.45009087652E+02  0.82968819783E+02 -0.16194792828E+03  0.18744805814E+03  0.00000000000E+00 0.  1.
         21    1    1    2  505  504 -0.24816565875E+02  0.51604663412E+02 -0.26290781761E+02  0.63008796476E+02  0.00000000000E+00 0.  1.
          2    1    1    2  501    0 -0.28663822859E+01 -0.67564468109E+02 -0.50140838541E+03  0.50594816183E+03  0.00000000000E+00 0.  1.
<scales pt_clust_3="66.70756" pt_clust_4="165.21145" pt_clust_5="51.12866" pt_clust_6="66.70756"></scales>
<clustering>
<clus scale="   51.129">  4  5 -1 -1</clus>
<clus scale="   66.708">  3  6 -1 -1</clus>
<clus scale="  165.211">  1  4  2 -1</clus>
<clus scale="  165.211">  1  3  2 -1</clus>
</clustering>
</event>
<event>
 6    0  0.1361744E+002  0.1495793E+03  0.7546771E-02  0.1200991E+00
         21   -1    0    0  501  502  0.00000000000E+00  0.00000000000E+00  0.15768947665E+04  0.15768947665E+04  0.00000000000E+00 0.  1.
          2   -1    0    0  505    0 -0.00000000000E+00 -0.00000000000E+00 -0.69616103924E+03  0.69616103924E+03  0.00000000000E+00 0.  1.
         21    1    1    2  503  504  0.26140511859E+02 -0.32261951831E+02  0.15978503507E+03  0.16509214799E+03  0.00000000000E+00 0.  1.
         21    1    1    2  504  502  0.39120264061E+02 -0.13666660126E+02  0.13794336929E+04  0.13800559720E+04  0.00000000000E+00 0.  1.
         21    1    1    2  505  503 -0.15395406322E+03  0.10592391372E+03 -0.52193134514E+03  0.55437718038E+03  0.00000000000E+00 0.  1.
          2    1    1    2  501    0  0.88693287304E+02 -0.59995301766E+02 -0.13655365558E+03  0.17353050538E+03  0.00000000000E+00 0.  1.
<scales pt_clust_3="72.81215" pt_clust_4="41.43878" pt_clust_5="149.57927" pt_clust_6="14000.00000"></scales>
<clustering>
<clus scale="   41.439">  1  4  2 -1</clus>
<clus scale="   72.812">  1  3  2 -1</clus>
<clus scale="  149.579">  2  5  1 -1</clus>
<clus scale="   41.439">  1  3  2 -1</clus>
</clustering>
</event>
<event>
 6    0  0.1361744E+002  0.1363498E+03  0.7546771E-02  0.1218327E+00
         -4   -1    0    0    0  501 -0.00000000000E+00  0.00000000000E+00  0.15370735571E+04  0.15370735571E+04  0.00000000000E+00 0. -1.
         21   -1    0    0  505  502  0.00000000000E+00 -0.00000000000E+00 -0.59465124091E+03  0.59465124091E+03  0.00000000000E+00 0.  1.
         21    1    1    2  503  502 -0.99119565347E+02  0.38905390584E+02 -0.45304591432E+03  0.46539114531E+03  0.00000000000E+00 0.  1.
         21    1    1    2  504  501 -0.10752682340E+02 -0.48851150507E+02  0.44223760089E+02  0.66766728539E+02  0.00000000000E+00 0.  1.
         21    1    1    2  505  504  0.21516659317E+02  0.75606064178E+02 -0.10943709791E+03  0.13474317039E+03  0.00000000000E+00 0. -1.
         -4    1    1    2    0  503  0.88355588370E+02 -0.65660304255E+02  0.14606815683E+04  0.14648237537E+04  0.00000000000E+00 0. -1.
<scales pt_clust_3="14000.00000" pt_clust_4="50.02055" pt_clust_5="78.18177" pt_clust_6="136.34985"></scales>
<clustering>
<clus scale="   50.021">  1  4  2 -1</clus>
<clus scale="   78.182">  2  5  1 -1</clus>
<clus scale="  136.350">  1  6  2 -1</clus>
<clus scale="   78.182">  2  3  1 -1</clus>
</clustering>
</event>
<event>
 6    0  0.1361744E+002  0.1135147E+03  0.7546771E-02  0.1254196E+00
         21   -1    0    0  503  502  0.00000000000E+00  0.00000000000E+00  0.33243117906E+02  0.33243117906E+02  0.00000000000E+00 0. -1.
          2   -1    0    0  504    0 -0.00000000000E+00 -0.00000000000E+00 -0.25948420415E+04  0.25948420415E+04  0.00000000000E+00 0. -1.
         21    1    1    2  503  505  0.36436662973E+02  0.40781231877E+02 -0.20980456013E+02  0.58574045588E+02  0.00000000000E+00 0. -1.
         21    1    1    2  504  502 -0.11513156571E+02  0.39147749436E+02 -0.30867536893E+03  0.31136085567E+03  0.00000000000E+00 0. -1.
         21    1    1    2  505  501  0.23173432932E+02  0.48637000961E+02 -0.55378775326E+02  0.77261727996E+02  0.00000000000E+00 0. -1.
          2    1    1    2  501    0 -0.48096939334E+02 -0.12856598227E+03 -0.21765643233E+04  0.21808885301E+04  0.00000000000E+00 0. -1.
<scales pt_clust_3="32.49194" pt_clust_4="40.80563" pt_clust_5="32.49194" pt_clust_6="108.69193"></scales>
<clustering>
<clus scale="   32.492">  3  5 -1 -1</clus>
<clus scale="   40.806">  2  4  1 -1</clus>
<clus scale="  108.692">  2  6  1 -1</clus>
<clus scale="  113.515">  1  3  2 -1</clus>
</clustering>
</event>
<event>
 6    0  0.1592787E+002  0.1629872E+03  0.7546771E-02  0.1185365E+00
          2   -1    0    0  505    0 -0.00000000000E+00  0.00000000000E+00  0.33678697194E+03  0.33678697194E+03  0.00000000000E+00 0.  1.
         21   -1    0    0  503  502  0.00000000000E+00 -0.00000000000E+00 -0.57808104843E+03  0.57808104843E+03  0.00000000000E+00 0.  1.
         21    1    1    2  503  501  0.11828730626E+02 -0.83998588081E+02 -0.82403440251E+02  0.11826245657E+03  0.00000000000E+00 0. -1.
         21    1    1    2  504  502 -0.63935995864E+02 -0.79321189041E+02 -0.44002482117E+03  0.45166525862E+03  0.00000000000E+00 0.  1.
         21    1    1    2  505  504  0.12574909986E+02  0.30526953649E+02  0.17197595525E+01  0.33060260633E+02  0.00000000000E+00 0. -1.
          2    1    1    2  501    0  0.39532355252E+02  0.13279282347E+03  0.27941442538E+03  0.31188004455E+03  0.00000000000E+00 0.  1.
<scales pt_clust_3="83.23418" pt_clust_4="162.98721" pt_clust_5="33.01550" pt_clust_6="14000.00000"></scales>
<clustering>
<clus scale="   33.016">  1  5  2 -1</clus>
<clus scale="   83.234">  2  3  1 -1</clus>
<clus scale="  162.987">  2  4  1 -1</clus>
<clus scale="   83.234">  2  3  1 -1</clus>
</clustering>
</event>
<event>
 6    0  0.1361744E+002  0.1025272E+03  0.7546771E-02  0.1275070E+00
         -4   -1    0    0    0  501 -0.00000000000E+00  0.00000000000E+00  0.91203099074E+02  0.91203099074E+02  0.00000000000E+00 0.  1.
         21   -1    0    0  505  502  0.00000000000E+00 -0.00000000000E+00 -0.64489596360E+03  0.64489596360E+03  0.00000000000E+00 0.  1.
         21    1    1    2  503  504  0.83484399481E+02 -0.67611373935E+02 -0.44351773903E+03  0.45634299345E+03  0.00000000000E+00 0.  1.
         21    1    1    2  504  502  0.63395674287E+01 -0.44941194213E+02 -0.69668901055E+02  0.83148402430E+02  0.00000000000E+00 0.  1.
         21    1    1    2  505  501 -0.54748581026E+02  0.15338880120E+02 -0.68996457112E+02  0.89404694853E+02  0.00000000000E+00 0.  1.
         -4    1    1    2    0  503 -0.35075385883E+02  0.97213688028E+02  0.28490232667E+02  0.10720297194E+03  0.00000000000E+00 0.  1.
<scales pt_clust_3="102.52717" pt_clust_4="45.38613" pt_clust_5="54.62493" pt_clust_6="14000.00000"></scales>
<clustering>
<clus scale="   45.386">  2  4  1 -1</clus>
<clus scale="   54.625">  2  5  1 -1</clus>
<clus scale="  102.527">  2  3  1 -1</clus>
<clus scale="   45.386">  2  3  1 -1</clus>
</clustering>
</event>
<event>
 6    0  0.1361744E+002  0.9636429E+02  0.7546771E-02  0.1288133E+00
          2   -1    0    0  504    0 -0.00000000000E+00  0.00000000000E+00  0.23861644945E+04  0.23861644945E+04  0.00000000000E+00 0. -1.
         21   -1    0    0  501  502  0.00000000000E+00 -0.00000000000E+00 -0.16599014557E+03  0.16599014557E+03  0.00000000000E+00 0.  1.
         21    1    1    2  503  505 -0.48004547138E+02 -0.86606031791E+02 -0.40943973692E+02  0.10715152948E+03  0.00000000000E+00 0.  1.
         21    1    1    2  504  503 -0.23472458640E+02 -0.35081036630E+02  0.12603457758E+03  0.13291482307E+03  0.00000000000E+00 0. -1.
         21    1    1    2  505  502  0.71519599512E+02  0.64894457397E+02 -0.61680639933E+02  0.11458989946E+03  0.00000000000E+00 0.  1.
          2    1    1    2  501    0 -0.42593733901E-01  0.56792611024E+02  0.21967643850E+04  0.21974983881E+04  0.00000000000E+00 0. -1.
<scales pt_clust_3="14000.00000" pt_clust_4="42.20942" pt_clust_5="96.36429" pt_clust_6="32.19721"></scales>
<clustering>
<clus scale="   42.209">  1  4  2 -1</clus>
<clus scale="   32.197">  1  6  2 -1</clus>
<clus scale="   96.364">  2  5  1 -1</clus>
<clus scale="   96.364">  2  3  1 -1</clus>
</clustering>
</event>
<event>
 6    0  0.1361744E+002  0.1996961E+03  0.7546771E-02  0.1149996E+00
         21   -1    0    0  505  502  0.00000000000E+00  0.00000000000E+00  0.19145020473E+04  0.19145020473E+04  0.00000000000E+00 0. -1.
          2   -1    0    0  504    0 -0.00000000000E+00 -0.00000000000E+00 -0.67848621501E+03  0.67848621501E+03  0.00000000000E+00 0.  1.
         21    1    1    2  503  501  0.10342736827E+02 -0.14455192910E+03  0.11106689590E+04  0.11200838222E+04  0.00000000000E+00 0. -1.
         21    1    1    2  504  502 -0.83632362292E+01 -0.40202037714E+02 -0.59094135604E+01  0.41485765332E+02  0.00000000000E+00 0.  1.
         21    1    1    2  505  503 -0.70413666120E+00 -0.42328826590E+02  0.76089966497E+03  0.76207645648E+03  0.00000000000E+00 0. -1.
          2    1    1    2  501    0 -0.12753639371E+01  0.22708279340E+03 -0.62964337808E+03  0.66934221828E+03  0.00000000000E+00 0.  1.
<scales pt_clust_3="37.21443" pt_clust_4="41.06273" pt_clust_5="37.21443" pt_clust_6="187.45040"></scales>
<clustering>
<clus scale="   37.214">  3  5 -1 -1</clus>
<clus scale="   41.063">  2  4  1 -1</clus>
<clus scale="  187.450">  2  6  1 -1</clus>
<clus scale="  199.696">  1  3  2 -1</clus>
</clustering>
</event>
<event>
 6    0  0.1361744E+002  0.2440431E+03  0.7546771E-02  0.1117128E+00
         -3   -1    0    0    0  501 -0.00000000000E+00  0.00000000000E+00  0.21828284586E+03  0.21828284586E+03  0.00000000000E+00 0.  1.
         21   -1    0    0  501  502  0.00000000000E+00 -0.00000000000E+00 -0.57641018152E+03  0.57641018152E+03  0.00000000000E+00 0.  1.
         21    1    1    2  503  504 -0.10993260622E+03  0.45345853462E+02  0.31304240020E+02  0.12296901959E+03  0.00000000000E+00 0.  1.
         21    1    1    2  504  505  0.95298930064E+02 -0.62436790237E+02 -0.18385014145E+03  0.21628942035E+03  0.00000000000E+00 0.  1.
         21    1    1    2  505  502  0.11080415238E+03 -0.57020185365E+02 -0.28452177184E+03  0.31061471371E+03  0.00000000000E+00 0.  1.
         -3    1    1    2    0  503 -0.96170476227E+02  0.74111122141E+02  0.78940337609E+02  0.14481987372E+03  0.00000000000E+00 0.  1.
<scales pt_clust_3="52.44848" pt_clust_4="37.12197" pt_clust_5="241.36221" pt_clust_6="52.44848"></scales>
<clustering>
<clus scale="   37.122">  4  5 -1 -1</clus>
<clus scale="   52.448">  3  6 -1 -1</clus>
<clus scale="  241.362">  2  4  1 -1</clus>
<clus scale="  241.362">  2  3  1 -1</clus>
</clustering>
</event>
<event>
 6    0  0.1361744E+002  0.9610833E+02  0.7546771E-02  0.1288699E+00
         21   -1    0    0  505  502  0.00000000000E+00  0.00000000000E+00  0.59034424163E+03  0.59034424163E+03  0.00000000000E+00 0. -1.
          3   -1    0    0  503    0 -0.00000000000E+00 -0.00000000000E+00 -0.12893154231E+04  0.12893154231E+04  0.00000000000E+00 0.  1.
         21    1    1    2  503  504  0.51824380179E+02 -0.10940768480E+02 -0.37800341071E+03  0.38169627363E+03  0.00000000000E+00 0.  1.
         21    1    1    2  504  502 -0.54409557168E+02  0.44536122356E+02  0.54225790256E+03  0.54679749358E+03  0.00000000000E+00 0. -1.
         21    1    1    2  505  501  0.32762942991E+02  0.50090675621E+02  0.20277342897E+02  0.63195386323E+02  0.00000000000E+00 0.  1.
          3    1    1    2  501    0 -0.30177766001E+02 -0.83686029496E+02 -0.88350301618E+03  0.88797051116E+03  0.00000000000E+00 0.  1.
<scales pt_clust_3="52.96666" pt_clust_4="14000.00000" pt_clust_5="60.31842" pt_clust_6="96.10833"></scales>
<clustering>
<clus scale="   52.967">  2  3  1 -1</clus>
<clus scale="   60.318">  1  5  2 -1</clus>
<clus scale="   96.108">  2  6  1 -1</clus>
<clus scale="   60.318">  1  3  2 -1</clus>
</clustering>
</event>
<event>
 6    0  0.1361744E+002  0.1212279E+03  0.7546771E-02  0.1241085E+00
         21   -1    0    0  504  502  0.00000000000E+00  0.00000000000E+00  0.81435083781E+02  0.81435083781E+02  0.00000000000E+00 0.  1.
          2   -1    0    0  505    0 -0.00000000000E+00 -0.00000000000E+00 -0.41471687852E+04  0.41471687852E+04  0.00000000000E+00 0.  1.
         21    1    1    2  503  502  0.89308159910E+01 -0.59145023198E+02 -0.10377265063E+03  0.11977752820E+03  0.00000000000E+00 0.  1.
         21    1    1    2  504  501  0.42733269595E+02 -0.36109992824E+02  0.55767845498E+02  0.78994408052E+02  0.00000000000E+00 0.  1.
         21    1    1    2  505  503  0.71486555324E+02  0.27401920123E+02 -0.30569058637E+03  0.31513160333E+03  0.00000000000E+00 0. -1.
          2    1    1    2  501    0 -0.12315064091E+03  0.67853095899E+02 -0.37120383099E+04  0.37147003294E+04  0.00000000000E+00 0.  1.
<scales pt_clust_3="86.36876" pt_clust_4="55.94697" pt_clust_5="14000.00000" pt_clust_6="121.22792"></scales>
<clustering>
<clus scale="   55.947">  1  4  2 -1</clus>
<clus scale="   86.369">  1  3  2 -1</clus>
<clus scale="  121.228">  2  6  1 -1</clus>
<clus scale="   55.947">  1  3  2 -1</clus>
</clustering>
</event>
<event>
 6    0  0.1361744E+002  0.2367125E+03  0.7546771E-02  0.1122002E+00
          2   -1    0    0  505    0 -0.00000000000E+00  0.00000000000E+00  0.15658339174E+04  0.15658339174E+04  0.00000000000E+00 0.  1.
         21   -1    0    0  504  502  0.00000000000E+00 -0.00000000000E+00 -0.94068937291E+02  0.94068937291E+02  0.00000000000E+00 0. -1.
         21    1    1    2  503  502  0.46597186619E+02  0.23246537213E+03  0.12289139794E+03  0.26704633067E+03  0.00000000000E+00 0. -1.
         21    1    1    2  504  501  0.31073602570E+02 -0.60401595088E+01  0.41160209514E+02  0.51925091726E+02  0.00000000000E+00 0. -1.
         21    1    1    2  505  503 -0.62186177344E+02  0.68708173796E+01  0.25443335949E+03  0.26201271573E+03  0.00000000000E+00 0. -1.
          2    1    1    2  501    0 -0.15484611845E+02 -0.23329603000E+03  0.10532800132E+04  0.10789187166E+04  0.00000000000E+00 0.  1.
<scales pt_clust_3="14000.00000" pt_clust_4="31.65521" pt_clust_5="61.21657" pt_clust_6="236.71252"></scales>
<clustering>
<clus scale="   31.655">  2  4  1 -1</clus>
<clus scale="   61.217">  1  5  2 -1</clus>
<clus scale="  236.713">  1  6  2 -1</clus>
<clus scale="   31.655">  2  3  1 -1</clus>
</clustering>
</event>
<event>
 6    0  0.1361744E+002  0.2095472E+03  0.7546771E-02  0.1141925E+00
          3   -1    0    0  504    0 -0.00000000000E+00  0.00000000000E+00  0.20674471514E+04  0.20674471514E+04  0.00000000000E+00 0.  1.
         21   -1    0    0  503  502  0.00000000000E+00 -0.00000000000E+00 -0.16375405213E+03  0.16375405213E+03  0.00000000000E+00 0.  1.
         21    1    1    2  503  501  0.33064687356E+02 -0.14228731355E+02  0.16648727314E+03  0.17033420814E+03  0.00000000000E+00 0.  1.
         21    1    1    2  504  505 -0.17521920854E+03 -0.12210770100E+02 -0.15034937089E+02  0.17628648071E+03  0.00000000000E+00 0.  1.
         21    1    1    2  505  502 -0.20312317363E+02  0.47102700774E+02 -0.51929143489E+02  0.72992400977E+02  0.00000000000E+00 0.  1.
          3    1    1    2  501    0  0.16246683855E+03 -0.20663199319E+02  0.18041699067E+04  0.18115881137E+04  0.00000000000E+00 0.  1.
<scales pt_clust_3="33.40255" pt_clust_4="197.06262" pt_clust_5="51.29576" pt_clust_6="33.40255"></scales>
<clustering>
<clus scale="   33.403">  3  6 -1 -1</clus>
<clus scale="   51.296">  2  5  1 -1</clus>
<clus scale="  197.063">  2  4  1 -1</clus>
<clus scale="   51.296">  2  3  1 -1</clus>
</clustering>
</event>
<event>
 6    0  0.1361744E+002  0.1693600E+03  0.7546771E-02  0.1178517E+00
         -4   -1    0    0    0  501 -0.00000000000E+00  0.00000000000E+00  0.11784145242E+04  0.11784145242E+04  0.00000000000E+00 0.  1.
         21   -1    0    0  501  502  0.00000000000E+00 -0.00000000000E+00 -0.16401282385E+03  0.16401282385E+03  0.00000000000E+00 0.  1.
         21    1    1    2  503  502 -0.62182668271E+02 -0.81359895538E+02 -0.10642546858E+03  0.14769054539E+03  0.00000000000E+00 0.  1.
         21    1    1    2  504  503 -0.36819048081E+02 -0.33234363947E+02 -0.10586881939E+02  0.50717327589E+02  0.00000000000E+00 0. -1.
         21    1    1    2  505  504  0.61997859317E+02  0.40014047922E+02  0.32258490472E+03  0.33091672569E+03  0.00000000000E+00 0.  1.
         -4    1    1    2    0  505  0.37003857035E+02  0.74580211563E+02  0.80882914619E+03  0.81310274942E+03  0.00000000000E+00 0.  1.
<scales pt_clust_3="160.23044" pt_clust_4="36.43435" pt_clust_5="71.38542" pt_clust_6="71.38542"></scales>
<clustering>
<clus scale="   36.434">  3  4 -1 -1</clus>
<clus scale="   71.385">  5  6 -1 -1</clus>
<clus scale="  160.230">  2  3  1 -1</clus>
<clus scale="  160.230">  2  3  1 -1</clus>
</clustering>
</event>
<event>
 6    0  0.1361744E+002  0.1455927E+03  0.7546771E-02  0.1205996E+00
          1   -1    0    0  505    0 -0.00000000000E+00  0.00000000000E+00  0.11287713727E+04  0.11287713727E+04  0.00000000000E+00 0. -1.
         21   -1    0    0  504  502  0.00000000000E+00 -0.00000000000E+00 -0.53577971156E+02  0.53577971156E+02  0.00000000000E+00 0. -1.
         21    1    1    2  503  501 -0.36669670917E+02  0.12589835673E+02  0.26460640522E+02  0.46939687092E+02  0.00000000000E+00 0. -1.
         21    1    1    2  504  503 -0.21545122018E+02  0.24991423065E+02 -0.15988713242E+02  0.36666094156E+02  0.00000000000E+00 0. -1.
         21    1    1    2  505  502  0.90128910836E+02 -0.10911544241E+03  0.94588345862E+03  0.95641252482E+03  0.00000000000E+00 0. -1.
          1    1    1    2  501    0 -0.31914117900E+02  0.71534183675E+02  0.11883801564E+03  0.14233103778E+03  0.00000000000E+00 0. -1.
<scales pt_clust_3="39.85136" pt_clust_4="32.99642" pt_clust_5="135.15217" pt_clust_6="39.85136"></scales>
<clustering>
<clus scale="   32.996">  2  4  1 -1</clus>
<clus scale="   39.851">  3  6 -1 -1</clus>
<clus scale="  135.152">  1  5  2 -1</clus>
<clus scale="   32.996">  2  3  1 -1</clus>
</clustering>
</event>
<event>
 6    0  0.1361744E+002  0.1776268E+03  0.7546771E-02  0.1170120E+00
         21   -1    0    0  504  502  0.00000000000E+00  0.00000000000E+00  0.30634587690E+03  0.30634587690E+03  0.00000000000E+00 0.  1.
          1   -1    0    0  505    0 -0.00000000000E+00 -0.00000000000E+00 -0.95156909366E+03  0.95156909366E+03  0.00000000000E+00 0. -1.
         21    1    1    2  503  501  0.29509682800E+02 -0.19425895786E+02 -0.20420720811E+03  0.20724085178E+03  0.00000000000E+00 0. -1.
         21    1    1    2  504  503  0.21033576456E+02 -0.17412318577E+03  0.17090058924E+03  0.24488427178E+03  0.00000000000E+00 0.  1.
         21    1    1    2  505  502 -0.77151596976E+02  0.17271907572E+03  0.37423095630E+01  0.18920426241E+03  0.00000000000E+00 0. -1.
          1    1    1    2  501    0  0.26608337720E+02  0.20830005833E+02 -0.61565890746E+03  0.61658558458E+03  0.00000000000E+00 0. -1.
<scales pt_clust_3="46.30828" pt_clust_4="14000.00000" pt_clust_5="177.62683" pt_clust_6="33.79190"></scales>
<clustering>
<clus scale="   33.792">  2  6  1 -1</clus>
<clus scale="   46.308">  2  3  1 -1</clus>
<clus scale="  177.627">  2  5  1 -1</clus>
<clus scale="  177.627">  1  3  2 -1</clus>
</clustering>
</event>
<event>
 6    0  0.1361744E+002  0.1121950E+03  0.7546771E-02  0.1256558E+00
         21   -1    0    0  504  502  0.00000000000E+00  0.00000000000E+00  0.88860833115E+02  0.88860833115E+02  0.00000000000E+00 0.  1.
          1   -1    0    0  505    0 -0.00000000000E+00 -0.00000000000E+00 -0.44212931089E+04  0.44212931089E+04  0.00000000000E+00 0.  1.
         21    1    1    2  503  501  0.16722495626E+03 -0.31103716410E+02 -0.19497874265E+04  0.19571925392E+04  0.00000000000E+00 0.  1.
         21    1    1    2  504  503  0.74472969736E+02  0.79003963839E+01 -0.63890504343E+02  0.98441028182E+02  0.00000000000E+00 0. -1.
         21    1    1    2  505  502 -0.16901395305E+03 -0.53731031480E+02 -0.51331146571E+02  0.18462834744E+03  0.00000000000E+00 0.  1.
          1    1    1    2  501    0 -0.72683972939E+02  0.76934351507E+02 -0.22674231984E+04  0.22698920272E+04  0.00000000000E+00 0.  1.
<scales pt_clust_3="14000.00000" pt_clust_4="74.89085" pt_clust_5="112.19501" pt_clust_6="105.06094"></scales>
<clustering>
<clus scale="   74.891">  1  4  2 -1</clus>
<clus scale="  105.061">  2  6  1 -1</clus>
<clus scale="  112.195">  1  5  2 -1</clus>
<clus scale="   74.891">  1  3  2 -1</clus>
</clustering>
</event>
<event>
 6    0  0.1361744E+002  0.1134466E+03  0.7546771E-02  0.1254317E+00
          2   -1    0    0  504    0 -0.00000000000E+00  0.00000000000E+00  0.80302593769E+03  0.80302593769E+03  0.00000000000E+00 0.  1.
         21   -1    0    0  501  502  0.00000000000E+00 -0.00000000000E+00 -0.61844171868E+02  0.61844171868E+02  0.00000000000E+00 0. -1.
         21    1    1    2  503  505 -0.36392832942E+02 -0.41352889387E+02  0.29516912381E+02  0.62495982805E+02  0.00000000000E+00 0. -1.
         21    1    1    2  504  503 -0.11913944675E+02  0.69839387804E+02  0.25963877496E+03  0.26913152106E+03  0.00000000000E+00 0. -1.
         21    1    1    2  505  502 -0.25012997040E+02 -0.47737870125E+02 -0.18246971887E+02  0.56899088289E+02  0.00000000000E+00 0. -1.
          2    1    1    2  501    0  0.73319774656E+02  0.19251371709E+02  0.47027305037E+03  0.47634351741E+03  0.00000000000E+00 0.  1.
<scales pt_clust_3="48.66151" pt_clust_4="70.84830" pt_clust_5="48.66151" pt_clust_6="102.22423"></scales>
<clustering>
<clus scale="   48.662">  3  5 -1 -1</clus>
<clus scale="   70.848">  1  4  2 -1</clus>
<clus scale="  102.224">  1  6  2 -1</clus>
<clus scale="  113.447">  2  3  1 -1</clus>
</clustering>
</event>
<event>
 6    0  0.1361744E+002  0.2340208E+03  0.7546771E-02  0.1123841E+00
          1   -1    0    0  504    0 -0.00000000000E+00  0.00000000000E+00  0.31800591725E+03  0.31800591725E+03  0.00000000000E+00 0.  1.
         21   -1    0    0  503  502  0.00000000000E+00 -0.00000000000E+00 -0.46687055736E+03  0.46687055736E+03  0.00000000000E+00 0.  1.
         21    1    1    2  503  501  0.30533837893E+02  0.87617553307E+02  0.55059404643E+02  0.10789202447E+03  0.00000000000E+00 0. -1.
         21    1    1    2  504  505 -0.37179686303E+02 -0.98449661418E+02 -0.13251813008E+03  0.16922091983E+03  0.00000000000E+00 0. -1.
         21    1    1    2  505  502 -0.53817540040E+01 -0.12111826790E+03 -0.25441515637E+03  0.28182560190E+03  0.00000000000E+00 0.  1.
          1    1    1    2  501    0  0.12027602414E+02  0.13195037601E+03  0.18300924170E+03  0.22593792842E+03  0.00000000000E+00 0.  1.
<scales pt_clust_3="57.63922" pt_clust_4="56.70244" pt_clust_5="231.78783" pt_clust_6="57.63922"></scales>
<clustering>
<clus scale="   56.702">  4  5 -1 -1</clus>
<clus scale="   57.639">  3  6 -1 -1</clus>
<clus scale="  231.788">  2  4  1 -1</clus>
<clus scale="  231.788">  2  3  1 -1</clus>
</clustering>
</event>
<event>
 6    0  0.1361744E+002  0.6406317E+02  0.7546771E-02  0.1381531E+00
         21   -1    0    0  501  502  0.00000000000E+00  0.00000000000E+00  0.19004639152E+04  0.19004639152E+04  0.00000000000E+00 0. -1.
          4   -1    0    0  504    0 -0.00000000000E+00 -0.00000000000E+00 -0.10351193967E+02  0.10351193967E+02  0.00000000000E+00 0.  1.
         21    1    1    2  503  505  0.20191279610E+02 -0.73457054073E+02  0.45347487054E+03  0.45982940834E+03  0.00000000000E+00 0.  1.
         21    1    1    2  504  503 -0.37150669604E+01  0.58707634254E+02  0.31436564159E+03  0.31982205154E+03  0.00000000000E+00 0. -1.
         21    1    1    2  505  502  0.55381116465E+02  0.25994519637E+02  0.70048830724E+03  0.70315478502E+03  0.00000000000E+00 0. -1.
          4    1    1    2  501    0 -0.71857329115E+02 -0.11245099818E+02  0.42178390188E+03  0.42800886428E+03  0.00000000000E+00 0.  1.
<scales pt_clust_3="52.41513" pt_clust_4="58.82506" pt_clust_5="64.06317" pt_clust_6="14000.00000"></scales>
<clustering>
<clus scale="   58.825">  2  4  1 -1</clus>
<clus scale="   52.415">  2  3  1 -1</clus>
<clus scale="   64.063">  1  5  2 -1</clus>
<clus scale="   64.063">  1  3  2 -1</clus>
</clustering>
</event>
<event>
 6    0  0.1361744E+002  0.2595362E+03  0.7546771E-02  0.1107422E+00
          2   -1    0    0  503    0 -0.00000000000E+00  0.00000000000E+00  0.32789662469E+03  0.32789662469E+03  0.00000000000E+00 0. -1.
         21   -1    0    0  501  502  0.00000000000E+00 -0.00000000000E+00 -0.96440166926E+03  0.96440166926E+03  0.00000000000E+00 0. -1.
         21    1    1    2  503  505  0.44526145035E+02  0.27266468258E+02  0.15302703474E+02  0.54407817605E+02  0.00000000000E+00 0.  1.
         21    1    1    2  504  502 -0.64423890592E+02 -0.18203466053E+03 -0.75684432761E+03  0.78108923405E+03  0.00000000000E+00 0. -1.
         21    1    1    2  505  504 -0.19536495838E+02 -0.57468346903E+02 -0.12646026465E+03  0.14027289154E+03  0.00000000000E+00 0. -1.
          2    1    1    2  501    0  0.39434241394E+02  0.21223653917E+03  0.23149684421E+03  0.31652835076E+03  0.00000000000E+00 0. -1.
<scales pt_clust_3="52.21147" pt_clust_4="36.63694" pt_clust_5="36.63694" pt_clust_6="251.17506"></scales>
<clustering>
<clus scale="   36.637">  4  5 -1 -1</clus>
<clus scale="   52.211">  1  3  2 -1</clus>
<clus scale="  251.175">  1  6  2 -1</clus>
<clus scale="  259.536">  2  3  1 -1</clus>
</clustering>
</event>
<event>
 6    0  0.1361744E+002  0.2446833E+03  0.7546771E-02  0.1116712E+00
          2   -1    0    0  503    0 -0.00000000000E+00  0.00000000000E+00  0.25495734466E+03  0.25495734466E+03  0.00000000000E+00 0.  1.
         21   -1    0    0  505  502  0.00000000000E+00 -0.00000000000E+00 -0.18868289049E+04  0.18868289049E+04  0.00000000000E+00 0.  1.
         21    1    1    2  503  504  0.64010561479E+02  0.26968271005E+03 -0.31129007326E+03  0.41680646083E+03  0.00000000000E+00 0.  1.
         21    1    1    2  504  502 -0.54433704977E+02  0.45085692370E+02 -0.90954196183E+02  0.11518860055E+03  0.00000000000E+00 0.  1.
         21    1    1    2  505  501 -0.62431602198E+02 -0.78036572042E+02 -0.13397010575E+04  0.13434233640E+04  0.00000000000E+00 0.  1.
          2    1    1    2  501    0  0.52854745696E+02 -0.23673183038E+03  0.11007376667E+03  0.26636782419E+03  0.00000000000E+00 0.  1.
<scales pt_clust_3="244.68330" pt_clust_4="70.68060" pt_clust_5="112.39592" pt_clust_6="14000.00000"></scales>
<clustering>
<clus scale="   70.681">  2  4  1 -1</clus>
<clus scale="  112.396">  2  5  1 -1</clus>
<clus scale="  244.683">  2  3  1 -1</clus>
<clus scale="   70.681">  2  3  1 -1</clus>
</clustering>
</event>
<event>
 6    0  0.1361744E+002  0.1040300E+03  0.7546771E-02  0.1272043E+00
          2   -1    0    0  504    0 -0.00000000000E+00  0.00000000000E+00  0.16600933046E+04  0.16600933046E+04  0.00000000000E+00 0. -1.
         21   -1    0    0  503  502  0.00000000000E+00 -0.00000000000E+00 -0.14612677209E+02  0.14612677209E+02  0.00000000000E+00 0. -1.
         21    1    1    2  503  501 -0.50566284997E+02  0.58578199324E+01  0.11031228442E+03  0.12149100101E+03  0.00000000000E+00 0. -1.
         21    1    1    2  504  505  0.87219943104E+02  0.28157984125E+02  0.11292708654E+04  0.11329840590E+04  0.00000000000E+00 0. -1.
         21    1    1    2  505  502  0.32877724629E+02 -0.70777520107E+01  0.14777818076E+03  0.15155668926E+03  0.00000000000E+00 0. -1.
          2    1    1    2  501    0 -0.69531382736E+02 -0.26938052047E+02  0.25811929675E+03  0.26867423246E+03  0.00000000000E+00 0. -1.
<scales pt_clust_3="33.24768" pt_clust_4="95.93220" pt_clust_5="33.63093" pt_clust_6="33.24768"></scales>
<clustering>
<clus scale="   33.248">  3  6 -1 -1</clus>
<clus scale="   33.631">  2  5  1 -1</clus>
<clus scale="   95.932">  1  4  2 -1</clus>
<clus scale="   33.631">  2  3  1 -1</clus>
</clustering>
</event>
<event>
 6    0  0.1361744E+002  0.1851229E+03  0.7546771E-02  0.1162935E+00
         21   -1    0    0  504  502  0.00000000000E+00  0.00000000000E+00  0.26771894861E+03  0.26771894861E+03  0.00000000000E+00 0. -1.
         -2   -1    0    0    0  501 -0.00000000000E+00 -0.00000000000E+00 -0.14283921546E+04  0.14283921546E+04  0.00000000000E+00 0.  1.
         21    1    1    2  503  502 -0.13107128389E+03  0.18355457632E+02  0.18634800805E+03  0.22856549256E+03  0.00000000000E+00 0. -1.
         21    1    1    2  504  505 -0.20567157177E+02 -0.16263188214E+03 -0.90289898921E+02  0.18714807744E+03  0.00000000000E+00 0. -1.
         21    1    1    2  505  501  0.63280623404E+02  0.15281097425E+02 -0.16254853331E+03  0.17509989983E+03  0.00000000000E+00 0.  1.
         -2    1    1    2    0  503  0.88357817658E+02  0.12899532708E+03 -0.10941827818E+04  0.11052976334E+04  0.00000000000E+00 0.  1.
<scales pt_clust_3="131.33618" pt_clust_4="14000.00000" pt_clust_5="65.09953" pt_clust_6="185.12292"></scales>
<clustering>
<clus scale="   65.100">  2  5  1 -1</clus>
<clus scale="  131.336">  1  3  2 -1</clus>
<clus scale="  185.123">  2  6  1 -1</clus>
<clus scale="  131.336">  1  3  2 -1</clus>
</clustering>
</event>
<event>
 6    0  0.1361744E+002  0.9905183E+02  0.7546771E-02  0.1282303E+00
          3   -1    0    0  504    0 -0.00000000000E+00  0.00000000000E+00  0.11765832555E+03  0.11765832555E+03  0.00000000000E+00 0. -1.
         21   -1    0    0  501  502  0.00000000000E+00 -0.00000000000E+00 -0.84277223762E+03  0.84277223762E+03  0.00000000000E+00 0. -1.
         21    1    1    2  503  505 -0.79944999320E+02  0.44197870134E+01 -0.62800861404E+03  0.63309206025E+03  0.00000000000E+00 0. -1.
         21    1    1    2  504  503  0.38245382158E+02 -0.54616457258E+02  0.35595173504E+02  0.75582293142E+02  0.00000000000E+00 0. -1.
         21    1    1    2  505  502 -0.15778937884E+02  0.42663918106E+02 -0.17447190566E+03  0.18030427242E+03  0.00000000000E+00 0. -1.
          3    1    1    2  501    0  0.57478555046E+02  0.75327521385E+01  0.41771434117E+02  0.71451937364E+02  0.00000000000E+00 0. -1.
<scales pt_clust_3="14000.00000" pt_clust_4="99.05183" pt_clust_5="45.48829" pt_clust_6="57.75323"></scales>
<clustering>
<clus scale="   45.488">  2  5  1 -1</clus>
<clus scale="   57.753">  1  6  2 -1</clus>
<clus scale="   99.052">  1  4  2 -1</clus>
<clus scale="   45.488">  2  3  1 -1</clus>
</clustering>
</event>
<event>
 6    0  0.1361744E+002  0.7596328E+02  0.7546771E-02  0.1340914E+00
          2   -1    0    0  505    0 -0.00000000000E+00  0.00000000000E+00  0.23675434417E+04  0.23675434417E+04  0.00000000000E+00 0.  1.
         21   -1    0    0  504  502  0.00000000000E+00 -0.00000000000E+00 -0.26330287176E+02  0.26330287176E+02  0.00000000000E+00 0.  1.
         21    1    1    2  503  502  0.80699236293E+02  0.70869418794E+02  0.12995251061E+03  0.16858972766E+03  0.00000000000E+00 0.  1.
         21    1    1    2  504  501 -0.19074049975E+02 -0.42382702931E+02  0.13178898269E+03  0.13974422653E+03  0.00000000000E+00 0.  1.
         21    1    1    2  505  503  0.18785368527E+02  0.37371287482E+02  0.28415527723E+03  0.28721720835E+03  0.00000000000E+00 0.  1.
          2    1    1    2  501    0 -0.80410554845E+02 -0.65858003344E+02  0.17953163840E+04  0.17983225664E+04  0.00000000000E+00 0.  1.
<scales pt_clust_3="75.96328" pt_clust_4="43.75196" pt_clust_5="41.82706" pt_clust_6="14000.00000"></scales>
<clustering>
<clus scale="   41.827">  1  5  2 -1</clus>
<clus scale="   43.752">  2  4  1 -1</clus>
<clus scale="   75.963">  2  3  1 -1</clus>
<clus scale="   43.752">  2  3  1 -1</clus>
</clustering>
</event>
<event>
 6    0  0.1361744E+002  0.8973301E+02  0.7546771E-02  0.1303500E+00
          3   -1    0    0  504    0 -0.00000000000E+00  0.00000000000E+00  0.41434710874E+03  0.41434710874E+03  0.00000000000E+00 0. -1.
         21   -1    0    0  503  502  0.00000000000E+00 -0.00000000000E+00 -0.20351332573E+03  0.20351332573E+03  0.00000000000E+00 0. -1.
         21    1    1    2  503  505  0.44106541328E+02  0.29612299222E+02 -0.80600248085E+02  0.96533285682E+02  0.00000000000E+00 0. -1.
         21    1    1    2  504  502  0.33483461571E+02  0.18253342387E+02  0.24032310900E+02  0.45076364919E+02  0.00000000000E+00 0. -1.
         21    1    1    2  505  501 -0.48406313079E+01  0.57132874118E+02 -0.84367125431E+02  0.10200690599E+03  0.00000000000E+00 0. -1.
          3    1    1    2  501    0 -0.72749371591E+02 -0.10499851573E+03  0.35176884563E+03  0.37424387788E+03  0.00000000000E+00 0. -1.
<scales pt_clust_3="53.92168" pt_clust_4="38.13564" pt_clust_5="89.73301" pt_clust_6="14000.00000"></scales>
<clustering>
<clus scale="   38.136">  1  4  2 -1</clus>
<clus scale="   53.922">  2  3  1 -1</clus>
<clus scale="   89.733">  2  5  1 -1</clus>
<clus scale="   53.922">  2  3  1 -1</clus>
</clustering>
</event>
<event>
 6    0  0.1361744E+002  0.1341754E+03  0.7546771E-02  0.1221389E+00
         21   -1    0    0  504  502  0.00000000000E+00  0.00000000000E+00  0.88534834441E+02  0.88534834441E+02  0.00000000000E+00 0. -1.
          2   -1    0    0  503    0 -0.00000000000E+00 -0.00000000000E+00 -0.17335927248E+04  0.17335927248E+04  0.00000000000E+00 0.  1.
         21    1    1    2  503  505 -0.35281022369E+02  0.27573203935E+02 -0.17360484262E+03  0.17928656809E+03  0.00000000000E+00 0. -1.
         21    1    1    2  504  501 -0.33099821168E+02 -0.38247023940E+01 -0.21466596812E+02  0.39636363209E+02  0.00000000000E+00 0. -1.
         21    1    1    2  505  502 -0.96594790460E+02  0.40463501373E+02  0.32911307779E+02  0.10977705893E+03  0.00000000000E+00 0. -1.
          2    1    1    2  501    0  0.16497563400E+03 -0.64212002914E+02 -0.14828977587E+04  0.14934275690E+04  0.00000000000E+00 0.  1.
<scales pt_clust_3="45.63357" pt_clust_4="33.32006" pt_clust_5="134.17538" pt_clust_6="14000.00000"></scales>
<clustering>
<clus scale="   33.320">  1  4  2 -1</clus>
<clus scale="   45.634">  2  3  1 -1</clus>
<clus scale="  134.175">  1  5  2 -1</clus>
<clus scale="   33.320">  1  3  2 -1</clus>
</clustering>
</event>
<event>
 6    0  0.1361744E+002  0.8191453E+02  0.7546771E-02  0.1323704E+00
          2   -1    0    0  503    0 -0.00000000000E+00  0.00000000000E+00  0.15562398766E+03  0.15562398766E+03  0.00000000000E+00 0.  1.
         21   -1    0    0  505  502  0.00000000000E+00 -0.00000000000E+00 -0.67664979615E+03  0.67664979615E+03  0.00000000000E+00 0. -1.
         21    1    1    2  503  502  0.43091380389E+01 -0.51020363177E+02 -0.10192176472E+02  0.52206576124E+02  0.00000000000E+00 0. -1.
         21    1    1    2  504  501  0.60286706728E+02  0.86844007232E+02 -0.14957455890E+03  0.18316363523E+03  0.00000000000E+00 0.  1.
         21    1    1    2  505  504 -0.21687646127E+02  0.31656151719E+02 -0.46463029447E+03  0.46621215823E+03  0.00000000000E+00 0. -1.
          2    1    1    2  501    0 -0.42908198640E+02 -0.67479795774E+02  0.10337122136E+03  0.13069141423E+03  0.00000000000E+00 0.  1.
<scales pt_clust_3="46.35780" pt_clust_4="81.91453" pt_clust_5="38.37272" pt_clust_6="14000.00000"></scales>
<clustering>
<clus scale="   38.373">  2  5  1 -1</clus>
<clus scale="   46.358">  2  3  1 -1</clus>
<clus scale="   81.915">  2  4  1 -1</clus>
<clus scale="   38.373">  2  3  1 -1</clus>
</clustering>
</event>
<event>
 6    0  0.1361744E+002  0.9784925E+02  0.7546771E-02  0.1284885E+00
         21   -1    0    0  501  502  0.00000000000E+00  0.00000000000E+00  0.20288987090E+04  0.20288987090E+04  0.00000000000E+00 0.  1.
         -4   -1    0    0    0  501 -0.00000000000E+00 -0.00000000000E+00 -0.47915280250E+02  0.47915280250E+02  0.00000000000E+00 0. -1.
         21    1    1    2  503  504 -0.93708034017E+02 -0.49908108030E+02  0.93364153674E+03  0.93965873274E+03  0.00000000000E+00 0.  1.
         21    1    1    2  504  502  0.56887783774E+02  0.77460292494E+02  0.10619599232E+04  0.10662997681E+04  0.00000000000E+00 0.  1.
         21    1    1    2  505  503  0.35192398269E+02  0.60263104993E+01 -0.69707038803E+01  0.36378730417E+02  0.00000000000E+00 0. -1.
         -4    1    1    2    0  505  0.16278519738E+01 -0.33578494963E+02 -0.76473273612E+01  0.34476757994E+02  0.00000000000E+00 0. -1.
<scales pt_clust_3="14000.00000" pt_clust_4="97.84925" pt_clust_5="42.15377" pt_clust_6="33.61793"></scales>
<clustering>
<clus scale="   33.618">  2  6  1 -1</clus>
<clus scale="   42.154">  2  5  1 -1</clus>
<clus scale="   97.849">  1  4  2 -1</clus>
<clus scale="   97.849">  1  3  2 -1</clus>
</clustering>
</event>
<event>
 6    0  0.1936651E+002  0.8075746E+02  0.7546771E-02  0.1326916E+00
         21   -1    0    0  505  502  0.00000000000E+00  0.00000000000E+00  0.14861083199E+03  0.14861083199E+03  0.00000000000E+00 0. -1.
          2   -1    0    0  503    0 -0.00000000000E+00 -0.00000000000E+00 -0.17228329152E+04  0.17228329152E+04  0.00000000000E+00 0. -1.
         21    1    1    2  503  504  0.32588024645E+02 -0.14021208534E+02 -0.13263207794E+03  0.13729472582E+03  0.00000000000E+00 0.  1.
         21    1    1    2  504  502 -0.50657751517E+02  0.10208739874E+03  0.11175312895E+03  0.15961455636E+03  0.00000000000E+00 0. -1.
         21    1    1    2  505  501  0.34840751588E+02 -0.22782302021E+02 -0.34141293337E+02  0.53838082871E+02  0.00000000000E+00 0. -1.
          2    1    1    2  501    0 -0.16771024715E+02 -0.65283888188E+02 -0.15192018409E+04  0.15206963822E+04  0.00000000000E+00 0. -1.
<scales pt_clust_3="35.47638" pt_clust_4="80.75746" pt_clust_5="42.59677" pt_clust_6="14000.00000"></scales>
<clustering>
<clus scale="   35.476">  2  3  1 -1</clus>
<clus scale="   42.597">  1  5  2 -1</clus>
<clus scale="   80.757">  1  4  2 -1</clus>
<clus scale="   42.597">  1  3  2 -1</clus>
</clustering>
</event>
<event>
 6    0  0.1361744E+002  0.1964247E+03  0.7546771E-02  0.1152791E+00
         21   -1    0    0  503  502  0.00000000000E+00  0.00000000000E+00  0.34383406329E+03  0.34383406329E+03  0.00000000000E+00 0. -1.
          2   -1    0    0  504    0 -0.00000000000E+00 -0.00000000000E+00 -0.11717929393E+04  0.11717929393E+04  0.00000000000E+00 0. -1.
         21    1    1    2  503  501  0.45160016794E+02 -0.43589748169E+02 -0.55216339947E+03  0.55571927534E+03  0.00000000000E+00 0. -1.
         21    1    1    2  504  505 -0.72022548278E+02  0.62049274406E+02  0.16558820078E+03  0.19093667053E+03  0.00000000000E+00 0. -1.
         21    1    1    2  505  502 -0.40711756303E+02  0.87094054438E+02  0.14243869400E+03  0.17184761555E+03  0.00000000000E+00 0. -1.
          2    1    1    2  501    0  0.67574287787E+02 -0.10555358067E+03 -0.58382237135E+03  0.59712344122E+03  0.00000000000E+00 0. -1.
<scales pt_clust_3="42.63619" pt_clust_4="41.94316" pt_clust_5="191.65560" pt_clust_6="42.63619"></scales>
<clustering>
<clus scale="   41.943">  4  5 -1 -1</clus>
<clus scale="   42.636">  3  6 -1 -1</clus>
<clus scale="  191.656">  1  4  2 -1</clus>
<clus scale="  191.656">  1  3  2 -1</clus>
</clustering>
</event>
<event>
 6    0  0.1361744E+002  0.7926237E+02  0.7546771E-02  0.1331158E+00
          2   -1    0    0  504    0 -0.00000000000E+00  0.00000000000E+00  0.17567255117E+04  0.17567255117E+04  0.00000000000E+00 0. -1.
         21   -1    0    0  503  502  0.00000000000E+00 -0.00000000000E+00 -0.40922010294E+02  0.40922010294E+02  0.00000000000E+00 0. -1.
         21    1    1    2  503  501 -0.10616411971E+03  0.71315000216E+02  0.15938923456E+03  0.20435649650E+03  0.00000000000E+00 0. -1.
         21    1    1    2  504  505  0.24424002767E+02 -0.31986750486E+02  0.12076555406E+04  0.12083259448E+04  0.00000000000E+00 0. -1.
         21    1    1    2  505  502  0.48173348104E+02 -0.41638851893E+02  0.41802407366E+02  0.76170248235E+02  0.00000000000E+00 0.  1.
          2    1    1    2  501    0  0.33566768843E+02  0.23106021632E+01  0.30695631885E+03  0.30879483243E+03  0.00000000000E+00 0. -1.
<scales pt_clust_3="79.26237" pt_clust_4="60.41927" pt_clust_5="14000.00000" pt_clust_6="33.64620"></scales>
<clustering>
<clus scale="   33.646">  1  6  2 -1</clus>
<clus scale="   60.419">  1  4  2 -1</clus>
<clus scale="   79.262">  1  3  2 -1</clus>
<clus scale="   79.262">  2  3  1 -1</clus>
</clustering>
</event>
<event>
 6    0  0.1361744E+002  0.2789687E+03  0.7546771E-02  0.1096254E+00
         21   -1    0    0  504  502  0.00000000000E+00  0.00000000000E+00  0.95659152787E+02  0.95659152787E+02  0.00000000000E+00 0. -1.
          1   -1    0    0  502    0 -0.00000000000E+00 -0.00000000000E+00 -0.26927880490E+04  0.26927880490E+04  0.00000000000E+00 0. -1.
         21    1    1    2  503  501 -0.25638711149E+02 -0.39246845082E+02 -0.48175911371E+03  0.48403460827E+03  0.00000000000E+00 0. -1.
         21    1    1    2  504  505 -0.36962739798E+02  0.12239665210E+03 -0.54056113575E+02  0.13881371688E+03  0.00000000000E+00 0. -1.
         21    1    1    2  505  503  0.83665220546E+01  0.14190101633E+03 -0.65687718255E+02  0.15659110274E+03  0.00000000000E+00 0. -1.
          1    1    1    2  501    0  0.54234928892E+02 -0.22505082335E+03 -0.19956259507E+04  0.20090077739E+04  0.00000000000E+00 0. -1.
<scales pt_clust_3="38.05847" pt_clust_4="45.03070" pt_clust_5="270.04707" pt_clust_6="38.05847"></scales>
<clustering>
<clus scale="   38.058">  3  6 -1 -1</clus>
<clus scale="   45.031">  4  5 -1 -1</clus>
<clus scale="  270.047">  1  4  2 -1</clus>
<clus scale="  270.047">  1  3  2 -1</clus>
</clustering>
</event>
<event>
 6    0  0.1361744E+002  0.1911905E+03  0.7546771E-02  0.1157392E+00
         -3   -1    0    0    0  501 -0.00000000000E+00  0.00000000000E+00  0.20938977885E+03  0.20938977885E+03  0.00000000000E+00 0.  1.
         21   -1    0    0  503  502  0.00000000000E+00 -0.00000000000E+00 -0.21486187336E+03  0.21486187336E+03  0.00000000000E+00 0.  1.
         21    1    1    2  503  505 -0.96947582280E+02  0.40551432252E+02 -0.64589802447E+02  0.12334948297E+03  0.00000000000E+00 0.  1.
         21    1    1    2  504  502  0.48010645785E+02  0.12327921491E+02  0.25049656548E+02  0.55538140499E+02  0.00000000000E+00 0.  1.
         21    1    1    2  505  501 -0.81750176700E+02  0.16608286778E+01 -0.33617843374E+02  0.88408196088E+02  0.00000000000E+00 0.  1.
         -3    1    1    2    0  504  0.13068711320E+03 -0.54540182421E+02  0.67685894764E+02  0.15695583265E+03  0.00000000000E+00 0.  1.
<scales pt_clust_3="187.60750" pt_clust_4="31.52378" pt_clust_5="33.95557" pt_clust_6="31.52378"></scales>
<clustering>
<clus scale="   31.524">  4  6 -1 -1</clus>
<clus scale="   33.956">  3  5 -1 -1</clus>
<clus scale="  187.607">  2  3  1 -1</clus>
<clus scale="  187.607">  2  3  1 -1</clus>
</clustering>
</event>
<event>
 6    0  0.1361744E+002  0.1547534E+03  0.7546771E-02  0.1194751E+00
         21   -1    0    0  503  502  0.00000000000E+00  0.00000000000E+00  0.71224906337E+02  0.71224906337E+02  0.00000000000E+00 0.  1.
          1   -1    0    0  505    0 -0.00000000000E+00 -0.00000000000E+00 -0.49332152927E+03  0.49332152927E+03  0.00000000000E+00 0.  1.
         21    1    1    2  503  501 -0.36495469189E+02 -0.27265682096E+02 -0.87058556902E+01  0.46380261047E+02  0.00000000000E+00 0.  1.
         21    1    1    2  504  502  0.35288800695E+02  0.30783616686E+02 -0.27154252729E+02  0.54132097244E+02  0.00000000000E+00 0. -1.
         21    1    1    2  505  504  0.12552442994E+03  0.27517451493E+02 -0.17814821180E+03  0.21965968683E+03  0.00000000000E+00 0.  1.
          1    1    1    2  501    0 -0.12431776145E+03 -0.31035386083E+02 -0.20808830272E+03  0.24437439049E+03  0.00000000000E+00 0.  1.
<scales pt_clust_3="45.55586" pt_clust_4="35.98232" pt_clust_5="35.98232" pt_clust_6="142.81347"></scales>
<clustering>
<clus scale="   35.982">  4  5 -1 -1</clus>
<clus scale="   45.556">  1  3  2 -1</clus>
<clus scale="  142.813">  2  6  1 -1</clus>
<clus scale="   45.556">  1  3  2 -1</clus>
</clustering>
</event>
<event>
 6    0  0.1361744E+002  0.1207007E+03  0.7546771E-02  0.1241946E+00
          2   -1    0    0  505    0 -0.00000000000E+00  0.00000000000E+00  0.65959634428E+03  0.65959634428E+03  0.00000000000E+00 0.  1.
         21   -1    0    0  503  502  0.00000000000E+00 -0.00000000000E+00 -0.16442437987E+03  0.16442437987E+03  0.00000000000E+00 0. -1.
         21    1    1    2  503  501  0.81983606471E+02 -0.48560252595E+00 -0.48589781939E+02  0.95302226882E+02  0.00000000000E+00 0. -1.
         21    1    1    2  504  502 -0.89160685736E+01 -0.39520149890E+02  0.15075930101E+02  0.43227562903E+02  0.00000000000E+00 0.  1.
         21    1    1    2  505  504 -0.59274766944E+00 -0.64453585154E+02 -0.57073290644E+02  0.86092836484E+02  0.00000000000E+00 0. -1.
          2    1    1    2  501    0 -0.72474790228E+02  0.10445933757E+03  0.58575910690E+03  0.59939809788E+03  0.00000000000E+00 0.  1.
<scales pt_clust_3="80.10108" pt_clust_4="40.51344" pt_clust_5="120.70066" pt_clust_6="14000.00000"></scales>
<clustering>
<clus scale="   40.513">  2  4  1 -1</clus>
<clus scale="   80.101">  2  3  1 -1</clus>
<clus scale="  120.701">  2  5  1 -1</clus>
<clus scale="   40.513">  2  3  1 -1</clus>
</clustering>
</event>
<event>
 6    0  0.1887692E+002  0.1721772E+03  0.7546771E-02  0.1175596E+00
          2   -1    0    0  504    0 -0.00000000000E+00  0.00000000000E+00  0.13885164893E+04  0.13885164893E+04  0.00000000000E+00 0.  1.
         21   -1    0    0  503  502  0.00000000000E+00 -0.00000000000E+00 -0.42643876040E+03  0.42643876040E+03  0.00000000000E+00 0. -1.
         21    1    1    2  503  505  0.38831114926E+02  0.44094703529E+02 -0.18018351561E+02  0.61456158021E+02  0.00000000000E+00 0. -1.
         21    1    1    2  504  502  0.29999068468E+02 -0.18776962520E+02  0.63168557920E+02  0.72407079351E+02  0.00000000000E+00 0. -1.
         21    1    1    2  505  501 -0.14994006152E+03  0.89118398666E+02 -0.35812708008E+03  0.39834547382E+03  0.00000000000E+00 0. -1.
          2    1    1    2  501    0  0.81109878126E+02 -0.11443613968E+03  0.12750546026E+04  0.12827465385E+04  0.00000000000E+00 0.  1.
<scales pt_clust_3="58.85252" pt_clust_4="35.39094" pt_clust_5="172.17722" pt_clust_6="14000.00000"></scales>
<clustering>
<clus scale="   35.391">  1  4  2 -1</clus>
<clus scale="   58.853">  2  3  1 -1</clus>
<clus scale="  172.177">  2  5  1 -1</clus>
<clus scale="   58.853">  2  3  1 -1</clus>
</clustering>
</event>
<event>
 6    0  0.1361744E+002  0.1834629E+03  0.7546771E-02  0.1164493E+00
          2   -1    0    0  504    0 -0.00000000000E+00  0.00000000000E+00  0.25742011920E+04  0.25742011920E+04  0.00000000000E+00 0.  1.
         21   -1    0    0  503  502  0.00000000000E+00 -0.00000000000E+00 -0.43132166224E+02  0.43132166224E+02  0.00000000000E+00 0.  1.
         21    1    1    2  503  501  0.30501678744E+02 -0.21781191652E+02  0.25031666037E+03  0.25310709823E+03  0.00000000000E+00 0. -1.
         21    1    1    2  504  505 -0.86354510147E+02  0.46059242319E+02  0.11955123272E+03  0.15450259697E+03  0.00000000000E+00 0.  1.
         21    1    1    2  505  502 -0.59416965050E+02  0.46162784846E+02  0.41900942609E+02  0.86122397970E+02  0.00000000000E+00 0.  1.
          2    1    1    2  501    0  0.11526979645E+03 -0.70440835513E+02  0.21193001901E+04  0.21236012651E+04  0.00000000000E+00 0.  1.
<scales pt_clust_3="32.91310" pt_clust_4="178.41968" pt_clust_5="39.98252" pt_clust_6="32.91310"></scales>
<clustering>
<clus scale="   32.913">  3  6 -1 -1</clus>
<clus scale="   39.983">  4  5 -1 -1</clus>
<clus scale="  178.420">  2  4  1 -1</clus>
<clus scale="  178.420">  2  3  1 -1</clus>
</clustering>
</event>
<event>
 6    0  0.1361744E+002  0.7310368E+02  0.7546771E-02  0.1349846E+00
          2   -1    0    0  504    0 -0.00000000000E+00  0.00000000000E+00  0.83787816785E+03  0.83787816785E+03  0.00000000000E+00 0. -1.
         21   -1    0    0  505  502  0.00000000000E+00 -0.00000000000E+00 -0.29637848831E+03  0.29637848831E+03  0.00000000000E+00 0.  1.
         21    1    1    2  503  501  0.19355425490E+02 -0.57300809457E+02  0.21721042124E+03  0.22547368439E+03  0.00000000000E+00 0. -1.
         21    1    1    2  504  502  0.45132663626E+02 -0.14075672863E+01  0.43012708833E+02  0.62362101414E+02  0.00000000000E+00 0. -1.
         21    1    1    2  505  503 -0.46114219635E+02 -0.32324072006E+02 -0.27588433539E+03  0.28157331797E+03  0.00000000000E+00 0.  1.
          2    1    1    2  501    0 -0.18373869481E+02  0.91032448749E+02  0.55716088486E+03  0.56484755237E+03  0.00000000000E+00 0. -1.
<scales pt_clust_3="14000.00000" pt_clust_4="45.15461" pt_clust_5="56.18402" pt_clust_6="73.10368"></scales>
<clustering>
<clus scale="   45.155">  1  4  2 -1</clus>
<clus scale="   56.184">  2  5  1 -1</clus>
<clus scale="   73.104">  1  6  2 -1</clus>
<clus scale="   56.184">  2  3  1 -1</clus>
</clustering>
</event>
<event>
 6    0  0.1361744E+002  0.1122163E+03  0.7546771E-02  0.1256520E+00
         21   -1    0    0  504  502  0.00000000000E+00  0.00000000000E+00  0.13181469738E+02  0.13181469738E+02  0.00000000000E+00 0.  1.
          2   -1    0    0  503    0 -0.00000000000E+00 -0.00000000000E+00 -0.15952727854E+04  0.15952727854E+04  0.00000000000E+00 0.  1.
         21    1    1    2  503  505 -0.19921049606E+02 -0.96736435229E+02 -0.77030883055E+03  0.77661475684E+03  0.00000000000E+00 0.  1.
         21    1    1    2  504  501 -0.34783958118E+02  0.71496369662E+02 -0.41438512775E+03  0.42194394025E+03  0.00000000000E+00 0.  1.
         21    1    1    2  505  502  0.42091798649E+02 -0.12021616039E+02 -0.90980305362E+02  0.10096363073E+03  0.00000000000E+00 0.  1.
          2    1    1    2  501    0  0.12613209075E+02  0.37261681607E+02 -0.30641705200E+03  0.30893192732E+03  0.00000000000E+00 0.  1.
<scales pt_clust_3="101.43269" pt_clust_4="33.76239" pt_clust_5="43.77486" pt_clust_6="33.76239"></scales>
<clustering>
<clus scale="   33.762">  4  6 -1 -1</clus>
<clus scale="   43.775">  1  5  2 -1</clus>
<clus scale="  101.433">  2  3  1 -1</clus>
<clus scale="   43.775">  1  3  2 -1</clus>
</clustering>
</event>
<event>
 6    0  0.1361744E+002  0.1181654E+03  0.7546771E-02  0.1246155E+00
          2   -1    0    0  504    0 -0.00000000000E+00  0.00000000000E+00  0.26122280461E+04  0.26122280461E+04  0.00000000000E+00 0. -1.
         21   -1    0    0  503  502  0.00000000000E+00 -0.00000000000E+00 -0.18140147721E+03  0.18140147721E+03  0.00000000000E+00 0.  1.
         21    1    1    2  503  501  0.48227158385E+02  0.56964514654E+02 -0.13102709539E+03  0.15079427861E+03  0.00000000000E+00 0.  1.
         21    1    1    2  504  505  0.23438749419E+02  0.32763890011E+02  0.10156429847E+03  0.10926186063E+03  0.00000000000E+00 0. -1.
         21    1    1    2  505  502  0.62064720376E+02 -0.10757520051E+02 -0.51934268820E+01  0.63203840356E+02  0.00000000000E+00 0.  1.
          2    1    1    2  501    0 -0.13373062818E+03 -0.78970884614E+02  0.24654827927E+04  0.24703695437E+04  0.00000000000E+00 0. -1.
<scales pt_clust_3="14000.00000" pt_clust_4="40.28458" pt_clust_5="63.19398" pt_clust_6="118.16535"></scales>
<clustering>
<clus scale="   40.285">  1  4  2 -1</clus>
<clus scale="   63.194">  2  5  1 -1</clus>
<clus scale="  118.165">  1  6  2 -1</clus>
<clus scale="   63.194">  2  3  1 -1</clus>
</clustering>
</event>
<event>
 6    0  0.1361744E+002  0.1385692E+03  0.7546771E-02  0.1215267E+00
         21   -1    0    0  505  502  0.00000000000E+00  0.00000000000E+00  0.77194247980E+03  0.77194247980E+03  0.00000000000E+00 0.  1.
          2   -1    0    0  503    0 -0.00000000000E+00 -0.00000000000E+00 -0.22677712956E+03  0.22677712956E+03  0.00000000000E+00 0. -1.
         21    1    1    2  503  502 -0.77391943104E+02 -0.84395677881E+02  0.65399747897E+03  0.66394641787E+03  0.00000000000E+00 0.  1.
         21    1    1    2  504  501  0.89784031118E+02  0.61645135219E+02 -0.21180945941E+02  0.11095011226E+03  0.00000000000E+00 0. -1.
         21    1    1    2  505  504 -0.16410970438E+02 -0.29684502566E+02  0.58984955947E+02  0.68042006668E+02  0.00000000000E+00 0. -1.
          2    1    1    2  501    0  0.40188824242E+01  0.52435045227E+02 -0.14663613874E+03  0.15578107256E+03  0.00000000000E+00 0. -1.
<scales pt_clust_3="138.56922" pt_clust_4="14000.00000" pt_clust_5="33.91887" pt_clust_6="52.38978"></scales>
<clustering>
<clus scale="   33.919">  1  5  2 -1</clus>
<clus scale="   52.390">  2  6  1 -1</clus>
<clus scale="  138.569">  1  3  2 -1</clus>
<clus scale="   33.919">  1  3  2 -1</clus>
</clustering>
</event>
<event>
 6    0  0.1361744E+002  0.1114933E+03  0.7546771E-02  0.1257829E+00
         21   -1    0    0  503  502  0.00000000000E+00  0.00000000000E+00  0.81830325558E+02  0.81830325558E+02  0.00000000000E+00 0.  1.
          1   -1    0    0  505    0 -0.00000000000E+00 -0.00000000000E+00 -0.21258311140E+04  0.21258311140E+04  0.00000000000E+00 0.  1.
         21    1    1    2  503  504 -0.13785501685E+00 -0.36574343071E+02 -0.23388191602E+02  0.43413236248E+02  0.00000000000E+00 0.  1.
         21    1    1    2  504  501 -0.47396723602E+02 -0.21275569934E+02 -0.12866708311E+04  0.12877192734E+04  0.00000000000E+00 0.  1.
         21    1    1    2  505  502  0.10143766314E+03  0.47354608436E+02  0.25737653475E+02  0.11486725055E+03  0.00000000000E+00 0.  1.
          1    1    1    2  501    0 -0.53903084522E+02  0.10495304570E+02 -0.75967941922E+03  0.76166167943E+03  0.00000000000E+00 0.  1.
<scales pt_clust_3="36.57460" pt_clust_4="43.96191" pt_clust_5="101.95925" pt_clust_6="43.96191"></scales>
<clustering>
<clus scale="   36.575">  1  3  2 -1</clus>
<clus scale="   43.962">  4  6 -1 -1</clus>
<clus scale="  101.959">  1  5  2 -1</clus>
<clus scale="   36.575">  1  3  2 -1</clus>
</clustering>
</event>
<event>
 6    0  0.1361744E+002  0.2275826E+03  0.7546771E-02  0.1128353E+00
         21   -1    0    0  503  502  0.00000000000E+00  0.00000000000E+00  0.13054555529E+03  0.13054555529E+03  0.00000000000E+00 0. -1.
         -2   -1    0    0    0  501 -0.00000000000E+00 -0.00000000000E+00 -0.12917819958E+04  0.12917819958E+04  0.00000000000E+00 0.  1.
         21    1    1    2  503  501  0.12972415821E+03 -0.68856432721E+02 -0.18073315078E+01  0.14687692806E+03  0.00000000000E+00 0. -1.
         21    1    1    2  504  502  0.11298667206E+01 -0.10853756866E+03 -0.18981477609E+02  0.11019063890E+03  0.00000000000E+00 0. -1.
         21    1    1    2  505  504 -0.10998468235E+02  0.50780665589E+02 -0.13209745047E+03  0.14194850729E+03  0.00000000000E+00 0.  1.
         -2    1    1    2    0  505 -0.11985555669E+03  0.12661333579E+03 -0.10083501809E+04  0.10233114769E+04  0.00000000000E+00 0.  1.
<scales pt_clust_3="207.78651" pt_clust_4="108.54345" pt_clust_5="50.68044" pt_clust_6="50.68044"></scales>
<clustering>
<clus scale="   50.680">  5  6 -1 -1</clus>
<clus scale="  108.543">  1  4  2 -1</clus>
<clus scale="  207.787">  1  3  2 -1</clus>
<clus scale="  108.543">  1  3  2 -1</clus>
</clustering>
</event>
<event>
 6    0  0.1361744E+002  0.1093993E+03  0.7546771E-02  0.1261686E+00
         21   -1    0    0  501  502  0.00000000000E+00  0.00000000000E+00  0.97675582577E+03  0.97675582577E+03  0.00000000000E+00 0. -1.
         -2   -1    0    0    0  501 -0.00000000000E+00 -0.00000000000E+00 -0.17837147609E+03  0.17837147609E+03  0.00000000000E+00 0. -1.
         21    1    1    2  503  502  0.27472066132E+01  0.64972409276E+02  0.50268331579E+03  0.50687224927E+03  0.00000000000E+00 0. -1.
         21    1    1    2  504  505 -0.38166767803E+02 -0.40470657914E+02 -0.84767884863E+02  0.10139117625E+03  0.00000000000E+00 0. -1.
         21    1    1    2  505  503  0.89503187820E+02 -0.17111461944E+02  0.44962182708E+03  0.45876291279E+03  0.00000000000E+00 0. -1.
         -2    1    1    2    0  504 -0.54083626630E+02 -0.73902894183E+01 -0.69152908336E+02  0.88100963550E+02  0.00000000000E+00 0. -1.
<scales pt_clust_3="65.03046" pt_clust_4="37.26037" pt_clust_5="102.72949" pt_clust_6="37.26037"></scales>
<clustering>
<clus scale="   37.260">  4  6 -1 -1</clus>
<clus scale="   65.030">  1  3  2 -1</clus>
<clus scale="  102.729">  1  5  2 -1</clus>
<clus scale="   65.030">  1  3  2 -1</clus>
</clustering>
</event>
<event>
 6    0  0.1361744E+002  0.1241043E+03  0.7546771E-02  0.1236476E+00
         21   -1    0    0  501  502  0.00000000000E+00  0.00000000000E+00  0.13617509928E+04  0.13617509928E+04  0.00000000000E+00 0. -1.
          2   -1    0    0  504    0 -0.00000000000E+00 -0.00000000000E+00 -0.45439738196E+03  0.45439738196E+03  0.00000000000E+00 0. -1.
         21    1    1    2  503  505  0.60099598160E+02  0.98825317585E+02  0.11793070716E+04  0.11849656426E+04  0.00000000000E+00 0. -1.
         21    1    1    2  504  503 -0.81994747306E+02 -0.10713207724E+03 -0.20475092673E+03  0.24520065774E+03  0.00000000000E+00 0. -1.
         21    1    1    2  505  502 -0.28284591200E+02  0.21379088402E+02  0.15438711421E+03  0.15840601174E+03  0.00000000000E+00 0. -1.
          2    1    1    2  501    0  0.50179740346E+02 -0.13072328748E+02 -0.22158964820E+03  0.22757606269E+03  0.00000000000E+00 0. -1.
<scales pt_clust_3="124.10434" pt_clust_4="14000.00000" pt_clust_5="35.45537" pt_clust_6="51.77319"></scales>
<clustering>
<clus scale="   35.455">  1  5  2 -1</clus>
<clus scale="   51.773">  2  6  1 -1</clus>
<clus scale="  124.104">  1  3  2 -1</clus>
<clus scale="   35.455">  1  3  2 -1</clus>
</clustering>
</event>
<event>
 6    0  0.1361744E+002  0.9021656E+02  0.7546771E-02  0.1302328E+00
          2   -1    0    0  504    0 -0.00000000000E+00  0.00000000000E+00  0.28252387049E+04  0.28252387049E+04  0.00000000000E+00 0. -1.
         21   -1    0    0  503  502  0.00000000000E+00 -0.00000000000E+00 -0.42927006907E+02  0.42927006907E+02  0.00000000000E+00 0. -1.
         21    1    1    2  503  501  0.26497364439E+02  0.18177265635E+02  0.39935261028E+01  0.32380110545E+02  0.00000000000E+00 0. -1.
         21    1    1    2  504  505 -0.31702710557E+02  0.15531504626E+01  0.31294863165E+03  0.31455416097E+03  0.00000000000E+00 0. -1.
         21    1    1    2  505  502 -0.59153564828E+02  0.65840086859E+02  0.46478044956E+02  0.99971345556E+02  0.00000000000E+00 0. -1.
          2    1    1    2  501    0  0.64358910946E+02 -0.85570502956E+02  0.24188914953E+04  0.24212600948E+04  0.00000000000E+00 0. -1.
<scales pt_clust_3="31.95026" pt_clust_4="31.74073" pt_clust_5="90.21656" pt_clust_6="14000.00000"></scales>
<clustering>
<clus scale="   31.741">  1  4  2 -1</clus>
<clus scale="   31.950">  2  3  1 -1</clus>
<clus scale="   90.217">  2  5  1 -1</clus>
<clus scale="   31.950">  2  3  1 -1</clus>
</clustering>
</event>
<event>
 6    0  0.1361744E+002  0.9253153E+02  0.7546771E-02  0.1296834E+00
         21   -1    0    0  503  502  0.00000000000E+00  0.00000000000E+00  0.38283852619E+02  0.38283852619E+02  0.00000000000E+00 0.  1.
          2   -1    0    0  505    0 -0.00000000000E+00 -0.00000000000E+00 -0.17779857201E+04  0.17779857201E+04  0.00000000000E+00 0. -1.
         21    1    1    2  503  501  0.65227561454E+02 -0.15549362783E+02 -0.23746259363E+03  0.24674865922E+03  0.00000000000E+00 0.  1.
         21    1    1    2  504  502 -0.40027002091E+02 -0.13608439577E+02 -0.11699151822E+02  0.43865939833E+02  0.00000000000E+00 0.  1.
         21    1    1    2  505  504 -0.11486699139E+03  0.16060228879E+02 -0.19454242544E+03  0.22649307265E+03  0.00000000000E+00 0.  1.
          2    1    1    2  501    0  0.89666432030E+02  0.13097573481E+02 -0.12959976966E+04  0.12991619010E+04  0.00000000000E+00 0. -1.
<scales pt_clust_3="59.75807" pt_clust_4="42.27707" pt_clust_5="92.53153" pt_clust_6="14000.00000"></scales>
<clustering>
<clus scale="   42.277">  1  4  2 -1</clus>
<clus scale="   59.758">  1  3  2 -1</clus>
<clus scale="   92.532">  1  5  2 -1</clus>
<clus scale="   42.277">  1  3  2 -1</clus>
</clustering>
</event>
<event>
 6    0  0.1361744E+002  0.1545897E+03  0.7546771E-02  0.1194944E+00
          2   -1    0    0  504    0 -0.00000000000E+00  0.00000000000E+00  0.12938640745E+04  0.12938640745E+04  0.00000000000E+00 0. -1.
         21   -1    0    0  503  502  0.00000000000E+00 -0.00000000000E+00 -0.22109487981E+03  0.22109487981E+03  0.00000000000E+00 0.  1.
         21    1    1    2  503  501  0.29394083668E+02 -0.10781714346E+03 -0.16276715289E+03  0.19743782474E+03  0.00000000000E+00 0.  1.
         21    1    1    2  504  505  0.38589466525E+02  0.16355496873E+02  0.28616578998E+03  0.28921879012E+03  0.00000000000E+00 0.  1.
         21    1    1    2  505  502 -0.17687858738E+02 -0.48868182141E+02 -0.13713508145E+02  0.53749603516E+02  0.00000000000E+00 0.  1.
          2    1    1    2  501    0 -0.50295691455E+02  0.14032982873E+03  0.96308406570E+03  0.97455273589E+03  0.00000000000E+00 0. -1.
<scales pt_clust_3="14000.00000" pt_clust_4="41.91240" pt_clust_5="51.40712" pt_clust_6="154.58971"></scales>
<clustering>
<clus scale="   41.912">  1  4  2 -1</clus>
<clus scale="   51.407">  2  5  1 -1</clus>
<clus scale="  154.590">  1  6  2 -1</clus>
<clus scale="   51.407">  2  3  1 -1</clus>
</clustering>
</event>
<event>
 6    0  0.1361744E+002  0.1056096E+03  0.7546771E-02  0.1268923E+00
          2   -1    0    0  504    0 -0.00000000000E+00  0.00000000000E+00  0.16101245253E+04  0.16101245253E+04  0.00000000000E+00 0. -1.
         21   -1    0    0  505  502  0.00000000000E+00 -0.00000000000E+00 -0.47974994726E+02  0.47974994726E+02  0.00000000000E+00 0.  1.
         21    1    1    2  503  501  0.77751150551E+02 -0.10106313738E+02  0.25105794025E+03  0.26301609904E+03  0.00000000000E+00 0.  1.
         21    1    1    2  504  502 -0.33239528271E+02  0.13744059687E+02  0.63520032181E+02  0.72996985586E+02  0.00000000000E+00 0. -1.
         21    1    1    2  505  503 -0.88231853838E+02  0.43494188206E+02  0.30033593095E+02  0.10285242415E+03  0.00000000000E+00 0.  1.
          2    1    1    2  501    0  0.43720231558E+02 -0.47131934155E+02  0.12175379651E+04  0.12192340113E+04  0.00000000000E+00 0. -1.
<scales pt_clust_3="105.60963" pt_clust_4="35.96895" pt_clust_5="14000.00000" pt_clust_6="63.64714"></scales>
<clustering>
<clus scale="   35.969">  2  4  1 -1</clus>
<clus scale="   63.647">  1  6  2 -1</clus>
<clus scale="  105.610">  1  3  2 -1</clus>
<clus scale="   35.969">  2  3  1 -1</clus>
</clustering>
</event>
<event>
 6    0  0.1361744E+002  0.1062595E+03  0.7546771E-02  0.1267658E+00
          1   -1    0    0  503    0 -0.00000000000E+00  0.00000000000E+00  0.10708777475E+04  0.10708777475E+04  0.00000000000E+00 0.  1.
         21   -1    0    0  504  502  0.00000000000E+00 -0.00000000000E+00 -0.13971183010E+03  0.13971183010E+03  0.00000000000E+00 0. -1.
         21    1    1    2  503  502 -0.10758007689E+02 -0.46287959763E+02  0.15552574749E+03  0.16262400832E+03  0.00000000000E+00 0.  1.
         21    1    1    2  504  505  0.56401152728E+02  0.27971598944E+02 -0.96783847208E+02  0.11545827583E+03  0.00000000000E+00 0. -1.
         21    1    1    2  505  501  0.30492905222E+01  0.76791023270E+02  0.23762744137E+02  0.80441453471E+02  0.00000000000E+00 0.  1.
          1    1    1    2  501    0 -0.48692435562E+02 -0.58474662451E+02  0.84866127300E+03  0.85206584001E+03  0.00000000000E+00 0.  1.
<scales pt_clust_3="47.52168" pt_clust_4="62.64817" pt_clust_5="106.25946" pt_clust_6="14000.00000"></scales>
<clustering>
<clus scale="   47.522">  1  3  2 -1</clus>
<clus scale="   62.648">  2  4  1 -1</clus>
<clus scale="  106.259">  2  5  1 -1</clus>
<clus scale="   62.648">  2  3  1 -1</clus>
</clustering>
</event>
<event>
 6    0  0.1361744E+002  0.1243411E+03  0.7546771E-02  0.1236103E+00
         21   -1    0    0  504  502  0.00000000000E+00  0.00000000000E+00  0.10404700046E+03  0.10404700046E+03  0.00000000000E+00 0. -1.
          2   -1    0    0  503    0 -0.00000000000E+00 -0.00000000000E+00 -0.11076048289E+04  0.11076048289E+04  0.00000000000E+00 0.  1.
         21    1    1    2  503  502  0.44142089864E+02  0.22231707486E+02 -0.32920609056E+03  0.33289551360E+03  0.00000000000E+00 0. -1.
         21    1    1    2  504  505 -0.57567994611E+02  0.30423439122E+02  0.57063581808E+02  0.86578935200E+02  0.00000000000E+00 0. -1.
         21    1    1    2  505  501 -0.51811530190E+02  0.95022660567E+01  0.25155417824E+01  0.52735715329E+02  0.00000000000E+00 0.  1.
          2    1    1    2  501    0  0.65237434937E+02 -0.62157412664E+02 -0.73393086145E+03  0.73944166522E+03  0.00000000000E+00 0.  1.
<scales pt_clust_3="49.42442" pt_clust_4="43.14462" pt_clust_5="43.14462" pt_clust_6="114.71601"></scales>
<clustering>
<clus scale="   43.145">  4  5 -1 -1</clus>
<clus scale="   49.424">  2  3  1 -1</clus>
<clus scale="  114.716">  2  6  1 -1</clus>
<clus scale="  124.341">  1  3  2 -1</clus>
</clustering>
</event>
<event>
 6    0  0.1361744E+002  0.1283223E+03  0.7546771E-02  0.1229967E+00
         -1   -1    0    0    0  501 -0.00000000000E+00  0.00000000000E+00  0.12132586930E+04  0.12132586930E+04  0.00000000000E+00 0. -1.
         21   -1    0    0  503  502  0.00000000000E+00 -0.00000000000E+00 -0.51555741626E+03  0.51555741626E+03  0.00000000000E+00 0.  1.
         21    1    1    2  503  501  0.15176608027E+02 -0.34070043842E+02 -0.21474198830E+03  0.21795691973E+03  0.00000000000E+00 0.  1.
         21    1    1    2  504  502 -0.17473163339E+02 -0.24715926935E+02 -0.25493881581E+03  0.25672940675E+03  0.00000000000E+00 0.  1.
         21    1    1    2  505  504 -0.11749614194E+03  0.10017468425E+03  0.11097408305E+03  0.19014614864E+03  0.00000000000E+00 0.  1.
         -1    1    1    2    0  505  0.11979269725E+03 -0.41388713471E+02  0.10564079978E+04  0.10639836341E+04  0.00000000000E+00 0. -1.
<scales pt_clust_3="54.66194" pt_clust_4="30.26861" pt_clust_5="128.32233" pt_clust_6="14000.00000"></scales>
<clustering>
<clus scale="   30.269">  2  4  1 -1</clus>
<clus scale="   54.662">  2  3  1 -1</clus>
<clus scale="  128.322">  2  5  1 -1</clus>
<clus scale="   30.269">  2  3  1 -1</clus>
</clustering>
</event>
<event>
 6    0  0.1361744E+002  0.1819633E+03  0.7546771E-02  0.1165916E+00
          2   -1    0    0  502    0 -0.00000000000E+00  0.00000000000E+00  0.13477702475E+04  0.13477702475E+04  0.00000000000E+00 0.  1.
         21   -1    0    0  505  502  0.00000000000E+00 -0.00000000000E+00 -0.55095876123E+02  0.55095876123E+02  0.00000000000E+00 0.  1.
         21    1    1    2  503  504 -0.94518143153E+02  0.46910264758E+02  0.74194586617E+02  0.12899259284E+03  0.00000000000E+00 0.  1.
         21    1    1    2  504  501  0.12362012689E+02 -0.39593864566E+02  0.38323541642E+03  0.38547357609E+03  0.00000000000E+00 0.  1.
         21    1    1    2  505  503 -0.41115020674E+02  0.52881572362E+02  0.33297356441E+02  0.74803874007E+02  0.00000000000E+00 0.  1.
          2    1    1    2  501    0  0.12327115114E+03 -0.60197972555E+02  0.80194701186E+03  0.81359608064E+03  0.00000000000E+00 0.  1.
<scales pt_clust_3="173.14295" pt_clust_4="37.92072" pt_clust_5="32.10529" pt_clust_6="37.92072"></scales>
<clustering>
<clus scale="   32.105">  3  5 -1 -1</clus>
<clus scale="   37.921">  4  6 -1 -1</clus>
<clus scale="  173.143">  2  3  1 -1</clus>
<clus scale="  173.143">  2  3  1 -1</clus>
</clustering>
</event>
<event>
 6    0  0.1361744E+002  0.1107870E+03  0.7546771E-02  0.1259119E+00
         21   -1    0    0  504  502  0.00000000000E+00  0.00000000000E+00  0.26968525031E+03  0.26968525031E+03  0.00000000000E+00 0. -1.
          2   -1    0    0  503    0 -0.00000000000E+00 -0.00000000000E+00 -0.12507901218E+04  0.12507901218E+04  0.00000000000E+00 0.  1.
         21    1    1    2  503  502  0.11701993523E+03  0.47067872761E+02  0.12844254668E+03  0.18001815933E+03  0.00000000000E+00 0. -1.
         21    1    1    2  504  505 -0.79443966372E+02  0.58037349397E+02  0.83430129589E+02  0.12899714819E+03  0.00000000000E+00 0. -1.
         21    1    1    2  505  501 -0.34779658610E+01 -0.12399085426E+03 -0.43120592216E+03  0.44869184915E+03  0.00000000000E+00 0.  1.
          2    1    1    2  501    0 -0.34098003001E+02  0.18885632101E+02 -0.76177162557E+03  0.76276821541E+03  0.00000000000E+00 0.  1.
<scales pt_clust_3="14000.00000" pt_clust_4="100.18928" pt_clust_5="110.78698" pt_clust_6="38.97872"></scales>
<clustering>
<clus scale="   38.979">  2  6  1 -1</clus>
<clus scale="  100.189">  1  4  2 -1</clus>
<clus scale="  110.787">  2  5  1 -1</clus>
<clus scale="  100.189">  1  3  2 -1</clus>
</clustering>
</event>
<event>
 6    0  0.1361744E+002  0.8651692E+02  0.7546771E-02  0.1311513E+00
         21   -1    0    0  504  502  0.00000000000E+00  0.00000000000E+00  0.11045831250E+03  0.11045831250E+03  0.00000000000E+00 0.  1.
          2   -1    0    0  503    0 -0.00000000000E+00 -0.00000000000E+00 -0.65968775076E+03  0.65968775076E+03  0.00000000000E+00 0. -1.
         21    1    1    2  503  505  0.20143737259E+01 -0.32067458519E+02 -0.14442213513E+03  0.14795314364E+03  0.00000000000E+00 0.  1.
         21    1    1    2  504  501 -0.87344838766E+01 -0.81422149609E+02  0.70643330873E+02  0.10814960866E+03  0.00000000000E+00 0.  1.
         21    1    1    2  505  502 -0.48171067664E+02  0.18989792123E+02 -0.40964681740E+02  0.66024004080E+02  0.00000000000E+00 0.  1.
          2    1    1    2  501    0  0.54891177814E+02  0.94499816005E+02 -0.43448595227E+03  0.44801930689E+03  0.00000000000E+00 0. -1.
<scales pt_clust_3="32.13066" pt_clust_4="14000.00000" pt_clust_5="50.44972" pt_clust_6="86.51692"></scales>
<clustering>
<clus scale="   32.131">  2  3  1 -1</clus>
<clus scale="   50.450">  1  5  2 -1</clus>
<clus scale="   86.517">  2  6  1 -1</clus>
<clus scale="   50.450">  1  3  2 -1</clus>
</clustering>
</event>
<event>
 6    0  0.1361744E+002  0.1070027E+03  0.7546771E-02  0.1266223E+00
         21   -1    0    0  505  502  0.00000000000E+00  0.00000000000E+00  0.45852382466E+03  0.45852382466E+03  0.00000000000E+00 0. -1.
          1   -1    0    0  503    0 -0.00000000000E+00 -0.00000000000E+00 -0.15331542430E+03  0.15331542430E+03  0.00000000000E+00 0. -1.
         21    1    1    2  503  504  0.15006090778E+03 -0.86395700958E+02  0.15598238819E+03  0.23305149348E+03  0.00000000000E+00 0. -1.
         21    1    1    2  504  502  0.36823193176E+01  0.96041094090E+02  0.16999877822E+03  0.19528706006E+03  0.00000000000E+00 0. -1.
         21    1    1    2  505  501 -0.53437350146E+02  0.93274086427E+01  0.37509137980E+02  0.65950635892E+02  0.00000000000E+00 0. -1.
          1    1    1    2  501    0 -0.10030587695E+03 -0.18972801775E+02 -0.58281904032E+02  0.11755005953E+03  0.00000000000E+00 0. -1.
<scales pt_clust_3="107.00266" pt_clust_4="102.26601" pt_clust_5="54.24528" pt_clust_6="14000.00000"></scales>
<clustering>
<clus scale="   54.245">  1  5  2 -1</clus>
<clus scale="  102.266">  1  4  2 -1</clus>
<clus scale="  107.003">  1  3  2 -1</clus>
<clus scale="   54.245">  1  3  2 -1</clus>
</clustering>
</event>
<event>
 6    0  0.1361744E+002  0.1025827E+03  0.7546771E-02  0.1274957E+00
         -4   -1    0    0    0  501 -0.00000000000E+00  0.00000000000E+00  0.42263067883E+03  0.42263067883E+03  0.00000000000E+00 0.  1.
         21   -1    0    0  503  502  0.00000000000E+00 -0.00000000000E+00 -0.35962337994E+03  0.35962337994E+03  0.00000000000E+00 0.  1.
         21    1    1    2  503  504 -0.10053015298E+02  0.43363097019E+02 -0.13566853515E+03  0.14278435744E+03  0.00000000000E+00 0.  1.
         21    1    1    2  504  505 -0.32980030025E+02  0.23120378109E+02 -0.18842560757E+03  0.19268223544E+03  0.00000000000E+00 0.  1.
         21    1    1    2  505  501 -0.44354103166E+02 -0.11444960267E+03  0.19634095370E+03  0.23155078950E+03  0.00000000000E+00 0. -1.
         -4    1    1    2    0  502  0.87387148488E+02  0.47966127544E+02  0.19076048791E+03  0.21523667639E+03  0.00000000000E+00 0.  1.
<scales pt_clust_3="86.60728" pt_clust_4="33.34626" pt_clust_5="14000.00000" pt_clust_6="102.58266"></scales>
<clustering>
<clus scale="   33.346">  3  4 -1 -1</clus>
<clus scale="   86.607">  2  3  1 -1</clus>
<clus scale="  102.583">  1  6  2 -1</clus>
<clus scale="   86.607">  2  3  1 -1</clus>
</clustering>
</event>
<event>
 6    0  0.1361744E+002  0.1143635E+03  0.7546771E-02  0.1252696E+00
         21   -1    0    0  501  502  0.00000000000E+00  0.00000000000E+00  0.19271895402E+03  0.19271895402E+03  0.00000000000E+00 0.  1.
          2   -1    0    0  503    0 -0.00000000000E+00 -0.00000000000E+00 -0.53102309683E+03  0.53102309683E+03  0.00000000000E+00 0. -1.
         21    1    1    2  503  504  0.63056337326E+01 -0.50727563595E+02 -0.80567701972E+02  0.95415938533E+02  0.00000000000E+00 0. -1.
         21    1    1    2  504  505 -0.94041744491E+02  0.28812416726E+02  0.68079420895E+02  0.11961944915E+03  0.00000000000E+00 0.  1.
         21    1    1    2  505  502  0.27405819940E+02  0.78338082051E+02  0.67396131433E+02  0.10691198529E+03  0.00000000000E+00 0.  1.
          2    1    1    2  501    0  0.60330290818E+02 -0.56422935182E+02 -0.39321199317E+03  0.40179467788E+03  0.00000000000E+00 0. -1.
<scales pt_clust_3="51.11797" pt_clust_4="114.36346" pt_clust_5="80.95737" pt_clust_6="14000.00000"></scales>
<clustering>
<clus scale="   51.118">  2  3  1 -1</clus>
<clus scale="   80.957">  1  5  2 -1</clus>
<clus scale="  114.363">  1  4  2 -1</clus>
<clus scale="   80.957">  1  3  2 -1</clus>
</clustering>
</event>
<event>
 6    0  0.1361744E+002  0.1443960E+03  0.7546771E-02  0.1207533E+00
         21   -1    0    0  505  502  0.00000000000E+00  0.00000000000E+00  0.11012545882E+03  0.11012545882E+03  0.00000000000E+00 0. -1.
          1   -1    0    0  504    0 -0.00000000000E+00 -0.00000000000E+00 -0.74307759637E+03  0.74307759637E+03  0.00000000000E+00 0.  1.
         21    1    1    2  503  501 -0.10028948500E+03 -0.13714625679E+02 -0.35844308782E+03  0.37246143285E+03  0.00000000000E+00 0. -1.
         21    1    1    2  504  502  0.25360205158E+02  0.43004929995E+02  0.20546603201E+02  0.53988210867E+02  0.00000000000E+00 0. -1.
         21    1    1    2  505  503  0.10653160540E+03 -0.13074714150E+02  0.20443965751E+02  0.10926063717E+03  0.00000000000E+00 0. -1.
          1    1    1    2  501    0 -0.31602325559E+02 -0.16215590167E+02 -0.31549961868E+03  0.31749277430E+03  0.00000000000E+00 0.  1.
<scales pt_clust_3="35.27865" pt_clust_4="49.92558" pt_clust_5="131.54251" pt_clust_6="35.27865"></scales>
<clustering>
<clus scale="   35.279">  3  6 -1 -1</clus>
<clus scale="   49.926">  1  4  2 -1</clus>
<clus scale="  131.543">  1  5  2 -1</clus>
<clus scale="   49.926">  1  3  2 -1</clus>
</clustering>
</event>
<event>
 6    0  0.1361744E+002  0.1484588E+03  0.7546771E-02  0.1202380E+00
         21   -1    0    0  505  502  0.00000000000E+00  0.00000000000E+00  0.16354440431E+03  0.16354440431E+03  0.00000000000E+00 0. -1.
          1   -1    0    0  503    0 -0.00000000000E+00 -0.00000000000E+00 -0.15124432313E+03  0.15124432313E+03  0.00000000000E+00 0. -1.
         21    1    1    2  503  504  0.14481499060E+02  0.65605664462E+02 -0.15743855415E+02  0.69004970893E+02  0.00000000000E+00 0. -1.
         21    1    1    2  504  502 -0.19450137627E+02  0.78261832784E+02 -0.30473700213E+02  0.86208286893E+02  0.00000000000E+00 0. -1.
         21    1    1    2  505  501 -0.64189472492E+01 -0.86015213977E+02  0.50820876825E+02  0.10011284353E+03  0.00000000000E+00 0. -1.
          1    1    1    2  501    0  0.11387585816E+02 -0.57852283270E+02  0.76967599810E+01  0.59462626115E+02  0.00000000000E+00 0. -1.
<scales pt_clust_3="32.04468" pt_clust_4="148.17251" pt_clust_5="30.01012" pt_clust_6="30.01012"></scales>
<clustering>
<clus scale="   30.010">  5  6 -1 -1</clus>
<clus scale="   32.045">  3  4 -1 -1</clus>
<clus scale="  148.173">  2  3  1 -1</clus>
<clus scale="  148.459">  1  3  2 -1</clus>
</clustering>
</event>
<event>
 6    0  0.1361744E+002  0.2062575E+03  0.7546771E-02  0.1144564E+00
          2   -1    0    0  504    0 -0.00000000000E+00  0.00000000000E+00  0.20303419352E+04  0.20303419352E+04  0.00000000000E+00 0. -1.
         21   -1    0    0  505  502  0.00000000000E+00 -0.00000000000E+00 -0.19350116882E+04  0.19350116882E+04  0.00000000000E+00 0.  1.
         21    1    1    2  503  501  0.55374808136E+02 -0.19290402651E+02 -0.31436559794E+03  0.31978777053E+03  0.00000000000E+00 0.  1.
         21    1    1    2  504  502 -0.32078388693E+00 -0.15909330044E+03  0.27622004992E+03  0.31876056395E+03  0.00000000000E+00 0. -1.
         21    1    1    2  505  503  0.92633560192E+02 -0.97975025955E+02 -0.15795814781E+04  0.15853257483E+04  0.00000000000E+00 0.  1.
          2    1    1    2  501    0 -0.14768758444E+03  0.27635872905E+03  0.17130572730E+04  0.17414795406E+04  0.00000000000E+00 0. -1.
<scales pt_clust_3="54.23823" pt_clust_4="159.09362" pt_clust_5="54.23823" pt_clust_6="189.15030"></scales>
<clustering>
<clus scale="   54.238">  3  5 -1 -1</clus>
<clus scale="  159.094">  1  4  2 -1</clus>
<clus scale="  189.150">  1  6  2 -1</clus>
<clus scale="  206.258">  2  3  1 -1</clus>
</clustering>
</event>
<event>
 6    0  0.1361744E+002  0.1655598E+03  0.7546771E-02  0.1182559E+00
          3   -1    0    0  503    0 -0.00000000000E+00  0.00000000000E+00  0.67747226329E+02  0.67747226329E+02  0.00000000000E+00 0. -1.
         21   -1    0    0  501  502  0.00000000000E+00 -0.00000000000E+00 -0.15366903580E+04  0.15366903580E+04  0.00000000000E+00 0. -1.
         21    1    1    2  503  504 -0.11621108341E+02 -0.34242045612E+02 -0.34389053616E+02  0.49901651830E+02  0.00000000000E+00 0. -1.
         21    1    1    2  504  505 -0.98985607574E+02 -0.51282307819E+02 -0.73355938276E+03  0.74198207097E+03  0.00000000000E+00 0. -1.
         21    1    1    2  505  502 -0.41444177332E+02 -0.11440694260E+02 -0.60824534177E+03  0.60976299092E+03  0.00000000000E+00 0. -1.
          3    1    1    2  501    0  0.15205089325E+03  0.96965047691E+02 -0.92749353483E+02  0.20279087056E+03  0.00000000000E+00 0. -1.
<scales pt_clust_3="36.16031" pt_clust_4="34.68876" pt_clust_5="34.68876" pt_clust_6="155.85238"></scales>
<clustering>
<clus scale="   34.689">  4  5 -1 -1</clus>
<clus scale="   36.160">  1  3  2 -1</clus>
<clus scale="  155.852">  1  6  2 -1</clus>
<clus scale="  165.560">  2  3  1 -1</clus>
</clustering>
</event>
<event>
 6    0  0.1361744E+002  0.1570144E+03  0.7546771E-02  0.1192109E+00
          1   -1    0    0  502    0 -0.00000000000E+00  0.00000000000E+00  0.14785685916E+04  0.14785685916E+04  0.00000000000E+00 0. -1.
         21   -1    0    0  503  502  0.00000000000E+00 -0.00000000000E+00 -0.45090913649E+02  0.45090913649E+02  0.00000000000E+00 0.  1.
         21    1    1    2  503  504  0.29822255053E+02 -0.77091670411E+02  0.73017539214E+02  0.11029076832E+03  0.00000000000E+00 0.  1.
         21    1    1    2  504  505  0.62686959315E+02 -0.33772725165E+02  0.36286312632E+02  0.79918385354E+02  0.00000000000E+00 0.  1.
         21    1    1    2  505  501 -0.47884627761E+02  0.98481094180E+02  0.85127856529E+03  0.85829287496E+03  0.00000000000E+00 0. -1.
          1    1    1    2  501    0 -0.44624586608E+02  0.12383301397E+02  0.47289526084E+03  0.47515747664E+03  0.00000000000E+00 0. -1.
<scales pt_clust_3="155.66692" pt_clust_4="53.98638" pt_clust_5="40.11261" pt_clust_6="40.11261"></scales>
<clustering>
<clus scale="   40.113">  5  6 -1 -1</clus>
<clus scale="   53.986">  3  4 -1 -1</clus>
<clus scale="  155.667">  2  3  1 -1</clus>
<clus scale="  155.667">  2  3  1 -1</clus>
</clustering>
</event>
<event>
 6    0  0.1361744E+002  0.1196510E+03  0.7546771E-02  0.1243674E+00
         21   -1    0    0  501  502  0.00000000000E+00  0.00000000000E+00  0.67660206423E+03  0.67660206423E+03  0.00000000000E+00 0.  1.
          2   -1    0    0  505    0 -0.00000000000E+00 -0.00000000000E+00 -0.13866127091E+04  0.13866127091E+04  0.00000000000E+00 0. -1.
         21    1    1    2  503  504  0.81536133637E+01 -0.41976875170E+02  0.19051688388E+03  0.19525681167E+03  0.00000000000E+00 0. -1.
         21    1    1    2  504  502 -0.40672193470E+02 -0.66574244726E+02  0.46138862654E+03  0.46793783998E+03  0.00000000000E+00 0.  1.
         21    1    1    2  505  503 -0.72334879910E+01  0.79902280462E+02 -0.67981149284E+02  0.10515766463E+03  0.00000000000E+00 0. -1.
          2    1    1    2  501    0  0.39752068097E+02  0.28648839434E+02 -0.12939350060E+04  0.12948624571E+04  0.00000000000E+00 0. -1.
<scales pt_clust_3="33.15532" pt_clust_4="33.15532" pt_clust_5="110.95416" pt_clust_6="48.99983"></scales>
<clustering>
<clus scale="   33.155">  3  4 -1 -1</clus>
<clus scale="   49.000">  2  6  1 -1</clus>
<clus scale="  110.954">  2  5  1 -1</clus>
<clus scale="  119.651">  1  3  2 -1</clus>
</clustering>
</event>
<event>
 6    0  0.1361744E+002  0.1910193E+03  0.7546771E-02  0.1157545E+00
         21   -1    0    0  504  502  0.00000000000E+00  0.00000000000E+00  0.73696837688E+02  0.73696837688E+02  0.00000000000E+00 0.  1.
          1   -1    0    0  505    0 -0.00000000000E+00 -0.00000000000E+00 -0.12095298518E+04  0.12095298518E+04  0.00000000000E+00 0.  1.
         21    1    1    2  503  501 -0.29644724796E+02  0.11870818130E+03 -0.76776661222E+02  0.14444756046E+03  0.00000000000E+00 0. -1.
         21    1    1    2  504  503 -0.24114861568E+02  0.62465555385E+02 -0.99634529602E+01  0.67695956695E+02  0.00000000000E+00 0.  1.
         21    1    1    2  505  502 -0.23004430701E+02 -0.27707781175E+02 -0.93296769030E+02  0.10000606022E+03  0.00000000000E+00 0. -1.
          1    1    1    2  501    0  0.76764017066E+02 -0.15346595551E+03 -0.95579613092E+03  0.97107711213E+03  0.00000000000E+00 0.  1.
<scales pt_clust_3="31.09670" pt_clust_4="31.09670" pt_clust_5="36.01284" pt_clust_6="186.33666"></scales>
<clustering>
<clus scale="   31.097">  3  4 -1 -1</clus>
<clus scale="   36.013">  2  5  1 -1</clus>
<clus scale="  186.337">  2  6  1 -1</clus>
<clus scale="  191.019">  1  3  2 -1</clus>
</clustering>
</event>
<event>
 6    0  0.1361744E+002  0.1073477E+03  0.7546771E-02  0.1265562E+00
          2   -1    0    0  504    0 -0.00000000000E+00  0.00000000000E+00  0.10148557945E+04  0.10148557945E+04  0.00000000000E+00 0.  1.
         21   -1    0    0  503  502  0.00000000000E+00 -0.00000000000E+00 -0.41009075475E+03  0.41009075475E+03  0.00000000000E+00 0.  1.
         21    1    1    2  503  501  0.33917362339E+02  0.20103464248E+02 -0.41227792597E+01  0.39642578771E+02  0.00000000000E+00 0. -1.
         21    1    1    2  504  505 -0.83420615252E+02  0.42971660930E+02  0.36875123062E+03  0.38050365672E+03  0.00000000000E+00 0.  1.
         21    1    1    2  505  502  0.43459933060E+02 -0.96532232943E+02 -0.37452485628E+03  0.38919931365E+03  0.00000000000E+00 0.  1.
          2    1    1    2  501    0  0.60433198531E+01  0.33457107765E+02  0.61466144467E+03  0.61560100012E+03  0.00000000000E+00 0.  1.
<scales pt_clust_3="40.43267" pt_clust_4="107.34772" pt_clust_5="14000.00000" pt_clust_6="33.99853"></scales>
<clustering>
<clus scale="   33.999">  1  6  2 -1</clus>
<clus scale="   40.433">  2  3  1 -1</clus>
<clus scale="  107.348">  1  4  2 -1</clus>
<clus scale="   40.433">  2  3  1 -1</clus>
</clustering>
</event>
<event>
 6    0  0.1361744E+002  0.8390569E+02  0.7546771E-02  0.1318319E+00
          2   -1    0    0  505    0 -0.00000000000E+00  0.00000000000E+00  0.66950879422E+03  0.66950879422E+03  0.00000000000E+00 0.  1.
         21   -1    0    0  504  502  0.00000000000E+00 -0.00000000000E+00 -0.89512632089E+02  0.89512632089E+02  0.00000000000E+00 0.  1.
         21    1    1    2  503  502  0.23072458277E+02  0.39575439446E+02 -0.58676665557E+02  0.74441284373E+02  0.00000000000E+00 0.  1.
         21    1    1    2  504  501 -0.32154278347E+02  0.24996139461E+02  0.34608773230E+02  0.53445970741E+02  0.00000000000E+00 0.  1.
         21    1    1    2  505  503 -0.59483378780E+02  0.28982915827E+02  0.19352505513E+03  0.20452439641E+03  0.00000000000E+00 0.  1.
          2    1    1    2  501    0  0.68565198850E+02 -0.93554494734E+02  0.41053899932E+03  0.42660977479E+03  0.00000000000E+00 0.  1.
<scales pt_clust_3="60.45766" pt_clust_4="40.72720" pt_clust_5="83.90569" pt_clust_6="14000.00000"></scales>
<clustering>
<clus scale="   40.727">  2  4  1 -1</clus>
<clus scale="   60.458">  2  3  1 -1</clus>
<clus scale="   83.906">  1  5  2 -1</clus>
<clus scale="   40.727">  2  3  1 -1</clus>
</clustering>
</event>
<event>
 6    0  0.1361744E+002  0.6391737E+02  0.7546771E-02  0.1382091E+00
          1   -1    0    0  503    0 -0.00000000000E+00  0.00000000000E+00  0.28413023783E+02  0.28413023783E+02  0.00000000000E+00 0.  1.
         21   -1    0    0  504  502  0.00000000000E+00 -0.00000000000E+00 -0.19701625427E+04  0.19701625427E+04  0.00000000000E+00 0. -1.
         21    1    1    2  503  505  0.42024925292E+02 -0.25875207059E+02 -0.69488595628E+02  0.85230778528E+02  0.00000000000E+00 0.  1.
         21    1    1    2  504  501 -0.22858441118E+02  0.53479591612E+02 -0.11420737049E+04  0.11435536378E+04  0.00000000000E+00 0. -1.
         21    1    1    2  505  502  0.11977177310E+00 -0.97011872379E+02 -0.66684970203E+03  0.67386930693E+03  0.00000000000E+00 0.  1.
          1    1    1    2  501    0 -0.19286255947E+02  0.69407487826E+02 -0.63337516383E+02  0.95921843270E+02  0.00000000000E+00 0.  1.
<scales pt_clust_3="49.35201" pt_clust_4="63.91737" pt_clust_5="14000.00000" pt_clust_6="50.86285"></scales>
<clustering>
<clus scale="   49.352">  1  3  2 -1</clus>
<clus scale="   50.863">  1  6  2 -1</clus>
<clus scale="   63.917">  2  4  1 -1</clus>
<clus scale="   63.917">  2  3  1 -1</clus>
</clustering>
</event>
<event>
 6    0  0.1361744E+002  0.7588671E+02  0.7546771E-02  0.1341147E+00
         21   -1    0    0  504  502  0.00000000000E+00  0.00000000000E+00  0.31820094518E+02  0.31820094518E+02  0.00000000000E+00 0. -1.
          1   -1    0    0  503    0 -0.00000000000E+00 -0.00000000000E+00 -0.78975032122E+03  0.78975032122E+03  0.00000000000E+00 0.  1.
         21    1    1    2  503  502 -0.80295132735E+02 -0.86177825566E+02 -0.28428677607E+03  0.30772211005E+03  0.00000000000E+00 0. -1.
         21    1    1    2  504  505  0.33476807549E+02 -0.68097394076E+01 -0.65218023491E+02  0.73623771857E+02  0.00000000000E+00 0. -1.
         21    1    1    2  505  501  0.34073085262E+02  0.25769022474E+02 -0.22502956216E+02  0.48284580324E+02  0.00000000000E+00 0. -1.
          1    1    1    2  501    0  0.12745239924E+02  0.67218542499E+02 -0.38592247092E+03  0.39193995351E+03  0.00000000000E+00 0.  1.
<scales pt_clust_3="75.88671" pt_clust_4="34.16239" pt_clust_5="54.59227" pt_clust_6="14000.00000"></scales>
<clustering>
<clus scale="   34.162">  1  4  2 -1</clus>
<clus scale="   54.592">  1  5  2 -1</clus>
<clus scale="   75.887">  1  3  2 -1</clus>
<clus scale="   34.162">  1  3  2 -1</clus>
</clustering>
</event>
<event>
 6    0  0.1361744E+002  0.1824038E+03  0.7546771E-02  0.1165497E+00
          1   -1    0    0  504    0 -0.00000000000E+00  0.00000000000E+00  0.77899971832E+03  0.77899971832E+03  0.00000000000E+00 0. -1.
         21   -1    0    0  503  502  0.00000000000E+00 -0.00000000000E+00 -0.10673535792E+03  0.10673535792E+03  0.00000000000E+00 0. -1.
         21    1    1    2  503  501  0.13371976276E+02  0.48221893451E+02  0.52852159472E+02  0.72784005924E+02  0.00000000000E+00 0.  1.
         21    1    1    2  504  505  0.57728746698E+02 -0.36573541305E+01  0.20284794244E+02  0.61298102027E+02  0.00000000000E+00 0.  1.
         21    1    1    2  505  502  0.10782869056E+03 -0.40111175503E+02 -0.11229165532E+02  0.11559423457E+03  0.00000000000E+00 0. -1.
          1    1    1    2  501    0 -0.17892941353E+03 -0.44533638178E+01  0.61035657222E+03  0.63605873371E+03  0.00000000000E+00 0. -1.
<scales pt_clust_3="50.04159" pt_clust_4="30.77701" pt_clust_5="30.77701" pt_clust_6="177.16434"></scales>
<clustering>
<clus scale="   30.777">  4  5 -1 -1</clus>
<clus scale="   50.042">  2  3  1 -1</clus>
<clus scale="  177.164">  1  6  2 -1</clus>
<clus scale="   50.042">  2  3  1 -1</clus>
</clustering>
</event>
<event>
 6    0  0.1361744E+002  0.8184509E+02  0.7546771E-02  0.1323895E+00
         21   -1    0    0  504  502  0.00000000000E+00  0.00000000000E+00  0.83836579957E+03  0.83836579957E+03  0.00000000000E+00 0.  1.
          1   -1    0    0  503    0 -0.00000000000E+00 -0.00000000000E+00 -0.39933718928E+03  0.39933718928E+03  0.00000000000E+00 0. -1.
         21    1    1    2  503  505 -0.55429298923E+01  0.70171917211E+02 -0.14679351993E+03  0.16279791009E+03  0.00000000000E+00 0. -1.
         21    1    1    2  504  501  0.39635864055E+02 -0.36603691869E+01  0.41116903125E+02  0.57227613480E+02  0.00000000000E+00 0. -1.
         21    1    1    2  505  502  0.36930755309E+02  0.32970751707E+02  0.76454219279E+03  0.76614340414E+03  0.00000000000E+00 0.  1.
          1    1    1    2  501    0 -0.71023689472E+02 -0.99482299732E+02 -0.21983696570E+03  0.25153406114E+03  0.00000000000E+00 0. -1.
<scales pt_clust_3="70.32297" pt_clust_4="39.80452" pt_clust_5="14000.00000" pt_clust_6="81.84509"></scales>
<clustering>
<clus scale="   39.805">  1  4  2 -1</clus>
<clus scale="   70.323">  2  3  1 -1</clus>
<clus scale="   81.845">  2  6  1 -1</clus>
<clus scale="   39.805">  1  3  2 -1</clus>
</clustering>
</event>
<event>
 6    0  0.1361744E+002  0.1384538E+03  0.7546771E-02  0.1215425E+00
          2   -1    0    0  504    0 -0.00000000000E+00  0.00000000000E+00  0.67477058335E+03  0.67477058335E+03  0.00000000000E+00 0.  1.
         21   -1    0    0  503  502  0.00000000000E+00 -0.00000000000E+00 -0.10165988223E+03  0.10165988223E+03  0.00000000000E+00 0.  1.
         21    1    1    2  503  505 -0.33866818006E+02 -0.18631999342E+02 -0.21557757049E+02  0.44258893460E+02  0.00000000000E+00 0.  1.
         21    1    1    2  504  502 -0.55697119314E+02 -0.13179646962E+03  0.50933896189E+02  0.15187738570E+03  0.00000000000E+00 0.  1.
         21    1    1    2  505  501  0.34673235604E+01  0.42051375570E+02  0.40923519133E+02  0.58779885490E+02  0.00000000000E+00 0.  1.
          2    1    1    2  501    0  0.86096613760E+02  0.10837709340E+03  0.50281104285E+03  0.52151430094E+03  0.00000000000E+00 0.  1.
<scales pt_clust_3="38.65375" pt_clust_4="138.45380" pt_clust_5="39.64272" pt_clust_6="14000.00000"></scales>
<clustering>
<clus scale="   38.654">  2  3  1 -1</clus>
<clus scale="   39.643">  2  5  1 -1</clus>
<clus scale="  138.454">  2  4  1 -1</clus>
<clus scale="   38.654">  2  3  1 -1</clus>
</clustering>
</event>
<event>
 6    0  0.1361744E+002  0.1220538E+03  0.7546771E-02  0.1239747E+00
         21   -1    0    0  504  502  0.00000000000E+00  0.00000000000E+00  0.11844202238E+03  0.11844202238E+03  0.00000000000E+00 0.  1.
          2   -1    0    0  505    0 -0.00000000000E+00 -0.00000000000E+00 -0.88805262450E+03  0.88805262450E+03  0.00000000000E+00 0.  1.
         21    1    1    2  503  501  0.55820960449E+02 -0.96828436954E+02  0.53793725922E+02  0.12403826336E+03  0.00000000000E+00 0.  1.
         21    1    1    2  504  503  0.31143645236E+02  0.10756130638E+02  0.27770778508E+01  0.33065588552E+02  0.00000000000E+00 0.  1.
         21    1    1    2  505  502 -0.11736443022E+02 -0.36210750111E+02 -0.69804378439E+02  0.79508576693E+02  0.00000000000E+00 0.  1.
          2    1    1    2  501    0 -0.75228162663E+02  0.12228305643E+03 -0.75637702746E+03  0.76988221827E+03  0.00000000000E+00 0.  1.
<scales pt_clust_3="122.05378" pt_clust_4="32.94876" pt_clust_5="37.12956" pt_clust_6="14000.00000"></scales>
<clustering>
<clus scale="   32.949">  1  4  2 -1</clus>
<clus scale="   37.130">  2  5  1 -1</clus>
<clus scale="  122.054">  1  3  2 -1</clus>
<clus scale="   32.949">  1  3  2 -1</clus>
</clustering>
</event>
<event>
 6    0  0.1361744E+002  0.1532487E+03  0.7546771E-02  0.1196537E+00
          2   -1    0    0  504    0 -0.00000000000E+00  0.00000000000E+00  0.15523202068E+04  0.15523202068E+04  0.00000000000E+00 0.  1.
         21   -1    0    0  501  502  0.00000000000E+00 -0.00000000000E+00 -0.72096659323E+02  0.72096659323E+02  0.00000000000E+00 0. -1.
         21    1    1    2  503  502  0.32546963959E+02  0.31398306076E+01 -0.82236167845E+01  0.33716335392E+02  0.00000000000E+00 0. -1.
         21    1    1    2  504  505 -0.65273307277E+02  0.85989367691E+01  0.51545895574E+03  0.51964649658E+03  0.00000000000E+00 0. -1.
         21    1    1    2  505  503  0.70638299784E+02  0.97256067562E+02  0.33884659154E+02  0.12488667743E+03  0.00000000000E+00 0. -1.
          2    1    1    2  501    0 -0.37911956466E+02 -0.10899483494E+03  0.93910354935E+03  0.94616735670E+03  0.00000000000E+00 0.  1.
<scales pt_clust_3="32.02356" pt_clust_4="65.83727" pt_clust_5="32.02356" pt_clust_6="140.41105"></scales>
<clustering>
<clus scale="   32.024">  3  5 -1 -1</clus>
<clus scale="   65.837">  1  4  2 -1</clus>
<clus scale="  140.411">  1  6  2 -1</clus>
<clus scale="  153.249">  2  3  1 -1</clus>
</clustering>
</event>
<event>
 6    0  0.1361744E+002  0.1136603E+03  0.7546771E-02  0.1253938E+00
          2   -1    0    0  503    0 -0.00000000000E+00  0.00000000000E+00  0.11519836413E+04  0.11519836413E+04  0.00000000000E+00 0. -1.
         21   -1    0    0  504  502  0.00000000000E+00 -0.00000000000E+00 -0.42583733193E+02  0.42583733193E+02  0.00000000000E+00 0. -1.
         21    1    1    2  503  502  0.50933795361E+00  0.57263286186E+02  0.84157476554E+02  0.10179304608E+03  0.00000000000E+00 0. -1.
         21    1    1    2  504  505  0.31088548729E+02 -0.11396671519E+02  0.70900487128E+02  0.78251268736E+02  0.00000000000E+00 0. -1.
         21    1    1    2  505  501  0.85350357458E+02 -0.26756232268E+02  0.50043478736E+02  0.10249355710E+03  0.00000000000E+00 0. -1.
          2    1    1    2  501    0 -0.11694824414E+03 -0.19110382399E+02  0.90429846567E+03  0.91202950256E+03  0.00000000000E+00 0. -1.
<scales pt_clust_3="55.19991" pt_clust_4="33.11166" pt_clust_5="113.66032" pt_clust_6="14000.00000"></scales>
<clustering>
<clus scale="   33.112">  2  4  1 -1</clus>
<clus scale="   55.200">  2  3  1 -1</clus>
<clus scale="  113.660">  2  5  1 -1</clus>
<clus scale="   33.112">  2  3  1 -1</clus>
</clustering>
</event>
<event>
 6    0  0.1361744E+002  0.1115440E+03  0.7546771E-02  0.1257737E+00
          1   -1    0    0  505    0 -0.00000000000E+00  0.00000000000E+00  0.10806901200E+04  0.10806901200E+04  0.00000000000E+00 0.  1.
         21   -1    0    0  504  502  0.00000000000E+00 -0.00000000000E+00 -0.10870655900E+03  0.10870655900E+03  0.00000000000E+00 0. -1.
         21    1    1    2  503  501  0.55596976775E+02 -0.58021643099E+02  0.12290756660E+03  0.14684619444E+03  0.00000000000E+00 0. -1.
         21    1    1    2  504  503  0.21186997130E+02  0.70535686588E+02 -0.10959611234E+02  0.74459955736E+02  0.00000000000E+00 0. -1.
         21    1    1    2  505  502  0.50300243351E+02 -0.33022500951E+02 -0.31080582374E+02  0.67724461245E+02  0.00000000000E+00 0. -1.
          1    1    1    2  501    0 -0.12708421726E+03  0.20508457462E+02  0.89111618802E+03  0.90036606758E+03  0.00000000000E+00 0.  1.
<scales pt_clust_3="14000.00000" pt_clust_4="74.04098" pt_clust_5="60.17142" pt_clust_6="111.54397"></scales>
<clustering>
<clus scale="   60.171">  2  5  1 -1</clus>
<clus scale="   74.041">  2  4  1 -1</clus>
<clus scale="  111.544">  1  6  2 -1</clus>
<clus scale="   60.171">  2  3  1 -1</clus>
</clustering>
</event>
<event>
 6    0  0.1361744E+002  0.1181336E+03  0.7546771E-02  0.1246208E+00
         -1   -1    0    0    0  501 -0.00000000000E+00  0.00000000000E+00  0.18842302946E+03  0.18842302946E+03  0.00000000000E+00 0.  1.
         21   -1    0    0  505  502  0.00000000000E+00 -0.00000000000E+00 -0.80520793504E+03  0.80520793504E+03  0.00000000000E+00 0.  1.
         21    1    1    2  503  502  0.73264578177E+02  0.58425121750E+02 -0.35130240279E+03  0.36358571407E+03  0.00000000000E+00 0.  1.
         21    1    1    2  504  501 -0.69026049529E+02  0.70449355393E+01 -0.22134198506E+02  0.72829591334E+02  0.00000000000E+00 0.  1.
         21    1    1    2  505  504  0.41683996962E+02 -0.44364564873E+01 -0.38979746979E+03  0.39204502956E+03  0.00000000000E+00 0.  1.
         -1    1    1    2    0  503 -0.45922525610E+02 -0.61033600802E+02  0.14644916550E+03  0.16517062954E+03  0.00000000000E+00 0.  1.
<scales pt_clust_3="118.13359" pt_clust_4="64.58024" pt_clust_5="41.91942" pt_clust_6="14000.00000"></scales>
<clustering>
<clus scale="   41.919">  2  5  1 -1</clus>
<clus scale="   64.580">  1  4  2 -1</clus>
<clus scale="  118.134">  2  3  1 -1</clus>
<clus scale="   41.919">  2  3  1 -1</clus>
</clustering>
</event>
<event>
 6    0  0.1361744E+002  0.1322155E+03  0.7546771E-02  0.1224205E+00
         21   -1    0    0  501  502  0.00000000000E+00  0.00000000000E+00  0.21276938400E+03  0.21276938400E+03  0.00000000000E+00 0. -1.
          2   -1    0    0  505    0 -0.00000000000E+00 -0.00000000000E+00 -0.20290308224E+04  0.20290308224E+04  0.00000000000E+00 0.  1.
         21    1    1    2  503  502 -0.30586596414E+02  0.38418418569E+02  0.85075534533E+02  0.98231162783E+02  0.00000000000E+00 0. -1.
         21    1    1    2  504  503  0.22456314659E+02  0.79303935565E+02  0.10271663673E+03  0.13169703005E+03  0.00000000000E+00 0. -1.
         21    1    1    2  505  504 -0.10928387177E+02 -0.45753761815E+02 -0.17229967227E+03  0.17860574860E+03  0.00000000000E+00 0. -1.
          2    1    1    2  501    0  0.19058668931E+02 -0.71968592320E+02 -0.18317539374E+04  0.18332662650E+04  0.00000000000E+00 0.  1.
<scales pt_clust_3="46.80187" pt_clust_4="46.80187" pt_clust_5="47.04079" pt_clust_6="117.49263"></scales>
<clustering>
<clus scale="   46.802">  3  4 -1 -1</clus>
<clus scale="   47.041">  2  5  1 -1</clus>
<clus scale="  117.493">  2  6  1 -1</clus>
<clus scale="  132.216">  1  3  2 -1</clus>
</clustering>
</event>
<event>
 6    0  0.1361744E+002  0.1290487E+03  0.7546771E-02  0.1228874E+00
         21   -1    0    0  504  502  0.00000000000E+00  0.00000000000E+00  0.10536164533E+04  0.10536164533E+04  0.00000000000E+00 0. -1.
          1   -1    0    0  503    0 -0.00000000000E+00 -0.00000000000E+00 -0.96640916602E+03  0.96640916602E+03  0.00000000000E+00 0.  1.
         21    1    1    2  503  505 -0.12848952729E+03 -0.30369521408E+02 -0.38655915874E+03  0.40848482182E+03  0.00000000000E+00 0.  1.
         21    1    1    2  504  501  0.60737396182E+02  0.13098795972E+03  0.98185811047E+03  0.99241736481E+03  0.00000000000E+00 0. -1.
         21    1    1    2  505  502  0.27818216611E+02 -0.36325617941E+02  0.43041932918E+02  0.62817288094E+02  0.00000000000E+00 0.  1.
          1    1    1    2  501    0  0.39933914499E+02 -0.64292820370E+02 -0.55113359740E+03  0.55630614455E+03  0.00000000000E+00 0.  1.
<scales pt_clust_3="14000.00000" pt_clust_4="129.04872" pt_clust_5="45.75373" pt_clust_6="75.80312"></scales>
<clustering>
<clus scale="   45.754">  1  5  2 -1</clus>
<clus scale="   75.803">  2  6  1 -1</clus>
<clus scale="  129.049">  1  4  2 -1</clus>
<clus scale="   45.754">  1  3  2 -1</clus>
</clustering>
</event>
<event>
 6    0  0.1361744E+002  0.1412146E+03  0.7546771E-02  0.1211704E+00
          2   -1    0    0  503    0 -0.00000000000E+00  0.00000000000E+00  0.66830959595E+03  0.66830959595E+03  0.00000000000E+00 0. -1.
         21   -1    0    0  505  502  0.00000000000E+00 -0.00000000000E+00 -0.12010176718E+03  0.12010176718E+03  0.00000000000E+00 0. -1.
         21    1    1    2  503  504  0.33367083264E+02  0.10416715621E+02 -0.11001421241E+02  0.36645620192E+02  0.00000000000E+00 0. -1.
         21    1    1    2  504  502  0.84948366397E+02 -0.61667137105E+02 -0.57092070456E+02  0.11949295068E+03  0.00000000000E+00 0. -1.
         21    1    1    2  505  501 -0.27582180203E+02  0.41597612522E+02  0.22665543504E+03  0.23208581229E+03  0.00000000000E+00 0. -1.
          2    1    1    2  501    0 -0.90733269458E+02  0.96528089617E+01  0.38964588542E+03  0.40018697996E+03  0.00000000000E+00 0. -1.
<scales pt_clust_3="32.21921" pt_clust_4="140.50811" pt_clust_5="42.59206" pt_clust_6="42.59206"></scales>
<clustering>
<clus scale="   32.219">  3  4 -1 -1</clus>
<clus scale="   42.592">  5  6 -1 -1</clus>
<clus scale="  140.508">  2  3  1 -1</clus>
<clus scale="  140.508">  2  3  1 -1</clus>
</clustering>
</event>
<event>
 6    0  0.1361744E+002  0.3336914E+03  0.7546771E-02  0.1069515E+00
         21   -1    0    0  503  502  0.00000000000E+00  0.00000000000E+00  0.23343588137E+03  0.23343588137E+03  0.00000000000E+00 0.  1.
          2   -1    0    0  502    0 -0.00000000000E+00 -0.00000000000E+00 -0.16971034356E+04  0.16971034356E+04  0.00000000000E+00 0. -1.
         21    1    1    2  503  504  0.43280597282E+02 -0.38443454730E+01 -0.34745042380E+02  0.55634585135E+02  0.00000000000E+00 0. -1.
         21    1    1    2  504  505  0.25611163279E+02  0.38759086392E+02 -0.25028657408E+02  0.52769613928E+02  0.00000000000E+00 0.  1.
         21    1    1    2  505  501  0.77563429580E+02 -0.33455338721E+03  0.34896812752E+02  0.34519536793E+03  0.00000000000E+00 0.  1.
          2    1    1    2  501    0 -0.14645519014E+03  0.29963864629E+03 -0.14387906672E+04  0.14769397500E+04  0.00000000000E+00 0. -1.
<scales pt_clust_3="43.45100" pt_clust_4="47.80025" pt_clust_5="333.69144" pt_clust_6="14000.00000"></scales>
<clustering>
<clus scale="   43.451">  1  3  2 -1</clus>
<clus scale="   47.800">  1  4  2 -1</clus>
<clus scale="  333.691">  1  5  2 -1</clus>
<clus scale="   43.451">  1  3  2 -1</clus>
</clustering>
</event>
<event>
 6    0  0.1361744E+002  0.1575805E+03  0.7546771E-02  0.1191456E+00
         21   -1    0    0  504  502  0.00000000000E+00  0.00000000000E+00  0.10010201502E+03  0.10010201502E+03  0.00000000000E+00 0. -1.
          2   -1    0    0  502    0 -0.00000000000E+00 -0.00000000000E+00 -0.87382036263E+03  0.87382036263E+03  0.00000000000E+00 0.  1.
         21    1    1    2  503  501 -0.52184899295E+02  0.20395860064E+02 -0.22476789882E+03  0.23164598671E+03  0.00000000000E+00 0. -1.
         21    1    1    2  504  505  0.99702073271E+02  0.66702388382E+01  0.33918372449E+02  0.10552464873E+03  0.00000000000E+00 0. -1.
         21    1    1    2  505  503  0.50834481117E+02 -0.13931450571E+02 -0.79164191272E+01  0.53300088905E+02  0.00000000000E+00 0. -1.
          2    1    1    2  501    0 -0.98351655093E+02 -0.13134648331E+02 -0.57495240211E+03  0.58345165330E+03  0.00000000000E+00 0.  1.
<scales pt_clust_3="34.57967" pt_clust_4="156.68183" pt_clust_5="31.11349" pt_clust_6="34.57967"></scales>
<clustering>
<clus scale="   31.113">  4  5 -1 -1</clus>
<clus scale="   34.580">  3  6 -1 -1</clus>
<clus scale="  156.682">  1  4  2 -1</clus>
<clus scale="  156.682">  1  3  2 -1</clus>
</clustering>
</event>
<event>
 6    0  0.1361744E+002  0.2644153E+03  0.7546771E-02  0.1104519E+00
         21   -1    0    0  504  502  0.00000000000E+00  0.00000000000E+00  0.54461746495E+03  0.54461746495E+03  0.00000000000E+00 0.  1.
          1   -1    0    0  503    0 -0.00000000000E+00 -0.00000000000E+00 -0.38881197396E+04  0.38881197396E+04  0.00000000000E+00 0. -1.
         21    1    1    2  503  505 -0.19748137904E+03 -0.14292995524E+03 -0.23614339051E+04  0.23739835625E+04  0.00000000000E+00 0. -1.
         21    1    1    2  504  501  0.24829180925E+02 -0.22369558484E+03  0.48052027328E+03  0.53061844665E+03  0.00000000000E+00 0.  1.
         21    1    1    2  505  502  0.35595434584E+01  0.36203135166E+02 -0.26904068241E+02  0.45245621151E+02  0.00000000000E+00 0.  1.
          1    1    1    2  501    0  0.16909265466E+03  0.33042240491E+03 -0.14356845746E+04  0.14828895742E+04  0.00000000000E+00 0. -1.
<scales pt_clust_3="264.41533" pt_clust_4="191.59772" pt_clust_5="36.37770" pt_clust_6="14000.00000"></scales>
<clustering>
<clus scale="   36.378">  1  5  2 -1</clus>
<clus scale="  191.598">  1  4  2 -1</clus>
<clus scale="  264.415">  2  3  1 -1</clus>
<clus scale="   36.378">  1  3  2 -1</clus>
</clustering>
</event>
<event>
 6    0  0.1361744E+002  0.1289778E+03  0.7546771E-02  0.1228980E+00
         -2   -1    0    0    0  501 -0.00000000000E+00  0.00000000000E+00  0.40965845566E+03  0.40965845566E+03  0.00000000000E+00 0.  1.
         21   -1    0    0  503  502  0.00000000000E+00 -0.00000000000E+00 -0.91487424745E+02  0.91487424745E+02  0.00000000000E+00 0. -1.
         21    1    1    2  503  501 -0.14210236016E+02 -0.54455868617E+02  0.86194254968E+01  0.56935638490E+02  0.00000000000E+00 0.  1.
         21    1    1    2  504  505  0.27412182817E+02  0.24870463522E+02  0.43533705520E+02  0.57141501896E+02  0.00000000000E+00 0.  1.
         21    1    1    2  505  502 -0.94875753405E+02 -0.66653746035E+01 -0.11235873943E+02  0.95770980291E+02  0.00000000000E+00 0. -1.
         -2    1    1    2    0  504  0.81673806603E+02  0.36250779698E+02  0.27725377384E+03  0.29129775973E+03  0.00000000000E+00 0.  1.
<scales pt_clust_3="56.27941" pt_clust_4="34.47742" pt_clust_5="117.32658" pt_clust_6="34.47742"></scales>
<clustering>
<clus scale="   34.477">  4  6 -1 -1</clus>
<clus scale="   56.279">  2  3  1 -1</clus>
<clus scale="  117.327">  2  5  1 -1</clus>
<clus scale="   56.279">  2  3  1 -1</clus>
</clustering>
</event>
<event>
 6    0  0.1361744E+002  0.9553084E+02  0.7546771E-02  0.1289985E+00
         21   -1    0    0  505  502  0.00000000000E+00  0.00000000000E+00  0.25989990722E+02  0.25989990722E+02  0.00000000000E+00 0.  1.
          2   -1    0    0  503    0 -0.00000000000E+00 -0.00000000000E+00 -0.10899029725E+04  0.10899029725E+04  0.00000000000E+00 0.  1.
         21    1    1    2  503  502  0.42127535415E+02 -0.76788978007E+02 -0.10880857799E+03  0.13968028862E+03  0.00000000000E+00 0.  1.
         21    1    1    2  504  501  0.48440861177E+01  0.42541649652E+02 -0.16995196423E+03  0.17526245255E+03  0.00000000000E+00 0.  1.
         21    1    1    2  505  504  0.50094715803E+02  0.33236709326E+02 -0.25565240019E+03  0.26262579675E+03  0.00000000000E+00 0.  1.
          2    1    1    2  501    0 -0.97066337335E+02  0.10106190285E+01 -0.52950003932E+03  0.53832442526E+03  0.00000000000E+00 0.  1.
<scales pt_clust_3="87.58582" pt_clust_4="36.26339" pt_clust_5="36.26339" pt_clust_6="85.32133"></scales>
<clustering>
<clus scale="   36.263">  4  5 -1 -1</clus>
<clus scale="   87.586">  1  3  2 -1</clus>
<clus scale="   85.321">  2  6  1 -1</clus>
<clus scale="   87.586">  1  3  2 -1</clus>
</clustering>
</event>
<event>
 6    0  0.1361744E+002  0.9334560E+02  0.7546771E-02  0.1294946E+00
          1   -1    0    0  505    0 -0.00000000000E+00  0.00000000000E+00  0.28429495915E+04  0.28429495915E+04  0.00000000000E+00 0. -1.
         21   -1    0    0  503  502  0.00000000000E+00 -0.00000000000E+00 -0.42683379687E+03  0.42683379687E+03  0.00000000000E+00 0. -1.
         21    1    1    2  503  501 -0.17232712471E+02 -0.34129408740E+02  0.22757052102E+02  0.44493441544E+02  0.00000000000E+00 0.  1.
         21    1    1    2  504  502  0.56744312721E+02  0.26674785450E+02 -0.41030124420E+03  0.41506453980E+03  0.00000000000E+00 0. -1.
         21    1    1    2  505  504  0.70778837379E+02 -0.76142118169E+01  0.69682300303E+03  0.70044979663E+03  0.00000000000E+00 0. -1.
          1    1    1    2  501    0 -0.11029043763E+03  0.15068835107E+02  0.21068369837E+04  0.21097756104E+04  0.00000000000E+00 0. -1.
<scales pt_clust_3="38.23327" pt_clust_4="40.29343" pt_clust_5="14000.00000" pt_clust_6="93.34560"></scales>
<clustering>
<clus scale="   38.233">  2  3  1 -1</clus>
<clus scale="   40.293">  2  4  1 -1</clus>
<clus scale="   93.346">  1  6  2 -1</clus>
<clus scale="   38.233">  2  3  1 -1</clus>
</clustering>
</event>
<event>
 6    0  0.1361744E+002  0.1596370E+03  0.7546771E-02  0.1189107E+00
         21   -1    0    0  505  502  0.00000000000E+00  0.00000000000E+00  0.73245617164E+03  0.73245617164E+03  0.00000000000E+00 0. -1.
         -2   -1    0    0    0  501 -0.00000000000E+00 -0.00000000000E+00 -0.62568227604E+02  0.62568227604E+02  0.00000000000E+00 0. -1.
         21    1    1    2  503  502 -0.46339528403E+02 -0.14957363753E+03  0.47630892775E+03  0.50138789334E+03  0.00000000000E+00 0. -1.
         21    1    1    2  504  503  0.46248085276E+02  0.84311332411E+02  0.85614196039E+02  0.12875199699E+03  0.00000000000E+00 0. -1.
         21    1    1    2  505  501 -0.48808663931E+02  0.41433604905E+02  0.83549813994E+02  0.10525968226E+03  0.00000000000E+00 0.  1.
         -2    1    1    2    0  504  0.48900107058E+02  0.23828700211E+02  0.24415006254E+02  0.59624826661E+02  0.00000000000E+00 0. -1.
<scales pt_clust_3="151.16884" pt_clust_4="38.58541" pt_clust_5="64.02366" pt_clust_6="38.58541"></scales>
<clustering>
<clus scale="   38.585">  4  6 -1 -1</clus>
<clus scale="   64.024">  2  5  1 -1</clus>
<clus scale="  151.169">  1  3  2 -1</clus>
<clus scale="  151.169">  1  3  2 -1</clus>
</clustering>
</event>
<event>
 6    0  0.1361744E+002  0.1028323E+03  0.7546771E-02  0.1274450E+00
         21   -1    0    0  505  502  0.00000000000E+00  0.00000000000E+00  0.96160087529E+02  0.96160087529E+02  0.00000000000E+00 0. -1.
          2   -1    0    0  503    0 -0.00000000000E+00 -0.00000000000E+00 -0.19357014864E+04  0.19357014864E+04  0.00000000000E+00 0.  1.
         21    1    1    2  503  504 -0.53804089856E+02  0.79230056713E+01 -0.18698827850E+03  0.19473641263E+03  0.00000000000E+00 0. -1.
         21    1    1    2  504  502  0.57162940196E+02  0.53964048836E+02 -0.66913601096E+02  0.10323347476E+03  0.00000000000E+00 0. -1.
         21    1    1    2  505  501  0.49505106548E+02 -0.77567581571E+02  0.44921654123E+02  0.10239843892E+03  0.00000000000E+00 0. -1.
          2    1    1    2  501    0 -0.52863956888E+02  0.15680527064E+02 -0.16305611734E+04  0.16314932476E+04  0.00000000000E+00 0.  1.
<scales pt_clust_3="54.38432" pt_clust_4="76.99694" pt_clust_5="102.83229" pt_clust_6="14000.00000"></scales>
<clustering>
<clus scale="   54.384">  2  3  1 -1</clus>
<clus scale="   76.997">  1  4  2 -1</clus>
<clus scale="  102.832">  1  5  2 -1</clus>
<clus scale="   76.997">  1  3  2 -1</clus>
</clustering>
</event>
<event>
 6    0  0.1361744E+002  0.8954415E+02  0.7546771E-02  0.1303959E+00
         -1   -1    0    0    0  501 -0.00000000000E+00  0.00000000000E+00  0.37575899781E+03  0.37575899781E+03  0.00000000000E+00 0.  1.
         21   -1    0    0  503  502  0.00000000000E+00 -0.00000000000E+00 -0.82374505148E+03  0.82374505148E+03  0.00000000000E+00 0.  1.
         21    1    1    2  503  504  0.12721487094E+03 -0.22929594931E+02 -0.73839124820E+03  0.74962058745E+03  0.00000000000E+00 0.  1.
         21    1    1    2  504  501  0.53198939963E+02  0.56062623406E+02  0.61033468948E+02  0.98479588180E+02  0.00000000000E+00 0.  1.
         21    1    1    2  505  502 -0.47211890857E+02 -0.89036407814E+01 -0.31529713560E+02  0.57466166521E+02  0.00000000000E+00 0. -1.
         -1    1    1    2    0  505 -0.13320192004E+03 -0.24229387694E+02  0.26090143915E+03  0.29393770714E+03  0.00000000000E+00 0.  1.
<scales pt_clust_3="14000.00000" pt_clust_4="76.35310" pt_clust_5="48.04412" pt_clust_6="89.54415"></scales>
<clustering>
<clus scale="   48.044">  2  5  1 -1</clus>
<clus scale="   76.353">  1  4  2 -1</clus>
<clus scale="   89.544">  1  6  2 -1</clus>
<clus scale="   48.044">  2  3  1 -1</clus>
</clustering>
</event>
<event>
 6    0  0.1361744E+002  0.1000502E+03  0.7546771E-02  0.1280190E+00
         21   -1    0    0  501  502  0.00000000000E+00  0.00000000000E+00  0.12623840996E+03  0.12623840996E+03  0.00000000000E+00 0. -1.
          2   -1    0    0  504    0 -0.00000000000E+00 -0.00000000000E+00 -0.66110616834E+03  0.66110616834E+03  0.00000000000E+00 0.  1.
         21    1    1    2  503  502 -0.29378715843E+02 -0.75064874613E+02  0.23381607710E+02  0.83931781372E+02  0.00000000000E+00 0. -1.
         21    1    1    2  504  505  0.35423826492E+02  0.18825162134E+02 -0.96779682417E+02  0.10476421689E+03  0.00000000000E+00 0. -1.
         21    1    1    2  505  503 -0.75200407367E+02  0.91736704865E+02  0.11645226947E+02  0.11919033349E+03  0.00000000000E+00 0. -1.
          2    1    1    2  501    0  0.69155296717E+02 -0.35496992386E+02 -0.47311491062E+03  0.47945824655E+03  0.00000000000E+00 0.  1.
<scales pt_clust_3="78.97709" pt_clust_4="40.11526" pt_clust_5="14000.00000" pt_clust_6="100.05016"></scales>
<clustering>
<clus scale="   40.115">  2  4  1 -1</clus>
<clus scale="   78.977">  1  3  2 -1</clus>
<clus scale="  100.050">  2  6  1 -1</clus>
<clus scale="   78.977">  1  3  2 -1</clus>
</clustering>
</event>
<event>
 6    0  0.1361744E+002  0.9115254E+02  0.7546771E-02  0.1300084E+00
          2   -1    0    0  504    0 -0.00000000000E+00  0.00000000000E+00  0.15890604805E+04  0.15890604805E+04  0.00000000000E+00 0.  1.
         21   -1    0    0  505  502  0.00000000000E+00 -0.00000000000E+00 -0.10097689742E+03  0.10097689742E+03  0.00000000000E+00 0. -1.
         21    1    1    2  503  502  0.48643148324E+02  0.52814019164E+02 -0.40048122876E+02  0.82215136350E+02  0.00000000000E+00 0. -1.
         21    1    1    2  504  503 -0.30705460937E+02 -0.44940795328E+02  0.45196920891E+03  0.45523473749E+03  0.00000000000E+00 0.  1.
         21    1    1    2  505  501  0.46181403828E+02 -0.43394421867E+02 -0.98263787382E+01  0.64127651039E+02  0.00000000000E+00 0. -1.
          2    1    1    2  501    0 -0.64119091215E+02  0.35521198030E+02  0.10859888758E+04  0.10884598531E+04  0.00000000000E+00 0.  1.
<scales pt_clust_3="91.15254" pt_clust_4="54.42886" pt_clust_5="63.58413" pt_clust_6="14000.00000"></scales>
<clustering>
<clus scale="   54.429">  1  4  2 -1</clus>
<clus scale="   63.584">  2  5  1 -1</clus>
<clus scale="   91.153">  2  3  1 -1</clus>
<clus scale="   63.584">  2  3  1 -1</clus>
</clustering>
</event>
<event>
 6    0  0.1361744E+002  0.1432225E+03  0.7546771E-02  0.1209057E+00
          2   -1    0    0  505    0 -0.00000000000E+00  0.00000000000E+00  0.62338063986E+03  0.62338063986E+03  0.00000000000E+00 0.  1.
         21   -1    0    0  501  502  0.00000000000E+00 -0.00000000000E+00 -0.76413203022E+02  0.76413203022E+02  0.00000000000E+00 0. -1.
         21    1    1    2  503  502 -0.51845876098E+02  0.57985359746E+02 -0.46640417304E+01  0.77923360416E+02  0.00000000000E+00 0. -1.
         21    1    1    2  504  503 -0.56729934028E+02 -0.33703573362E+00  0.26743637488E+02  0.62718586990E+02  0.00000000000E+00 0.  1.
         21    1    1    2  505  504 -0.35449876612E+02 -0.78620977844E+01  0.15306900240E+03  0.15731695977E+03  0.00000000000E+00 0.  1.
          2    1    1    2  501    0  0.14402568674E+03 -0.49786226228E+02  0.37181883868E+03  0.40183493571E+03  0.00000000000E+00 0.  1.
<scales pt_clust_3="56.33221" pt_clust_4="56.33221" pt_clust_5="36.31124" pt_clust_6="127.79699"></scales>
<clustering>
<clus scale="   36.311">  1  5  2 -1</clus>
<clus scale="   56.332">  3  4 -1 -1</clus>
<clus scale="  127.797">  1  6  2 -1</clus>
<clus scale="  143.223">  2  3  1 -1</clus>
</clustering>
</event>
<event>
 6    0  0.1361744E+002  0.1139924E+03  0.7546771E-02  0.1253350E+00
          2   -1    0    0  504    0 -0.00000000000E+00  0.00000000000E+00  0.26118237181E+04  0.26118237181E+04  0.00000000000E+00 0. -1.
         21   -1    0    0  505  502  0.00000000000E+00 -0.00000000000E+00 -0.65260309325E+02  0.65260309325E+02  0.00000000000E+00 0. -1.
         21    1    1    2  503  502 -0.33959683602E+02  0.41014238378E+02 -0.18321834511E+02  0.56312676014E+02  0.00000000000E+00 0. -1.
         21    1    1    2  504  503 -0.59228207248E+02  0.33366275081E+01  0.10095942796E+02  0.60175091839E+02  0.00000000000E+00 0. -1.
         21    1    1    2  505  501  0.81335546617E+02  0.20053432187E+02  0.75818114575E+03  0.76279503214E+03  0.00000000000E+00 0. -1.
          2    1    1    2  501    0  0.11852344233E+02 -0.64404298073E+02  0.17966081548E+04  0.17978012274E+04  0.00000000000E+00 0. -1.
<scales pt_clust_3="50.58550" pt_clust_4="50.58550" pt_clust_5="100.71505" pt_clust_6="65.48581"></scales>
<clustering>
<clus scale="   50.586">  3  4 -1 -1</clus>
<clus scale="   65.486">  1  6  2 -1</clus>
<clus scale="  100.715">  1  5  2 -1</clus>
<clus scale="  113.992">  2  3  1 -1</clus>
</clustering>
</event>
<event>
 6    0  0.1361744E+002  0.1346288E+03  0.7546771E-02  0.1220745E+00
          2   -1    0    0  504    0 -0.00000000000E+00  0.00000000000E+00  0.15447531566E+04  0.15447531566E+04  0.00000000000E+00 0. -1.
         21   -1    0    0  505  502  0.00000000000E+00 -0.00000000000E+00 -0.14041347791E+02  0.14041347791E+02  0.00000000000E+00 0.  1.
         21    1    1    2  503  502 -0.45112652608E+02  0.20058759760E+02  0.14627762185E+03  0.15438473993E+03  0.00000000000E+00 0.  1.
         21    1    1    2  504  503 -0.78014481222E+02 -0.33382436813E+02  0.29736058536E+03  0.30923124696E+03  0.00000000000E+00 0.  1.
         21    1    1    2  505  501  0.81888553806E+02 -0.95705185169E+00  0.51796414730E+03  0.52439823520E+03  0.00000000000E+00 0. -1.
          2    1    1    2  501    0  0.41238580024E+02  0.14280728904E+02  0.56910945431E+03  0.57078028232E+03  0.00000000000E+00 0. -1.
<scales pt_clust_3="40.26900" pt_clust_4="40.26900" pt_clust_5="35.38167" pt_clust_6="132.99237"></scales>
<clustering>
<clus scale="   35.382">  5  6 -1 -1</clus>
<clus scale="   40.269">  3  4 -1 -1</clus>
<clus scale="  132.992">  1  5  2 -1</clus>
<clus scale="  134.629">  2  3  1 -1</clus>
</clustering>
</event>
<event>
 6    0  0.1361744E+002  0.8988824E+02  0.7546771E-02  0.1303123E+00
          2   -1    0    0  502    0 -0.00000000000E+00  0.00000000000E+00  0.14442690701E+04  0.14442690701E+04  0.00000000000E+00 0. -1.
         21   -1    0    0  504  502  0.00000000000E+00 -0.00000000000E+00 -0.61080113773E+02  0.61080113773E+02  0.00000000000E+00 0. -1.
         21    1    1    2  503  501  0.65525684617E+02 -0.31292634683E+02  0.24064108978E+02  0.76497880172E+02  0.00000000000E+00 0. -1.
         21    1    1    2  504  505  0.22625313461E+02  0.35964878147E+02 -0.12067965916E+02  0.44170273609E+02  0.00000000000E+00 0. -1.
         21    1    1    2  505  503 -0.10688796928E+02 -0.52460523373E+02  0.13628922495E+03  0.14642783113E+03  0.00000000000E+00 0.  1.
          2    1    1    2  501    0 -0.77462201150E+02  0.47788279909E+02  0.12349035883E+04  0.12382531989E+04  0.00000000000E+00 0. -1.
<scales pt_clust_3="14000.00000" pt_clust_4="42.48973" pt_clust_5="47.47972" pt_clust_6="89.88824"></scales>
<clustering>
<clus scale="   42.490">  2  4  1 -1</clus>
<clus scale="   47.480">  2  5  1 -1</clus>
<clus scale="   89.888">  1  6  2 -1</clus>
<clus scale="   42.490">  2  3  1 -1</clus>
</clustering>
</event>
<event>
 6    0  0.1361744E+002  0.7940921E+02  0.7546771E-02  0.1330736E+00
          2   -1    0    0  503    0 -0.00000000000E+00  0.00000000000E+00  0.98162755521E+03  0.98162755521E+03  0.00000000000E+00 0. -1.
         21   -1    0    0  505  502  0.00000000000E+00 -0.00000000000E+00 -0.31649863013E+03  0.31649863013E+03  0.00000000000E+00 0. -1.
         21    1    1    2  503  504  0.89903034198E+02 -0.34586333738E+02  0.27026156181E+03  0.28691476406E+03  0.00000000000E+00 0. -1.
         21    1    1    2  504  502 -0.27315275659E+02 -0.49709282388E+02 -0.59510962715E+02  0.82211262751E+02  0.00000000000E+00 0. -1.
         21    1    1    2  505  501 -0.52331696795E+02  0.42269229134E+02 -0.23184883476E+03  0.24141080423E+03  0.00000000000E+00 0. -1.
          2    1    1    2  501    0 -0.10256061743E+02  0.42026386991E+02  0.68622716074E+03  0.68758935430E+03  0.00000000000E+00 0. -1.
<scales pt_clust_3="79.40921" pt_clust_4="55.50298" pt_clust_5="14000.00000" pt_clust_6="43.25973"></scales>
<clustering>
<clus scale="   43.260">  1  6  2 -1</clus>
<clus scale="   55.503">  2  4  1 -1</clus>
<clus scale="   79.409">  1  3  2 -1</clus>
<clus scale="   55.503">  2  3  1 -1</clus>
</clustering>
</event>
<event>
 6    0  0.1361744E+002  0.1189602E+03  0.7546771E-02  0.1244822E+00
          2   -1    0    0  503    0 -0.00000000000E+00  0.00000000000E+00  0.28097175485E+03  0.28097175485E+03  0.00000000000E+00 0. -1.
         21   -1    0    0  505  502  0.00000000000E+00 -0.00000000000E+00 -0.89416882063E+02  0.89416882063E+02  0.00000000000E+00 0.  1.
         21    1    1    2  503  502  0.24769385279E+02 -0.27089139363E+02  0.12512061910E+03  0.13039368559E+03  0.00000000000E+00 0. -1.
         21    1    1    2  504  501 -0.31935781730E+02  0.70589192439E+02  0.27855142833E-01  0.77477280668E+02  0.00000000000E+00 0.  1.
         21    1    1    2  505  504  0.23704807819E+02  0.46575738641E+02  0.55384544170E+01  0.52553704161E+02  0.00000000000E+00 0.  1.
          2    1    1    2  501    0 -0.16538411368E+02 -0.90075791716E+02  0.60867944126E+02  0.10996396649E+03  0.00000000000E+00 0. -1.
<scales pt_clust_3="36.70618" pt_clust_4="47.46719" pt_clust_5="47.46719" pt_clust_6="105.21319"></scales>
<clustering>
<clus scale="   36.706">  1  3  2 -1</clus>
<clus scale="   47.467">  4  5 -1 -1</clus>
<clus scale="  105.213">  1  6  2 -1</clus>
<clus scale="  118.960">  2  3  1 -1</clus>
</clustering>
</event>
<event>
 6    0  0.1361744E+002  0.1886579E+03  0.7546771E-02  0.1159677E+00
         21   -1    0    0  505  502  0.00000000000E+00  0.00000000000E+00  0.21245689714E+02  0.21245689714E+02  0.00000000000E+00 0. -1.
          2   -1    0    0  502    0 -0.00000000000E+00 -0.00000000000E+00 -0.23340185878E+04  0.23340185878E+04  0.00000000000E+00 0. -1.
         21    1    1    2  503  501  0.47856897712E+02  0.43754905924E+02 -0.52435715359E+03  0.52835139725E+03  0.00000000000E+00 0. -1.
         21    1    1    2  504  503 -0.88691738261E+02 -0.73688067913E+02 -0.42355585169E+03  0.43897120098E+03  0.00000000000E+00 0. -1.
         21    1    1    2  505  504 -0.55348658925E+02 -0.19679783290E+02 -0.83914249927E+02  0.10243226667E+03  0.00000000000E+00 0. -1.
          2    1    1    2  501    0  0.96183499474E+02  0.49612945279E+02 -0.12809456429E+04  0.12855094126E+04  0.00000000000E+00 0. -1.
<scales pt_clust_3="30.05543" pt_clust_4="55.86732" pt_clust_5="55.86732" pt_clust_6="175.99105"></scales>
<clustering>
<clus scale="   30.055">  3  6 -1 -1</clus>
<clus scale="   55.867">  4  5 -1 -1</clus>
<clus scale="  175.991">  2  3  1 -1</clus>
<clus scale="  188.658">  1  3  2 -1</clus>
</clustering>
</event>
<event>
 6    0  0.1361744E+002  0.1062719E+03  0.7546771E-02  0.1267634E+00
         21   -1    0    0  501  502  0.00000000000E+00  0.00000000000E+00  0.46611079812E+03  0.46611079812E+03  0.00000000000E+00 0. -1.
          2   -1    0    0  505    0 -0.00000000000E+00 -0.00000000000E+00 -0.36948676253E+04  0.36948676253E+04  0.00000000000E+00 0. -1.
         21    1    1    2  503  504 -0.33684202457E+02  0.14200710169E+03  0.17720801775E+03  0.22957204529E+03  0.00000000000E+00 0. -1.
         21    1    1    2  504  502 -0.12064045886E+02 -0.46653919976E+02  0.25853518833E+03  0.26298778119E+03  0.00000000000E+00 0. -1.
         21    1    1    2  505  503  0.47825038080E+01  0.32453442351E+02 -0.50093510804E+03  0.50200804847E+03  0.00000000000E+00 0.  1.
          2    1    1    2  501    0  0.40965744535E+02 -0.12780662406E+03 -0.31635649252E+04  0.31664105485E+04  0.00000000000E+00 0. -1.
<scales pt_clust_3="106.27189" pt_clust_4="48.16574" pt_clust_5="32.80394" pt_clust_6="14000.00000"></scales>
<clustering>
<clus scale="   32.804">  2  5  1 -1</clus>
<clus scale="   48.166">  1  4  2 -1</clus>
<clus scale="  106.272">  1  3  2 -1</clus>
<clus scale="   48.166">  1  3  2 -1</clus>
</clustering>
</event>
<event>
 6    0  0.1361744E+002  0.1145054E+03  0.7546771E-02  0.1252447E+00
         21   -1    0    0  503  502  0.00000000000E+00  0.00000000000E+00  0.31598598886E+03  0.31598598886E+03  0.00000000000E+00 0.  1.
          2   -1    0    0  505    0 -0.00000000000E+00 -0.00000000000E+00 -0.71890253254E+03  0.71890253254E+03  0.00000000000E+00 0. -1.
         21    1    1    2  503  501 -0.46704896222E+02 -0.44523522821E+02  0.10891229589E+03  0.12659217832E+03  0.00000000000E+00 0.  1.
         21    1    1    2  504  502 -0.64729425693E+02  0.81337428416E+02  0.17664229800E+03  0.20495896480E+03  0.00000000000E+00 0.  1.
         21    1    1    2  505  504  0.37874405029E+02 -0.33871034271E+01 -0.70452030937E+02  0.80058926355E+02  0.00000000000E+00 0. -1.
          2    1    1    2  501    0  0.73559916887E+02 -0.33426802168E+02 -0.61801910662E+03  0.62327845192E+03  0.00000000000E+00 0. -1.
<scales pt_clust_3="64.18347" pt_clust_4="114.50542" pt_clust_5="38.02556" pt_clust_6="14000.00000"></scales>
<clustering>
<clus scale="   38.026">  2  5  1 -1</clus>
<clus scale="   64.183">  1  3  2 -1</clus>
<clus scale="  114.505">  1  4  2 -1</clus>
<clus scale="   64.183">  1  3  2 -1</clus>
</clustering>
</event>
<event>
 6    0  0.1361744E+002  0.1311771E+03  0.7546771E-02  0.1225720E+00
          2   -1    0    0  505    0 -0.00000000000E+00  0.00000000000E+00  0.20525585545E+04  0.20525585545E+04  0.00000000000E+00 0. -1.
         21   -1    0    0  503  502  0.00000000000E+00 -0.00000000000E+00 -0.87463804625E+02  0.87463804625E+02  0.00000000000E+00 0. -1.
         21    1    1    2  503  501 -0.76472814707E+02 -0.13993431425E+01 -0.51006352704E+02  0.91933114636E+02  0.00000000000E+00 0. -1.
         21    1    1    2  504  502 -0.64363113672E+02  0.40701948840E+01  0.81330556510E+02  0.10379709201E+03  0.00000000000E+00 0. -1.
         21    1    1    2  505  504  0.63379191155E+02  0.37054393106E+02  0.37644772404E+03  0.38353987909E+03  0.00000000000E+00 0.  1.
          2    1    1    2  501    0  0.77456737223E+02 -0.39725244848E+02  0.15583228221E+04  0.15607522734E+04  0.00000000000E+00 0. -1.
<scales pt_clust_3="131.17710" pt_clust_4="64.49168" pt_clust_5="70.94690" pt_clust_6="14000.00000"></scales>
<clustering>
<clus scale="   64.492">  2  4  1 -1</clus>
<clus scale="   70.947">  1  5  2 -1</clus>
<clus scale="  131.177">  2  3  1 -1</clus>
<clus scale="   64.492">  2  3  1 -1</clus>
</clustering>
</event>
<event>
 6    0  0.1361744E+002  0.1244239E+03  0.7546771E-02  0.1235972E+00
         21   -1    0    0  503  502  0.00000000000E+00  0.00000000000E+00  0.60447373079E+02  0.60447373079E+02  0.00000000000E+00 0. -1.
          2   -1    0    0  505    0 -0.00000000000E+00 -0.00000000000E+00 -0.15938796438E+04  0.15938796438E+04  0.00000000000E+00 0. -1.
         21    1    1    2  503  501  0.78813243526E+00  0.69148764285E+02  0.12276212070E+01  0.69164151182E+02  0.00000000000E+00 0. -1.
         21    1    1    2  504  502  0.70181898663E+02  0.48693570758E+02 -0.98284737463E+02  0.13021694341E+03  0.00000000000E+00 0. -1.
         21    1    1    2  505  504 -0.40058949193E+01  0.44196891516E+02 -0.14263624120E+03  0.14938041945E+03  0.00000000000E+00 0. -1.
          2    1    1    2  501    0 -0.66964136179E+02 -0.16203922656E+03 -0.12937389133E+04  0.13055655029E+04  0.00000000000E+00 0. -1.
<scales pt_clust_3="70.18909" pt_clust_4="14000.00000" pt_clust_5="44.37806" pt_clust_6="124.42395"></scales>
<clustering>
<clus scale="   44.378">  2  5  1 -1</clus>
<clus scale="   70.189">  1  3  2 -1</clus>
<clus scale="  124.424">  2  6  1 -1</clus>
<clus scale="   70.189">  1  3  2 -1</clus>
</clustering>
</event>
<event>
 6    0  0.1361744E+002  0.1652530E+03  0.7546771E-02  0.1182891E+00
         -1   -1    0    0    0  501 -0.00000000000E+00  0.00000000000E+00  0.37303881556E+03  0.37303881556E+03  0.00000000000E+00 0.  1.
         21   -1    0    0  504  502  0.00000000000E+00 -0.00000000000E+00 -0.21537131323E+03  0.21537131323E+03  0.00000000000E+00 0.  1.
         21    1    1    2  503  505  0.18455005180E+02 -0.15382435263E+03  0.16551405519E+03  0.22670999348E+03  0.00000000000E+00 0.  1.
         21    1    1    2  504  501  0.25924159373E+02  0.87061230952E+02  0.32164843188E+02  0.96365435252E+02  0.00000000000E+00 0.  1.
         21    1    1    2  505  502 -0.78958336829E+02  0.12756933853E+03 -0.93937888963E+02  0.17701040102E+03  0.00000000000E+00 0.  1.
         -1    1    1    2    0  503  0.34579172276E+02 -0.60806216852E+02  0.53926492916E+02  0.88324299042E+02  0.00000000000E+00 0.  1.
<scales pt_clust_3="31.61378" pt_clust_4="90.83898" pt_clust_5="158.41408" pt_clust_6="31.61378"></scales>
<clustering>
<clus scale="   31.614">  3  6 -1 -1</clus>
<clus scale="   90.839">  1  4  2 -1</clus>
<clus scale="  158.414">  2  5  1 -1</clus>
<clus scale="  158.414">  2  3  1 -1</clus>
</clustering>
</event>
<event>
 6    0  0.1361744E+002  0.2980816E+03  0.7546771E-02  0.1086204E+00
         21   -1    0    0  504  502  0.00000000000E+00  0.00000000000E+00  0.22530725986E+03  0.22530725986E+03  0.00000000000E+00 0.  1.
          2   -1    0    0  502    0 -0.00000000000E+00 -0.00000000000E+00 -0.78743686254E+03  0.78743686254E+03  0.00000000000E+00 0.  1.
         21    1    1    2  503  505 -0.23849024448E+03 -0.11979270815E+02  0.43198880700E+02  0.24266693828E+03  0.00000000000E+00 0.  1.
         21    1    1    2  504  503 -0.46127515585E+02 -0.21820583961E+02  0.36277367254E+02  0.62609367936E+02  0.00000000000E+00 0.  1.
         21    1    1    2  505  501  0.17347598340E+03  0.27036260910E+01 -0.29597698726E+03  0.34307958756E+03  0.00000000000E+00 0.  1.
          2    1    1    2  501    0  0.11114177666E+03  0.31096228685E+02 -0.34562886338E+03  0.36438822862E+03  0.00000000000E+00 0.  1.
<scales pt_clust_3="294.74930" pt_clust_4="31.78411" pt_clust_5="66.77417" pt_clust_6="66.77417"></scales>
<clustering>
<clus scale="   31.784">  3  4 -1 -1</clus>
<clus scale="   66.774">  5  6 -1 -1</clus>
<clus scale="  294.749">  1  3  2 -1</clus>
<clus scale="  294.749">  1  3  2 -1</clus>
</clustering>
</event>
<event>
 6    0  0.1361744E+002  0.7676810E+02  0.7546771E-02  0.1338482E+00
         21   -1    0    0  504  502  0.00000000000E+00  0.00000000000E+00  0.28833550668E+04  0.28833550668E+04  0.00000000000E+00 0. -1.
          4   -1    0    0  503    0 -0.00000000000E+00 -0.00000000000E+00 -0.82286451261E+02  0.82286451261E+02  0.00000000000E+00 0. -1.
         21    1    1    2  503  505 -0.95009228391E+02 -0.32825435965E+00 -0.20697877657E+02  0.97238178561E+02  0.00000000000E+00 0.  1.
         21    1    1    2  504  501  0.18126181803E+02  0.58142247403E+02  0.84631831833E+03  0.84850679157E+03  0.00000000000E+00 0.  1.
         21    1    1    2  505  502  0.19313836946E+02 -0.46058576847E+02  0.19579532415E+04  0.19585901339E+04  0.00000000000E+00 0. -1.
          4    1    1    2  501    0  0.57569209642E+02 -0.11755416196E+02  0.17494933410E+02  0.61306414051E+02  0.00000000000E+00 0. -1.
<scales pt_clust_3="14000.00000" pt_clust_4="39.20952" pt_clust_5="49.94414" pt_clust_6="76.76810"></scales>
<clustering>
<clus scale="   49.944">  1  5  2 -1</clus>
<clus scale="   39.210">  1  4  2 -1</clus>
<clus scale="   76.768">  1  6  2 -1</clus>
<clus scale="   49.944">  1  3  2 -1</clus>
</clustering>
</event>
<event>
 6    0  0.1361744E+002  0.2046767E+03  0.7546771E-02  0.1145852E+00
         21   -1    0    0  504  502  0.00000000000E+00  0.00000000000E+00  0.12664827973E+03  0.12664827973E+03  0.00000000000E+00 0. -1.
          2   -1    0    0  505    0 -0.00000000000E+00 -0.00000000000E+00 -0.63439266266E+03  0.63439266266E+03  0.00000000000E+00 0.  1.
         21    1    1    2  503  501  0.26895709164E+02  0.43559530203E+02 -0.14619137478E+03  0.15489586793E+03  0.00000000000E+00 0.  1.
         21    1    1    2  504  503 -0.43036330014E+02 -0.89449036311E+02  0.12087816388E+02  0.99996855466E+02  0.00000000000E+00 0. -1.
         21    1    1    2  505  502 -0.11474127049E+03 -0.92236719933E+02 -0.12553818177E+03  0.19347611413E+03  0.00000000000E+00 0. -1.
          2    1    1    2  501    0  0.13088189134E+03  0.13812622604E+03 -0.24810264277E+03  0.31267210485E+03  0.00000000000E+00 0.  1.
<scales pt_clust_3="37.57723" pt_clust_4="99.26357" pt_clust_5="191.42625" pt_clust_6="37.57723"></scales>
<clustering>
<clus scale="   37.577">  3  6 -1 -1</clus>
<clus scale="   99.264">  1  4  2 -1</clus>
<clus scale="  191.426">  2  5  1 -1</clus>
<clus scale="   99.264">  1  3  2 -1</clus>
</clustering>
</event>
<event>
 6    0  0.1361744E+002  0.1194000E+03  0.7546771E-02  0.1244090E+00
         21   -1    0    0  503  502  0.00000000000E+00  0.00000000000E+00  0.16281814301E+04  0.16281814301E+04  0.00000000000E+00 0.  1.
          2   -1    0    0  505    0 -0.00000000000E+00 -0.00000000000E+00 -0.12119664792E+03  0.12119664792E+03  0.00000000000E+00 0.  1.
         21    1    1    2  503  501 -0.11930997143E+02 -0.40430512855E+02  0.90268473587E+03  0.90366847209E+03  0.00000000000E+00 0.  1.
         21    1    1    2  504  502 -0.33334862635E+02  0.43659078448E+02  0.59604259199E+03  0.59856837509E+03  0.00000000000E+00 0.  1.
         21    1    1    2  505  504  0.12856645640E+03 -0.47701595658E+02 -0.37563417153E+02  0.14218222901E+03  0.00000000000E+00 0.  1.
          2    1    1    2  501    0 -0.83300596619E+02  0.44473030065E+02  0.45820871450E+02  0.10495900181E+03  0.00000000000E+00 0.  1.
<scales pt_clust_3="42.15418" pt_clust_4="44.38787" pt_clust_5="14000.00000" pt_clust_6="119.39996"></scales>
<clustering>
<clus scale="   42.154">  1  3  2 -1</clus>
<clus scale="   44.388">  1  4  2 -1</clus>
<clus scale="  119.400">  1  6  2 -1</clus>
<clus scale="   42.154">  1  3  2 -1</clus>
</clustering>
</event>
<event>
 6    0  0.1361744E+002  0.2377402E+03  0.7546771E-02  0.1121307E+00
         21   -1    0    0  503  502  0.00000000000E+00  0.00000000000E+00  0.32869121900E+02  0.32869121900E+02  0.00000000000E+00 0.  1.
          2   -1    0    0  505    0 -0.00000000000E+00 -0.00000000000E+00 -0.42293184007E+04  0.42293184007E+04  0.00000000000E+00 0.  1.
         21    1    1    2  503  504  0.42544724157E+01 -0.44495877972E+02 -0.19772500975E+03  0.20271448683E+03  0.00000000000E+00 0.  1.
         21    1    1    2  504  501  0.15014795868E+02  0.11756007204E+03 -0.15498955210E+04  0.15544201301E+04  0.00000000000E+00 0.  1.
         21    1    1    2  505  502 -0.12213350235E+03 -0.13521027893E+03 -0.28742742111E+03  0.34031299466E+03  0.00000000000E+00 0.  1.
          2    1    1    2  501    0  0.10286423407E+03  0.62146084859E+02 -0.21614013269E+04  0.21647399111E+04  0.00000000000E+00 0.  1.
<scales pt_clust_3="44.69881" pt_clust_4="108.81296" pt_clust_5="210.43539" pt_clust_6="108.81296"></scales>
<clustering>
<clus scale="   44.699">  1  3  2 -1</clus>
<clus scale="  108.813">  4  6 -1 -1</clus>
<clus scale="  210.435">  1  5  2 -1</clus>
<clus scale="   44.699">  1  3  2 -1</clus>
</clustering>
</event>
<event>
 6    0  0.1361744E+002  0.2398524E+03  0.7546771E-02  0.1119891E+00
         21   -1    0    0  503  502  0.00000000000E+00  0.00000000000E+00  0.23728587435E+03  0.23728587435E+03  0.00000000000E+00 0. -1.
          2   -1    0    0  505    0 -0.00000000000E+00 -0.00000000000E+00 -0.15672690661E+04  0.15672690661E+04  0.00000000000E+00 0.  1.
         21    1    1    2  503  501  0.17319648110E+03  0.14153720880E+03  0.33718803468E+02  0.22620070789E+03  0.00000000000E+00 0. -1.
         21    1    1    2  504  502 -0.16863600388E+03 -0.21795309791E+03 -0.84963330048E+02  0.28837548812E+03  0.00000000000E+00 0. -1.
         21    1    1    2  505  504  0.13462041995E+02  0.11369957430E+03 -0.66011825341E+03  0.66997382655E+03  0.00000000000E+00 0. -1.
          2    1    1    2  501    0 -0.18022519210E+02 -0.37283685195E+02 -0.61862041176E+03  0.62000491791E+03  0.00000000000E+00 0.  1.
<scales pt_clust_3="14000.00000" pt_clust_4="239.85241" pt_clust_5="87.54674" pt_clust_6="41.41116"></scales>
<clustering>
<clus scale="   41.411">  2  6  1 -1</clus>
<clus scale="   87.547">  2  5  1 -1</clus>
<clus scale="  239.852">  2  4  1 -1</clus>
<clus scale="  239.852">  1  3  2 -1</clus>
</clustering>
</event>
<event>
 6    0  0.1361744E+002  0.1071884E+03  0.7546771E-02  0.1265867E+00
          2   -1    0    0  503    0 -0.00000000000E+00  0.00000000000E+00  0.28739268159E+04  0.28739268159E+04  0.00000000000E+00 0.  1.
         21   -1    0    0  504  502  0.00000000000E+00 -0.00000000000E+00 -0.81654062210E+03  0.81654062210E+03  0.00000000000E+00 0. -1.
         21    1    1    2  503  502 -0.11614909128E+02  0.86567207262E+02  0.40348528037E+03  0.41283066621E+03  0.00000000000E+00 0. -1.
         21    1    1    2  504  505  0.52436478805E+02  0.54946038564E+01 -0.11474886229E+03  0.12628173414E+03  0.00000000000E+00 0. -1.
         21    1    1    2  505  501  0.14669498049E+02  0.78285781868E+02 -0.68578274044E+03  0.69039251510E+03  0.00000000000E+00 0. -1.
          2    1    1    2  501    0 -0.55491067727E+02 -0.17034759299E+03  0.24544325162E+04  0.24609625226E+04  0.00000000000E+00 0.  1.
<scales pt_clust_3="87.33339" pt_clust_4="52.72357" pt_clust_5="14000.00000" pt_clust_6="107.18839"></scales>
<clustering>
<clus scale="   52.724">  2  4  1 -1</clus>
<clus scale="   87.333">  1  3  2 -1</clus>
<clus scale="  107.188">  1  6  2 -1</clus>
<clus scale="   52.724">  2  3  1 -1</clus>
</clustering>
</event>
<event>
 6    0  0.1361744E+002  0.2231252E+03  0.7546771E-02  0.1131574E+00
         21   -1    0    0  501  502  0.00000000000E+00  0.00000000000E+00  0.91413632247E+02  0.91413632247E+02  0.00000000000E+00 0.  1.
          2   -1    0    0  505    0 -0.00000000000E+00 -0.00000000000E+00 -0.21714558803E+04  0.21714558803E+04  0.00000000000E+00 0.  1.
         21    1    1    2  503  502  0.27077041716E+01 -0.21370141137E+03 -0.74075323979E+02  0.22619190637E+03  0.00000000000E+00 0.  1.
         21    1    1    2  504  503 -0.18411403562E+02  0.91393273348E+02 -0.22030295113E+03  0.23921768428E+03  0.00000000000E+00 0.  1.
         21    1    1    2  505  504 -0.50581513999E+02  0.85777932769E+02 -0.51471025784E+03  0.52425470225E+03  0.00000000000E+00 0.  1.
          2    1    1    2  501    0  0.66285213390E+02  0.36530205251E+02 -0.12709537152E+04  0.12732052197E+04  0.00000000000E+00 0.  1.
<scales pt_clust_3="208.05975" pt_clust_4="77.99110" pt_clust_5="77.99110" pt_clust_6="75.68478"></scales>
<clustering>
<clus scale="   75.685">  2  6  1 -1</clus>
<clus scale="   77.991">  4  5 -1 -1</clus>
<clus scale="  208.060">  1  3  2 -1</clus>
<clus scale="  208.060">  1  3  2 -1</clus>
</clustering>
</event>
<event>
 6    0  0.1361744E+002  0.8838823E+02  0.7546771E-02  0.1306802E+00
         -3   -1    0    0    0  501 -0.00000000000E+00  0.00000000000E+00  0.16312892362E+03  0.16312892362E+03  0.00000000000E+00 0. -1.
         21   -1    0    0  504  502  0.00000000000E+00 -0.00000000000E+00 -0.10623903290E+03  0.10623903290E+03  0.00000000000E+00 0. -1.
         21    1    1    2  503  501 -0.86197852472E+02 -0.27702096970E+02  0.77277409378E+01  0.90869103261E+02  0.00000000000E+00 0. -1.
         21    1    1    2  504  503 -0.91557409160E+01  0.34628986571E+02 -0.46791772243E+01  0.36123247392E+02  0.00000000000E+00 0. -1.
         21    1    1    2  505  502  0.15601400205E+02 -0.41895560676E+02  0.17258364205E+02  0.47921736485E+02  0.00000000000E+00 0. -1.
         -3    1    1    2    0  505  0.79752193183E+02  0.34968671075E+02  0.36582962797E+02  0.94453869382E+02  0.00000000000E+00 0. -1.
<scales pt_clust_3="88.38823" pt_clust_4="35.81891" pt_clust_5="38.34428" pt_clust_6="14000.00000"></scales>
<clustering>
<clus scale="   35.819">  2  4  1 -1</clus>
<clus scale="   38.344">  2  5  1 -1</clus>
<clus scale="   88.388">  2  3  1 -1</clus>
<clus scale="   35.819">  2  3  1 -1</clus>
</clustering>
</event>
<event>
 6    0  0.1361744E+002  0.9374637E+02  0.7546771E-02  0.1294025E+00
          1   -1    0    0  504    0 -0.00000000000E+00  0.00000000000E+00  0.68603496203E+03  0.68603496203E+03  0.00000000000E+00 0.  1.
         21   -1    0    0  503  502  0.00000000000E+00 -0.00000000000E+00 -0.77634042820E+02  0.77634042820E+02  0.00000000000E+00 0.  1.
         21    1    1    2  503  505  0.54438738664E+02  0.26825424138E+02  0.79108153283E+02  0.99705965535E+02  0.00000000000E+00 0.  1.
         21    1    1    2  504  502 -0.63934411338E+02 -0.62541315100E+02  0.39016200773E+03  0.40028167248E+03  0.00000000000E+00 0.  1.
         21    1    1    2  505  501  0.56399461996E+02 -0.56709737959E+02 -0.11534990599E+02  0.80808104179E+02  0.00000000000E+00 0.  1.
          1    1    1    2  501    0 -0.46903789322E+02  0.92425628921E+02  0.15066574880E+03  0.18287326266E+03  0.00000000000E+00 0.  1.
<scales pt_clust_3="60.68921" pt_clust_4="85.11525" pt_clust_5="93.74637" pt_clust_6="14000.00000"></scales>
<clustering>
<clus scale="   60.689">  2  3  1 -1</clus>
<clus scale="   85.115">  1  4  2 -1</clus>
<clus scale="   93.746">  2  5  1 -1</clus>
<clus scale="   60.689">  2  3  1 -1</clus>
</clustering>
</event>
<event>
 6    0  0.1361744E+002  0.1322476E+03  0.7546771E-02  0.1224158E+00
         21   -1    0    0  501  502  0.00000000000E+00  0.00000000000E+00  0.63800164654E+02  0.63800164654E+02  0.00000000000E+00 0. -1.
          2   -1    0    0  503    0 -0.00000000000E+00 -0.00000000000E+00 -0.14090076592E+04  0.14090076592E+04  0.00000000000E+00 0. -1.
         21    1    1    2  503  504  0.23608735217E+02  0.23130078458E+02 -0.11862196534E+03  0.12314034095E+03  0.00000000000E+00 0. -1.
         21    1    1    2  504  505 -0.11456749416E+02  0.43460096782E+02 -0.80630837603E+03  0.80756005001E+03  0.00000000000E+00 0.  1.
         21    1    1    2  505  502  0.28684013768E+02 -0.14135415441E+03 -0.36216907885E+02  0.14871258868E+03  0.00000000000E+00 0. -1.
          2    1    1    2  501    0 -0.40835999569E+02  0.74763979168E+02 -0.38406024525E+03  0.39339484418E+03  0.00000000000E+00 0. -1.
<scales pt_clust_3="33.05107" pt_clust_4="58.04546" pt_clust_5="132.24762" pt_clust_6="14000.00000"></scales>
<clustering>
<clus scale="   33.051">  2  3  1 -1</clus>
<clus scale="   58.045">  2  4  1 -1</clus>
<clus scale="  132.248">  1  5  2 -1</clus>
<clus scale="  132.248">  1  3  2 -1</clus>
</clustering>
</event>
<event>
 6    0  0.1361744E+002  0.1463791E+03  0.7546771E-02  0.1204994E+00
          2   -1    0    0  503    0 -0.00000000000E+00  0.00000000000E+00  0.13475444957E+04  0.13475444957E+04  0.00000000000E+00 0. -1.
         21   -1    0    0  501  502  0.00000000000E+00 -0.00000000000E+00 -0.41705426115E+02  0.41705426115E+02  0.00000000000E+00 0.  1.
         21    1    1    2  503  504  0.22186890247E+02  0.78414044218E+02  0.37462675852E+03  0.38338783057E+03  0.00000000000E+00 0. -1.
         21    1    1    2  504  505 -0.88922257243E+02 -0.40291906018E+02  0.11252474396E+03  0.14897121711E+03  0.00000000000E+00 0.  1.
         21    1    1    2  505  502 -0.52711973305E+02  0.71858778766E+01  0.36923890524E+02  0.64757722798E+02  0.00000000000E+00 0.  1.
          2    1    1    2  501    0  0.11944734030E+03 -0.45308016077E+02  0.78176367658E+03  0.79213315134E+03  0.00000000000E+00 0. -1.
<scales pt_clust_3="81.49246" pt_clust_4="34.53717" pt_clust_5="34.53717" pt_clust_6="138.70093"></scales>
<clustering>
<clus scale="   34.537">  4  5 -1 -1</clus>
<clus scale="   81.492">  1  3  2 -1</clus>
<clus scale="  138.701">  1  6  2 -1</clus>
<clus scale="  146.379">  2  3  1 -1</clus>
</clustering>
</event>
<event>
 6    0  0.1494765E+002  0.2328091E+03  0.7546771E-02  0.1124678E+00
         21   -1    0    0  503  502  0.00000000000E+00  0.00000000000E+00  0.85503715747E+03  0.85503715747E+03  0.00000000000E+00 0. -1.
          2   -1    0    0  505    0 -0.00000000000E+00 -0.00000000000E+00 -0.11106907311E+04  0.11106907311E+04  0.00000000000E+00 0. -1.
         21    1    1    2  503  504  0.23690021018E+03 -0.34059096163E+02  0.78404516241E+03  0.81976127520E+03  0.00000000000E+00 0. -1.
         21    1    1    2  504  501 -0.12498904740E+03  0.60675521873E+02 -0.16370990646E+03  0.21472008383E+03  0.00000000000E+00 0.  1.
         21    1    1    2  505  502  0.40322160262E+01 -0.45537295542E+02  0.16839372377E+01  0.45746471951E+02  0.00000000000E+00 0. -1.
          2    1    1    2  501    0 -0.11594337880E+03  0.18920869831E+02 -0.87767276685E+03  0.88550005763E+03  0.00000000000E+00 0. -1.
<scales pt_clust_3="14000.00000" pt_clust_4="232.80912" pt_clust_5="45.71547" pt_clust_6="117.42401"></scales>
<clustering>
<clus scale="   45.715">  1  5  2 -1</clus>
<clus scale="  117.424">  2  6  1 -1</clus>
<clus scale="  232.809">  2  4  1 -1</clus>
<clus scale="   45.715">  1  3  2 -1</clus>
</clustering>
</event>
<event>
 6    0  0.1361744E+002  0.1687059E+03  0.7546771E-02  0.1179204E+00
         -2   -1    0    0    0  501 -0.00000000000E+00  0.00000000000E+00  0.78511389218E+03  0.78511389218E+03  0.00000000000E+00 0.  1.
         21   -1    0    0  505  502  0.00000000000E+00 -0.00000000000E+00 -0.15196018902E+03  0.15196018902E+03  0.00000000000E+00 0. -1.
         21    1    1    2  503  501 -0.42670387286E+01  0.30809319978E+02  0.88272066971E+02  0.93591557442E+02  0.00000000000E+00 0.  1.
         21    1    1    2  504  502  0.57220527278E+01 -0.51732452041E+02  0.23692268210E+02  0.57186642274E+02  0.00000000000E+00 0. -1.
         21    1    1    2  505  503 -0.14324608586E+03 -0.53676753088E+02 -0.73991376241E+02  0.16992751012E+03  0.00000000000E+00 0. -1.
         -2    1    1    2    0  504  0.14179107186E+03  0.74599885152E+02  0.59518074422E+03  0.61636837136E+03  0.00000000000E+00 0.  1.
<scales pt_clust_3="31.10341" pt_clust_4="50.23673" pt_clust_5="168.70587" pt_clust_6="14000.00000"></scales>
<clustering>
<clus scale="   31.103">  1  3  2 -1</clus>
<clus scale="   50.237">  2  4  1 -1</clus>
<clus scale="  168.706">  2  5  1 -1</clus>
<clus scale="   50.237">  2  3  1 -1</clus>
</clustering>
</event>
<event>
 6    0  0.1361744E+002  0.1797464E+03  0.7546771E-02  0.1168049E+00
         21   -1    0    0  503  502  0.00000000000E+00  0.00000000000E+00  0.82000623153E+03  0.82000623153E+03  0.00000000000E+00 0.  1.
          2   -1    0    0  504    0 -0.00000000000E+00 -0.00000000000E+00 -0.39700529659E+03  0.39700529659E+03  0.00000000000E+00 0. -1.
         21    1    1    2  503  501 -0.18394672177E+03 -0.11834835974E+02  0.69915972308E+03  0.72304963741E+03  0.00000000000E+00 0.  1.
         21    1    1    2  504  505 -0.27391811619E+02  0.16487483165E+02 -0.23138745417E+03  0.23358574955E+03  0.00000000000E+00 0.  1.
         21    1    1    2  505  502  0.15669481326E+03 -0.68676243128E+01  0.37800492890E+02  0.16133600351E+03  0.00000000000E+00 0. -1.
          2    1    1    2  501    0  0.54643720128E+02  0.22149771222E+01 -0.82571826859E+02  0.99040137641E+02  0.00000000000E+00 0. -1.
<scales pt_clust_3="14000.00000" pt_clust_4="31.97106" pt_clust_5="179.74637" pt_clust_6="41.11261"></scales>
<clustering>
<clus scale="   31.971">  2  4  1 -1</clus>
<clus scale="   41.113">  2  6  1 -1</clus>
<clus scale="  179.746">  2  5  1 -1</clus>
<clus scale="  179.746">  1  3  2 -1</clus>
</clustering>
</event>
<event>
 6    0  0.1361744E+002  0.1390980E+03  0.7546771E-02  0.1214548E+00
         21   -1    0    0  503  502  0.00000000000E+00  0.00000000000E+00  0.19251857092E+03  0.19251857092E+03  0.00000000000E+00 0.  1.
         -1   -1    0    0    0  501 -0.00000000000E+00 -0.00000000000E+00 -0.33450576899E+03  0.33450576899E+03  0.00000000000E+00 0.  1.
         21    1    1    2  503  505  0.99102566555E+01  0.39928968979E+02  0.27290147169E+02  0.49368895908E+02  0.00000000000E+00 0.  1.
         21    1    1    2  504  501  0.63888526104E+02 -0.10048900647E+03 -0.17254477955E+03  0.20964609497E+03  0.00000000000E+00 0.  1.
         21    1    1    2  505  504 -0.39510559235E+02  0.90518793583E+02  0.11247837529E+03  0.14968674354E+03  0.00000000000E+00 0.  1.
         -1    1    1    2    0  502 -0.34288223524E+02 -0.29958756091E+02 -0.10921094099E+03  0.11832260549E+03  0.00000000000E+00 0.  1.
<scales pt_clust_3="30.23840" pt_clust_4="130.97000" pt_clust_5="30.23840" pt_clust_6="45.53251"></scales>
<clustering>
<clus scale="   30.238">  3  5 -1 -1</clus>
<clus scale="   45.533">  2  6  1 -1</clus>
<clus scale="  130.970">  2  4  1 -1</clus>
<clus scale="  139.098">  1  3  2 -1</clus>
</clustering>
</event>
<event>
 6    0  0.1361744E+002  0.1639494E+03  0.7546771E-02  0.1184309E+00
          2   -1    0    0  502    0 -0.00000000000E+00  0.00000000000E+00  0.20888711950E+04  0.20888711950E+04  0.00000000000E+00 0.  1.
         21   -1    0    0  503  502  0.00000000000E+00 -0.00000000000E+00 -0.43342425227E+02  0.43342425227E+02  0.00000000000E+00 0. -1.
         21    1    1    2  503  504 -0.63698376800E+02  0.63944430976E+02  0.15637458531E+03  0.18055299607E+03  0.00000000000E+00 0. -1.
         21    1    1    2  504  505 -0.98300659746E+02 -0.12020577451E+02  0.63348466358E+02  0.11756080205E+03  0.00000000000E+00 0. -1.
         21    1    1    2  505  501  0.82745702425E+02 -0.10425851439E+02  0.76676139968E+03  0.77128373099E+03  0.00000000000E+00 0.  1.
          2    1    1    2  501    0  0.79253334121E+02 -0.41498002086E+02  0.10590443184E+04  0.10628160911E+04  0.00000000000E+00 0.  1.
<scales pt_clust_3="90.25726" pt_clust_4="159.57303" pt_clust_5="36.33104" pt_clust_6="36.33104"></scales>
<clustering>
<clus scale="   36.331">  5  6 -1 -1</clus>
<clus scale="   90.257">  2  3  1 -1</clus>
<clus scale="  159.573">  2  4  1 -1</clus>
<clus scale="   90.257">  2  3  1 -1</clus>
</clustering>
</event>
<event>
 6    0  0.1361744E+002  0.1169942E+03  0.7546771E-02  0.1248140E+00
          2   -1    0    0  505    0 -0.00000000000E+00  0.00000000000E+00  0.18108881334E+04  0.18108881334E+04  0.00000000000E+00 0.  1.
         21   -1    0    0  501  502  0.00000000000E+00 -0.00000000000E+00 -0.10925950945E+03  0.10925950945E+03  0.00000000000E+00 0. -1.
         21    1    1    2  503  504  0.79914923760E+02  0.11982005896E+02  0.72477344269E+02  0.10854920054E+03  0.00000000000E+00 0. -1.
         21    1    1    2  504  502 -0.13584943459E+03 -0.25765651831E+02 -0.36765643971E+02  0.14307568021E+03  0.00000000000E+00 0. -1.
         21    1    1    2  505  503  0.21870014126E+02  0.27942672823E+02  0.13489096582E+04  0.13493762842E+04  0.00000000000E+00 0.  1.
          2    1    1    2  501    0  0.34064496700E+02 -0.14159026888E+02  0.31700726548E+03  0.31914647789E+03  0.00000000000E+00 0.  1.
<scales pt_clust_3="14000.00000" pt_clust_4="116.99422" pt_clust_5="35.48367" pt_clust_6="49.39275"></scales>
<clustering>
<clus scale="   35.484">  1  5  2 -1</clus>
<clus scale="   49.393">  1  6  2 -1</clus>
<clus scale="  116.994">  2  4  1 -1</clus>
<clus scale="  116.994">  2  3  1 -1</clus>
</clustering>
</event>
<event>
 6    0  0.1361744E+002  0.1117646E+03  0.7546771E-02  0.1257337E+00
         -2   -1    0    0    0  501 -0.00000000000E+00  0.00000000000E+00  0.99872595731E+03  0.99872595731E+03  0.00000000000E+00 0. -1.
         21   -1    0    0  505  502  0.00000000000E+00 -0.00000000000E+00 -0.32990811092E+02  0.32990811092E+02  0.00000000000E+00 0. -1.
         21    1    1    2  503  501 -0.33079456957E+02 -0.46824118121E+01  0.13533207790E+03  0.13939493090E+03  0.00000000000E+00 0.  1.
         21    1    1    2  504  503  0.10456282782E+02 -0.56123148153E+02  0.24025382668E+03  0.24694340008E+03  0.00000000000E+00 0.  1.
         21    1    1    2  505  504  0.58636743904E+02 -0.82444677172E+02  0.14853283016E+03  0.17971475779E+03  0.00000000000E+00 0. -1.
         -2    1    1    2    0  502 -0.36013569729E+02  0.14325023714E+03  0.44161641147E+03  0.46566367963E+03  0.00000000000E+00 0. -1.
<scales pt_clust_3="33.40921" pt_clust_4="57.45792" pt_clust_5="111.76458" pt_clust_6="14000.00000"></scales>
<clustering>
<clus scale="   33.409">  1  3  2 -1</clus>
<clus scale="   57.458">  1  4  2 -1</clus>
<clus scale="  111.765">  2  5  1 -1</clus>
<clus scale="  111.765">  2  3  1 -1</clus>
</clustering>
</event>
<event>
 6    0  0.1361744E+002  0.8783805E+02  0.7546771E-02  0.1308173E+00
          1   -1    0    0  505    0 -0.00000000000E+00  0.00000000000E+00  0.18712994701E+04  0.18712994701E+04  0.00000000000E+00 0. -1.
         21   -1    0    0  503  502  0.00000000000E+00 -0.00000000000E+00 -0.31928096071E+02  0.31928096071E+02  0.00000000000E+00 0. -1.
         21    1    1    2  503  504 -0.47243595647E+02 -0.10871367611E+02  0.89268683331E+02  0.10158268448E+03  0.00000000000E+00 0.  1.
         21    1    1    2  504  501  0.40670723332E+02 -0.31958508394E+02  0.11668862599E+03  0.12763890249E+03  0.00000000000E+00 0. -1.
         21    1    1    2  505  502  0.82960800086E+02 -0.24679289996E+01  0.71439745022E+02  0.10950900508E+03  0.00000000000E+00 0. -1.
          1    1    1    2  501    0 -0.76387927771E+02  0.45297805005E+02  0.15619743197E+04  0.15644969741E+04  0.00000000000E+00 0. -1.
<scales pt_clust_3="48.47828" pt_clust_4="45.96444" pt_clust_5="87.83805" pt_clust_6="14000.00000"></scales>
<clustering>
<clus scale="   48.478">  2  3  1 -1</clus>
<clus scale="   45.964">  2  4  1 -1</clus>
<clus scale="   87.838">  2  5  1 -1</clus>
<clus scale="   48.478">  2  3  1 -1</clus>
</clustering>
</event>
<event>
 6    0  0.1361744E+002  0.1313401E+03  0.7546771E-02  0.1225481E+00
         21   -1    0    0  503  502  0.00000000000E+00  0.00000000000E+00  0.43078081818E+03  0.43078081818E+03  0.00000000000E+00 0. -1.
          1   -1    0    0  504    0 -0.00000000000E+00 -0.00000000000E+00 -0.12128645500E+04  0.12128645500E+04  0.00000000000E+00 0.  1.
         21    1    1    2  503  505 -0.66906298665E+01  0.10227476677E+03  0.32036291633E+03  0.33635887175E+03  0.00000000000E+00 0. -1.
         21    1    1    2  504  502 -0.75602011234E+02 -0.35406234223E+01  0.39523529817E+02  0.85383309411E+02  0.00000000000E+00 0.  1.
         21    1    1    2  505  501  0.15912499863E+03 -0.10685020808E+03 -0.20089758400E+03  0.27766449433E+03  0.00000000000E+00 0.  1.
          1    1    1    2  501    0 -0.76832357531E+02  0.81160647234E+01 -0.94107259396E+03  0.94423869269E+03  0.00000000000E+00 0.  1.
<scales pt_clust_3="131.34013" pt_clust_4="75.68487" pt_clust_5="14000.00000" pt_clust_6="77.58138"></scales>
<clustering>
<clus scale="   75.685">  1  4  2 -1</clus>
<clus scale="   77.581">  2  6  1 -1</clus>
<clus scale="  131.340">  1  3  2 -1</clus>
<clus scale="   75.685">  1  3  2 -1</clus>
</clustering>
</event>
<event>
 6    0  0.1361744E+002  0.1279373E+03  0.7546771E-02  0.1230549E+00
          2   -1    0    0  503    0 -0.00000000000E+00  0.00000000000E+00  0.63080671821E+03  0.63080671821E+03  0.00000000000E+00 0.  1.
         21   -1    0    0  505  502  0.00000000000E+00 -0.00000000000E+00 -0.33649585127E+03  0.33649585127E+03  0.00000000000E+00 0.  1.
         21    1    1    2  503  504 -0.81897513466E+02  0.70693417598E+02  0.21810592747E+03  0.24346448941E+03  0.00000000000E+00 0.  1.
         21    1    1    2  504  502  0.80105771724E+02 -0.77298092041E+02 -0.23721901020E+03  0.26203966970E+03  0.00000000000E+00 0.  1.
         21    1    1    2  505  501  0.40322747482E+02  0.22911007225E+02 -0.65674095006E+02  0.80398538366E+02  0.00000000000E+00 0. -1.
          2    1    1    2  501    0 -0.38531005741E+02 -0.16306332781E+02  0.37909804467E+03  0.38139987201E+03  0.00000000000E+00 0.  1.
<scales pt_clust_3="127.93733" pt_clust_4="14000.00000" pt_clust_5="45.15629" pt_clust_6="41.83939"></scales>
<clustering>
<clus scale="   41.839">  1  6  2 -1</clus>
<clus scale="   45.156">  2  5  1 -1</clus>
<clus scale="  127.937">  1  3  2 -1</clus>
<clus scale="   45.156">  2  3  1 -1</clus>
</clustering>
</event>
<event>
 6    0  0.1361744E+002  0.1289177E+03  0.7546771E-02  0.1229071E+00
         21   -1    0    0  505  502  0.00000000000E+00  0.00000000000E+00  0.43145280678E+02  0.43145280678E+02  0.00000000000E+00 0.  1.
          1   -1    0    0  503    0 -0.00000000000E+00 -0.00000000000E+00 -0.65407055721E+03  0.65407055721E+03  0.00000000000E+00 0.  1.
         21    1    1    2  503  502 -0.10673909504E+03 -0.55434312476E+02 -0.27261861923E+03  0.29797165798E+03  0.00000000000E+00 0.  1.
         21    1    1    2  504  501  0.62349324665E+02  0.98263009238E+01 -0.60476932361E+02  0.87415409533E+02  0.00000000000E+00 0.  1.
         21    1    1    2  505  504  0.69146406901E+02 -0.18229214597E+02 -0.11840959064E+03  0.13832700751E+03  0.00000000000E+00 0.  1.
          1    1    1    2  501    0 -0.24756636522E+02  0.63837226149E+02 -0.15942013431E+03  0.17350176286E+03  0.00000000000E+00 0.  1.
<scales pt_clust_3="122.56536" pt_clust_4="37.55103" pt_clust_5="37.55103" pt_clust_6="68.46957"></scales>
<clustering>
<clus scale="   37.551">  4  5 -1 -1</clus>
<clus scale="   68.470">  2  6  1 -1</clus>
<clus scale="  122.565">  2  3  1 -1</clus>
<clus scale="  128.918">  1  3  2 -1</clus>
</clustering>
</event>
<event>
 6    0  0.1361744E+002  0.1021646E+03  0.7546771E-02  0.1275809E+00
         21   -1    0    0  504  502  0.00000000000E+00  0.00000000000E+00  0.39763839878E+02  0.39763839878E+02  0.00000000000E+00 0.  1.
          1   -1    0    0  505    0 -0.00000000000E+00 -0.00000000000E+00 -0.12284593510E+04  0.12284593510E+04  0.00000000000E+00 0.  1.
         21    1    1    2  503  502 -0.91177147887E+02  0.18323354582E+02 -0.77197946642E+02  0.12086579576E+03  0.00000000000E+00 0.  1.
         21    1    1    2  504  501  0.26714852221E+02  0.74228384242E+02 -0.12296055682E+03  0.14609187140E+03  0.00000000000E+00 0.  1.
         21    1    1    2  505  503 -0.25602142965E+02 -0.38832802838E+02 -0.17816895889E+03  0.18414025691E+03  0.00000000000E+00 0. -1.
          1    1    1    2  501    0  0.90064438631E+02 -0.53718935986E+02 -0.81036804875E+03  0.81712526679E+03  0.00000000000E+00 0.  1.
<scales pt_clust_3="14000.00000" pt_clust_4="73.09590" pt_clust_5="46.51297" pt_clust_6="102.16455"></scales>
<clustering>
<clus scale="   46.513">  2  5  1 -1</clus>
<clus scale="   73.096">  1  4  2 -1</clus>
<clus scale="  102.165">  2  6  1 -1</clus>
<clus scale="   73.096">  1  3  2 -1</clus>
</clustering>
</event>
<event>
 6    0  0.1361744E+002  0.2788649E+03  0.7546771E-02  0.1096311E+00
         21   -1    0    0  503  502  0.00000000000E+00  0.00000000000E+00  0.29311910913E+03  0.29311910913E+03  0.00000000000E+00 0.  1.
         -3   -1    0    0    0  501 -0.00000000000E+00 -0.00000000000E+00 -0.34264817207E+03  0.34264817207E+03  0.00000000000E+00 0.  1.
         21    1    1    2  503  501 -0.12377260164E+02  0.40275010377E+02 -0.27869876656E+02  0.50517353997E+02  0.00000000000E+00 0. -1.
         21    1    1    2  504  502 -0.55027698648E+02 -0.56311510957E+02 -0.16551908188E+01  0.78751339934E+02  0.00000000000E+00 0. -1.
         21    1    1    2  505  504 -0.16529588443E+03 -0.10915237648E+03  0.93344166049E+02  0.21897512196E+03  0.00000000000E+00 0.  1.
         -3    1    1    2    0  505  0.23270084324E+03  0.12518887706E+03 -0.11334816151E+03  0.28752346531E+03  0.00000000000E+00 0.  1.
<scales pt_clust_3="42.13399" pt_clust_4="41.40635" pt_clust_5="41.40635" pt_clust_6="271.02071"></scales>
<clustering>
<clus scale="   41.406">  4  5 -1 -1</clus>
<clus scale="   42.134">  2  3  1 -1</clus>
<clus scale="  271.021">  2  6  1 -1</clus>
<clus scale="  278.865">  1  3  2 -1</clus>
</clustering>
</event>
<event>
 6    0  0.1361744E+002  0.1359513E+03  0.7546771E-02  0.1218883E+00
         -3   -1    0    0    0  501 -0.00000000000E+00  0.00000000000E+00  0.32082816055E+04  0.32082816055E+04  0.00000000000E+00 0.  1.
         21   -1    0    0  501  502  0.00000000000E+00 -0.00000000000E+00 -0.13358311987E+03  0.13358311987E+03  0.00000000000E+00 0.  1.
         21    1    1    2  503  502 -0.14223577475E+02  0.35384598180E+02 -0.62533850705E+02  0.73245221199E+02  0.00000000000E+00 0.  1.
         21    1    1    2  504  503  0.45954324190E+02 -0.68796143844E+02 -0.16160789697E+02  0.84296384520E+02  0.00000000000E+00 0.  1.
         21    1    1    2  505  504  0.44372768660E+02 -0.85022710298E+02  0.15263373594E+03  0.18026331077E+03  0.00000000000E+00 0.  1.
         -3    1    1    2    0  505 -0.76103515375E+02  0.11843425596E+03  0.30007593901E+04  0.30040598088E+04  0.00000000000E+00 0.  1.
<scales pt_clust_3="38.13633" pt_clust_4="54.52427" pt_clust_5="135.95129" pt_clust_6="14000.00000"></scales>
<clustering>
<clus scale="   38.136">  2  3  1 -1</clus>
<clus scale="   54.524">  2  4  1 -1</clus>
<clus scale="  135.951">  2  5  1 -1</clus>
<clus scale="   38.136">  2  3  1 -1</clus>
</clustering>
</event>
<event>
 6    0  0.1361744E+002  0.1509153E+03  0.7546771E-02  0.1199353E+00
         21   -1    0    0  505  502  0.00000000000E+00  0.00000000000E+00  0.49747646071E+02  0.49747646071E+02  0.00000000000E+00 0.  1.
          2   -1    0    0  504    0 -0.00000000000E+00 -0.00000000000E+00 -0.20258103201E+04  0.20258103201E+04  0.00000000000E+00 0. -1.
         21    1    1    2  503  501  0.62525971076E+02  0.24431080961E+01 -0.43035989799E+03  0.43488516603E+03  0.00000000000E+00 0. -1.
         21    1    1    2  504  502 -0.75385404655E+02  0.11375314416E+03 -0.14026599276E+03  0.19569692324E+03  0.00000000000E+00 0.  1.
         21    1    1    2  505  503 -0.74069655148E+02 -0.14253557863E+03 -0.34395896410E+03  0.37961885355E+03  0.00000000000E+00 0.  1.
          2    1    1    2  501    0  0.86929088726E+02  0.26339326370E+02 -0.10614778191E+04  0.10653570233E+04  0.00000000000E+00 0. -1.
<scales pt_clust_3="36.94756" pt_clust_4="136.46515" pt_clust_5="144.20060" pt_clust_6="36.94756"></scales>
<clustering>
<clus scale="   36.948">  3  6 -1 -1</clus>
<clus scale="  136.465">  1  4  2 -1</clus>
<clus scale="  144.201">  1  5  2 -1</clus>
<clus scale="  136.465">  1  3  2 -1</clus>
</clustering>
</event>
<event>
 6    0  0.1361744E+002  0.8035282E+02  0.7546771E-02  0.1328053E+00
          1   -1    0    0  504    0 -0.00000000000E+00  0.00000000000E+00  0.18105110652E+04  0.18105110652E+04  0.00000000000E+00 0. -1.
         21   -1    0    0  505  502  0.00000000000E+00 -0.00000000000E+00 -0.60715425569E+02  0.60715425569E+02  0.00000000000E+00 0. -1.
         21    1    1    2  503  502  0.62225652000E+02 -0.51426057494E+02  0.21196394184E+00  0.80726179675E+02  0.00000000000E+00 0. -1.
         21    1    1    2  504  503 -0.42523830619E+02  0.69445313179E+02  0.30126791721E+03  0.31207897339E+03  0.00000000000E+00 0. -1.
         21    1    1    2  505  501  0.30851358328E+02 -0.67258742053E+02  0.82655974707E+02  0.11093941972E+03  0.00000000000E+00 0. -1.
          1    1    1    2  501    0 -0.50553179708E+02  0.49239486368E+02  0.13656597838E+04  0.13674819180E+04  0.00000000000E+00 0. -1.
<scales pt_clust_3="80.35282" pt_clust_4="14000.00000" pt_clust_5="59.89961" pt_clust_6="70.57018"></scales>
<clustering>
<clus scale="   70.570">  1  6  2 -1</clus>
<clus scale="   59.900">  1  5  2 -1</clus>
<clus scale="   80.353">  2  3  1 -1</clus>
<clus scale="   80.353">  2  3  1 -1</clus>
</clustering>
</event>
<event>
 6    0  0.1361744E+002  0.3490657E+03  0.7546771E-02  0.1062999E+00
          2   -1    0    0  503    0 -0.00000000000E+00  0.00000000000E+00  0.51272855749E+03  0.51272855749E+03  0.00000000000E+00 0. -1.
         21   -1    0    0  504  502  0.00000000000E+00 -0.00000000000E+00 -0.44132656239E+03  0.44132656239E+03  0.00000000000E+00 0. -1.
         21    1    1    2  503  505 -0.12789279498E+03  0.75869859493E+01 -0.79859757077E+02  0.15096923582E+03  0.00000000000E+00 0. -1.
         21    1    1    2  504  501  0.24198394762E+03 -0.19372924949E+02  0.22070591113E+03  0.32808937857E+03  0.00000000000E+00 0. -1.
         21    1    1    2  505  502 -0.20246287586E+03  0.64299943665E+02 -0.21142393200E+03  0.29970948914E+03  0.00000000000E+00 0. -1.
          2    1    1    2  501    0  0.88371723215E+02 -0.52514004665E+02  0.14197977304E+03  0.17528701635E+03  0.00000000000E+00 0. -1.
<scales pt_clust_3="48.88600" pt_clust_4="56.52142" pt_clust_5="343.89697" pt_clust_6="56.52142"></scales>
<clustering>
<clus scale="   48.886">  3  5 -1 -1</clus>
<clus scale="   56.521">  4  6 -1 -1</clus>
<clus scale="  343.897">  2  3  1 -1</clus>
<clus scale="  343.897">  2  3  1 -1</clus>
</clustering>
</event>
<event>
 6    0  0.1361744E+002  0.1612773E+03  0.7546771E-02  0.1187262E+00
          1   -1    0    0  505    0 -0.00000000000E+00  0.00000000000E+00  0.10342931998E+03  0.10342931998E+03  0.00000000000E+00 0.  1.
         21   -1    0    0  501  502  0.00000000000E+00 -0.00000000000E+00 -0.97366295452E+03  0.97366295452E+03  0.00000000000E+00 0. -1.
         21    1    1    2  503  504  0.47782050201E+01 -0.11086690555E+03 -0.67861183670E+03  0.68762513545E+03  0.00000000000E+00 0. -1.
         21    1    1    2  504  502 -0.30759012912E+02 -0.52644230539E+02 -0.13741428765E+03  0.15033368996E+03  0.00000000000E+00 0.  1.
         21    1    1    2  505  503  0.12874270261E+02 -0.33254069977E+02 -0.10057560762E+02  0.37050432295E+02  0.00000000000E+00 0. -1.
          1    1    1    2  501    0  0.13106537631E+02  0.19676520607E+03 -0.44149949424E+02  0.20208301681E+03  0.00000000000E+00 0.  1.
<scales pt_clust_3="161.27726" pt_clust_4="62.59947" pt_clust_5="35.65922" pt_clust_6="14000.00000"></scales>
<clustering>
<clus scale="   35.659">  1  5  2 -1</clus>
<clus scale="   62.599">  2  4  1 -1</clus>
<clus scale="  161.277">  2  3  1 -1</clus>
<clus scale="   62.599">  2  3  1 -1</clus>
</clustering>
</event>
<event>
 6    0  0.1361744E+002  0.1573941E+03  0.7546771E-02  0.1191671E+00
          2   -1    0    0  504    0 -0.00000000000E+00  0.00000000000E+00  0.14495171730E+04  0.14495171730E+04  0.00000000000E+00 0.  1.
         21   -1    0    0  505  502  0.00000000000E+00 -0.00000000000E+00 -0.28847523049E+03  0.28847523049E+03  0.00000000000E+00 0. -1.
         21    1    1    2  503  502 -0.15048241653E+02  0.89439432479E+02 -0.18821117638E+03  0.20892416944E+03  0.00000000000E+00 0. -1.
         21    1    1    2  504  503 -0.96205969632E+01  0.62946282265E+02 -0.70262511355E+02  0.94824104735E+02  0.00000000000E+00 0. -1.
         21    1    1    2  505  501  0.39604474893E+02 -0.10255911870E+03  0.44638757436E+03  0.45972682519E+03  0.00000000000E+00 0.  1.
          2    1    1    2  501    0 -0.14935636277E+02 -0.49826596047E+02  0.97312805594E+03  0.97451730418E+03  0.00000000000E+00 0.  1.
<scales pt_clust_3="33.77104" pt_clust_4="33.77104" pt_clust_5="152.14630" pt_clust_6="52.01695"></scales>
<clustering>
<clus scale="   33.771">  3  4 -1 -1</clus>
<clus scale="   52.017">  1  6  2 -1</clus>
<clus scale="  152.146">  1  5  2 -1</clus>
<clus scale="  157.394">  2  3  1 -1</clus>
</clustering>
</event>
<event>
 6    0  0.1361744E+002  0.1469387E+03  0.7546771E-02  0.1204286E+00
         21   -1    0    0  504  502  0.00000000000E+00  0.00000000000E+00  0.52727171345E+02  0.52727171345E+02  0.00000000000E+00 0. -1.
          2   -1    0    0  502    0 -0.00000000000E+00 -0.00000000000E+00 -0.25059593792E+04  0.25059593792E+04  0.00000000000E+00 0. -1.
         21    1    1    2  503  501 -0.13885725854E+02 -0.57060519310E+02 -0.11572392785E+04  0.11587283823E+04  0.00000000000E+00 0. -1.
         21    1    1    2  504  505  0.26535734586E+02  0.29326405956E+02 -0.36975502801E+01  0.39722225194E+02  0.00000000000E+00 0.  1.
         21    1    1    2  505  503 -0.56935201477E+02  0.10315332880E+03 -0.74708496801E+02  0.13951195613E+03  0.00000000000E+00 0. -1.
          2    1    1    2  501    0  0.44285192745E+02 -0.75419215443E+02 -0.12175868823E+04  0.12207239869E+04  0.00000000000E+00 0. -1.
<scales pt_clust_3="48.44609" pt_clust_4="39.54976" pt_clust_5="134.43104" pt_clust_6="48.44609"></scales>
<clustering>
<clus scale="   39.550">  1  4  2 -1</clus>
<clus scale="   48.446">  3  6 -1 -1</clus>
<clus scale="  134.431">  1  5  2 -1</clus>
<clus scale="   39.550">  1  3  2 -1</clus>
</clustering>
</event>
<event>
 6    0  0.1361744E+002  0.1850954E+03  0.7546771E-02  0.1162961E+00
         21   -1    0    0  501  502  0.00000000000E+00  0.00000000000E+00  0.10346299972E+04  0.10346299972E+04  0.00000000000E+00 0. -1.
          2   -1    0    0  503    0 -0.00000000000E+00 -0.00000000000E+00 -0.43975686070E+03  0.43975686070E+03  0.00000000000E+00 0.  1.
         21    1    1    2  503  505 -0.24625097261E+02 -0.42507500679E+02 -0.14683349147E+02  0.51272641548E+02  0.00000000000E+00 0. -1.
         21    1    1    2  504  502  0.10690637359E+03  0.42398304483E+02  0.61186427777E+03  0.62257889729E+03  0.00000000000E+00 0. -1.
         21    1    1    2  505  504  0.45939245676E+02  0.54105673510E+02  0.38370573927E+03  0.39021523874E+03  0.00000000000E+00 0. -1.
          2    1    1    2  501    0 -0.12822052201E+03 -0.53996477313E+02 -0.38601353143E+03  0.41032008027E+03  0.00000000000E+00 0.  1.
<scales pt_clust_3="49.12518" pt_clust_4="34.40068" pt_clust_5="34.40068" pt_clust_6="179.84108"></scales>
<clustering>
<clus scale="   34.401">  4  5 -1 -1</clus>
<clus scale="   49.125">  2  3  1 -1</clus>
<clus scale="  179.841">  2  6  1 -1</clus>
<clus scale="  185.095">  1  3  2 -1</clus>
</clustering>
</event>
<event>
 6    0  0.1361744E+002  0.2066065E+03  0.7546771E-02  0.1144282E+00
         21   -1    0    0  505  502  0.00000000000E+00  0.00000000000E+00  0.18817058550E+03  0.18817058550E+03  0.00000000000E+00 0. -1.
         -2   -1    0    0    0  501 -0.00000000000E+00 -0.00000000000E+00 -0.17516531166E+04  0.17516531166E+04  0.00000000000E+00 0.  1.
         21    1    1    2  503  502 -0.40243813411E+02 -0.10728584565E+03  0.85827939129E+02  0.14316512260E+03  0.00000000000E+00 0. -1.
         21    1    1    2  504  503 -0.15209501238E+03 -0.13161460831E+02 -0.56725416038E+02  0.16286156596E+03  0.00000000000E+00 0. -1.
         21    1    1    2  505  501 -0.45092641128E+02  0.57952148301E+02 -0.11850429874E+03  0.13940970768E+03  0.00000000000E+00 0. -1.
         -2    1    1    2    0  504  0.23743146692E+03  0.62495158182E+02 -0.14740807554E+04  0.14943873058E+04  0.00000000000E+00 0.  1.
<scales pt_clust_3="113.91195" pt_clust_4="14000.00000" pt_clust_5="73.42886" pt_clust_6="206.60647"></scales>
<clustering>
<clus scale="   73.429">  2  5  1 -1</clus>
<clus scale="  113.912">  1  3  2 -1</clus>
<clus scale="  206.606">  2  6  1 -1</clus>
<clus scale="  113.912">  1  3  2 -1</clus>
</clustering>
</event>
<event>
 6    0  0.1361744E+002  0.3046237E+03  0.7546771E-02  0.1082952E+00
         21   -1    0    0  505  502  0.00000000000E+00  0.00000000000E+00  0.52270903881E+03  0.52270903881E+03  0.00000000000E+00 0. -1.
          2   -1    0    0  503    0 -0.00000000000E+00 -0.00000000000E+00 -0.79129847023E+03  0.79129847023E+03  0.00000000000E+00 0.  1.
         21    1    1    2  503  504 -0.25943029392E+03  0.23272549730E+03  0.77440130436E+02  0.35701849854E+03  0.00000000000E+00 0. -1.
         21    1    1    2  504  502  0.10965938509E+03  0.96019450599E+01  0.25966819107E+03  0.28203713859E+03  0.00000000000E+00 0. -1.
         21    1    1    2  505  501  0.13624803729E+02 -0.55444249202E+02 -0.62831897859E+02  0.84897275780E+02  0.00000000000E+00 0. -1.
          2    1    1    2  501    0  0.13614610509E+03 -0.18688319316E+03 -0.54286585507E+03  0.59005459614E+03  0.00000000000E+00 0.  1.
<scales pt_clust_3="291.99191" pt_clust_4="110.07896" pt_clust_5="43.13854" pt_clust_6="43.13854"></scales>
<clustering>
<clus scale="   43.139">  5  6 -1 -1</clus>
<clus scale="  110.079">  1  4  2 -1</clus>
<clus scale="  291.992">  1  3  2 -1</clus>
<clus scale="  110.079">  1  3  2 -1</clus>
</clustering>
</event>
<event>
 6    0  0.1361744E+002  0.1160971E+03  0.7546771E-02  0.1249678E+00
         21   -1    0    0  504  502  0.00000000000E+00  0.00000000000E+00  0.42941883495E+03  0.42941883495E+03  0.00000000000E+00 0.  1.
          1   -1    0    0  505    0 -0.00000000000E+00 -0.00000000000E+00 -0.34733063992E+03  0.34733063992E+03  0.00000000000E+00 0. -1.
         21    1    1    2  503  501 -0.63865850777E+01 -0.48053258539E+02 -0.99421414257E+02  0.11060977234E+03  0.00000000000E+00 0. -1.
         21    1    1    2  504  503 -0.47683804725E+01 -0.42901051218E+02  0.24505702506E+03  0.24882962681E+03  0.00000000000E+00 0.  1.
         21    1    1    2  505  502  0.46208249818E+02  0.14323738056E+03  0.13920414661E+03  0.20501205812E+03  0.00000000000E+00 0.  1.
          1    1    1    2  501    0 -0.35053284268E+02 -0.52283070802E+02 -0.20275156238E+03  0.21229801760E+03  0.00000000000E+00 0. -1.
<scales pt_clust_3="30.09778" pt_clust_4="43.16524" pt_clust_5="110.91545" pt_clust_6="30.09778"></scales>
<clustering>
<clus scale="   30.098">  3  6 -1 -1</clus>
<clus scale="   43.165">  1  4  2 -1</clus>
<clus scale="  110.915">  1  5  2 -1</clus>
<clus scale="   43.165">  1  3  2 -1</clus>
</clustering>
</event>
<event>
 6    0  0.1361744E+002  0.1645172E+03  0.7546771E-02  0.1183689E+00
         21   -1    0    0  504  502  0.00000000000E+00  0.00000000000E+00  0.11887552694E+04  0.11887552694E+04  0.00000000000E+00 0.  1.
         -2   -1    0    0    0  501 -0.00000000000E+00 -0.00000000000E+00 -0.70515718703E+03  0.70515718703E+03  0.00000000000E+00 0. -1.
         21    1    1    2  503  505  0.12413092581E+02 -0.80694325629E+02  0.48497219993E+03  0.49179639462E+03  0.00000000000E+00 0.  1.
         21    1    1    2  504  501  0.41668604478E+02  0.56163102459E+02 -0.33025157944E+02  0.77338397541E+02  0.00000000000E+00 0. -1.
         21    1    1    2  505  502 -0.35680623610E+02 -0.72941111138E+02  0.67195116303E+03  0.67683962509E+03  0.00000000000E+00 0.  1.
         -2    1    1    2    0  503 -0.18401073448E+02  0.97472334308E+02 -0.64030012269E+03  0.64793803915E+03  0.00000000000E+00 0. -1.
<scales pt_clust_3="55.46592" pt_clust_4="69.93259" pt_clust_5="55.46592" pt_clust_6="154.83108"></scales>
<clustering>
<clus scale="   55.466">  3  5 -1 -1</clus>
<clus scale="   69.933">  2  4  1 -1</clus>
<clus scale="  154.831">  2  6  1 -1</clus>
<clus scale="  164.517">  1  3  2 -1</clus>
</clustering>
</event>
<event>
 6    0  0.1361744E+002  0.1506483E+03  0.7546771E-02  0.1199679E+00
          2   -1    0    0  504    0 -0.00000000000E+00  0.00000000000E+00  0.16425346930E+04  0.16425346930E+04  0.00000000000E+00 0.  1.
         21   -1    0    0  503  502  0.00000000000E+00 -0.00000000000E+00 -0.12291124315E+03  0.12291124315E+03  0.00000000000E+00 0. -1.
         21    1    1    2  503  501 -0.29167121827E+02  0.43192513159E+02  0.23496918290E+02  0.57170091462E+02  0.00000000000E+00 0. -1.
         21    1    1    2  504  505 -0.12013938692E+03 -0.12221389805E+03  0.73684447067E+03  0.75651138995E+03  0.00000000000E+00 0. -1.
         21    1    1    2  505  502  0.15092002047E+02  0.11832201431E+03 -0.50837558495E+02  0.12966234977E+03  0.00000000000E+00 0. -1.
          2    1    1    2  501    0  0.13421450670E+03 -0.39300629420E+02  0.81011961939E+03  0.82210210497E+03  0.00000000000E+00 0.  1.
<scales pt_clust_3="52.11827" pt_clust_4="14000.00000" pt_clust_5="150.64828" pt_clust_6="137.59642"></scales>
<clustering>
<clus scale="   52.118">  2  3  1 -1</clus>
<clus scale="  137.596">  1  6  2 -1</clus>
<clus scale="  150.648">  2  5  1 -1</clus>
<clus scale="   52.118">  2  3  1 -1</clus>
</clustering>
</event>
<event>
 6    0  0.1361744E+002  0.7407263E+02  0.7546771E-02  0.1346767E+00
          1   -1    0    0  505    0 -0.00000000000E+00  0.00000000000E+00  0.21971300615E+04  0.21971300615E+04  0.00000000000E+00 0.  1.
         21   -1    0    0  503  502  0.00000000000E+00 -0.00000000000E+00 -0.17181186945E+03  0.17181186945E+03  0.00000000000E+00 0. -1.
         21    1    1    2  503  501  0.29762032187E+02  0.37834146252E+02 -0.26242896777E+02  0.54826004904E+02  0.00000000000E+00 0.  1.
         21    1    1    2  504  502 -0.47492947093E+01 -0.10753151130E+03 -0.10696268020E+03  0.15174517020E+03  0.00000000000E+00 0. -1.
         21    1    1    2  505  504  0.22217758965E+02  0.32384622828E+02  0.26537061571E+03  0.26826098540E+03  0.00000000000E+00 0.  1.
          1    1    1    2  501    0 -0.47230496443E+02  0.37312742221E+02  0.18931531533E+04  0.18941097704E+04  0.00000000000E+00 0.  1.
<scales pt_clust_3="48.42747" pt_clust_4="14000.00000" pt_clust_5="39.27331" pt_clust_6="74.07263"></scales>
<clustering>
<clus scale="   39.273">  1  5  2 -1</clus>
<clus scale="   48.427">  2  3  1 -1</clus>
<clus scale="   74.073">  1  6  2 -1</clus>
<clus scale="   48.427">  2  3  1 -1</clus>
</clustering>
</event>
<event>
 6    0  0.1361744E+002  0.2166292E+03  0.7546771E-02  0.1136421E+00
          2   -1    0    0  505    0 -0.00000000000E+00  0.00000000000E+00  0.36172256952E+03  0.36172256952E+03  0.00000000000E+00 0.  1.
         21   -1    0    0  503  502  0.00000000000E+00 -0.00000000000E+00 -0.16007560987E+04  0.16007560987E+04  0.00000000000E+00 0. -1.
         21    1    1    2  503  501  0.24206391244E+03  0.22399313172E+02 -0.13750461955E+04  0.13963698316E+04  0.00000000000E+00 0. -1.
         21    1    1    2  504  502 -0.28153559283E+02  0.30296876720E+02 -0.97425079332E+02  0.10584030292E+03  0.00000000000E+00 0. -1.
         21    1    1    2  505  504 -0.15874438475E+03  0.12625236779E+03  0.16296982467E+03  0.26018955362E+03  0.00000000000E+00 0.  1.
          2    1    1    2  501    0 -0.55165968406E+02 -0.17894855768E+03  0.70467920986E+02  0.20007898004E+03  0.00000000000E+00 0.  1.
<scales pt_clust_3="14000.00000" pt_clust_4="41.35848" pt_clust_5="216.62924" pt_clust_6="186.37223"></scales>
<clustering>
<clus scale="   41.358">  2  4  1 -1</clus>
<clus scale="  186.372">  1  6  2 -1</clus>
<clus scale="  216.629">  1  5  2 -1</clus>
<clus scale="   41.358">  2  3  1 -1</clus>
</clustering>
</event>
<event>
 6    0  0.1361744E+002  0.8434339E+02  0.7546771E-02  0.1317159E+00
         21   -1    0    0  501  502  0.00000000000E+00  0.00000000000E+00  0.54744837049E+03  0.54744837049E+03  0.00000000000E+00 0. -1.
          1   -1    0    0  505    0 -0.00000000000E+00 -0.00000000000E+00 -0.43968885337E+04  0.43968885337E+04  0.00000000000E+00 0.  1.
         21    1    1    2  503  504  0.43832569413E+02  0.10021676463E+03  0.33816779632E+03  0.35541827826E+03  0.00000000000E+00 0. -1.
         21    1    1    2  504  502  0.14689076360E+02 -0.39546832617E+02  0.19636617078E+03  0.20084669268E+03  0.00000000000E+00 0. -1.
         21    1    1    2  505  503 -0.49651796602E+02  0.95031439515E+01 -0.36594540286E+03  0.36942069315E+03  0.00000000000E+00 0. -1.
          1    1    1    2  501    0 -0.88698491701E+01 -0.70173075967E+02 -0.40180287275E+04  0.40186512401E+04  0.00000000000E+00 0.  1.
<scales pt_clust_3="14000.00000" pt_clust_4="42.18674" pt_clust_5="50.44447" pt_clust_6="84.34339"></scales>
<clustering>
<clus scale="   42.187">  1  4  2 -1</clus>
<clus scale="   50.444">  2  5  1 -1</clus>
<clus scale="   84.343">  2  6  1 -1</clus>
<clus scale="   42.187">  1  3  2 -1</clus>
</clustering>
</event>
<event>
 6    0  0.1361744E+002  0.1161927E+03  0.7546771E-02  0.1249513E+00
         21   -1    0    0  504  502  0.00000000000E+00  0.00000000000E+00  0.69726344887E+02  0.69726344887E+02  0.00000000000E+00 0.  1.
          2   -1    0    0  503    0 -0.00000000000E+00 -0.00000000000E+00 -0.14268362858E+04  0.14268362858E+04  0.00000000000E+00 0. -1.
         21    1    1    2  503  505  0.63426504297E+01 -0.54549245784E+02 -0.64372750315E+00  0.54920522714E+02  0.00000000000E+00 0.  1.
         21    1    1    2  504  501  0.43397590351E+02  0.36062585322E+00 -0.76267615013E+02  0.87750954405E+02  0.00000000000E+00 0. -1.
         21    1    1    2  505  502 -0.33873164937E+02 -0.54103435618E+02  0.50118396304E+01  0.64028834013E+02  0.00000000000E+00 0.  1.
          2    1    1    2  501    0 -0.15867075843E+02  0.10829205555E+03 -0.12852104380E+04  0.12898623195E+04  0.00000000000E+00 0. -1.
<scales pt_clust_3="36.71148" pt_clust_4="43.39909" pt_clust_5="36.71148" pt_clust_6="109.24376"></scales>
<clustering>
<clus scale="   36.711">  3  5 -1 -1</clus>
<clus scale="   43.399">  1  4  2 -1</clus>
<clus scale="  109.244">  2  6  1 -1</clus>
<clus scale="   43.399">  1  3  2 -1</clus>
</clustering>
</event>
<event>
 6    0  0.1361744E+002  0.2768344E+03  0.7546771E-02  0.1097431E+00
         21   -1    0    0  504  502  0.00000000000E+00  0.00000000000E+00  0.56696676005E+03  0.56696676005E+03  0.00000000000E+00 0.  1.
          2   -1    0    0  505    0 -0.00000000000E+00 -0.00000000000E+00 -0.41981344221E+04  0.41981344221E+04  0.00000000000E+00 0. -1.
         21    1    1    2  503  502  0.47334105018E+02  0.72045823469E+02 -0.45023326803E+02  0.97253370809E+02  0.00000000000E+00 0.  1.
         21    1    1    2  504  501 -0.56213070875E+02  0.20989831254E+03  0.50838176821E+03  0.55287361412E+03  0.00000000000E+00 0.  1.
         21    1    1    2  505  503  0.11172369618E+03 -0.11599791131E+03 -0.88632680857E+03  0.90084011418E+03  0.00000000000E+00 0.  1.
          2    1    1    2  501    0 -0.10284473032E+03 -0.16594622470E+03 -0.32081992949E+04  0.32141340830E+04  0.00000000000E+00 0. -1.
<scales pt_clust_3="86.20393" pt_clust_4="14000.00000" pt_clust_5="160.80015" pt_clust_6="276.83444"></scales>
<clustering>
<clus scale="   86.204">  1  3  2 -1</clus>
<clus scale="  160.800">  2  5  1 -1</clus>
<clus scale="  276.834">  2  6  1 -1</clus>
<clus scale="   86.204">  1  3  2 -1</clus>
</clustering>
</event>
<event>
 6    0  0.1361744E+002  0.1094365E+03  0.7546771E-02  0.1261617E+00
         21   -1    0    0  503  502  0.00000000000E+00  0.00000000000E+00  0.18400833486E+04  0.18400833486E+04  0.00000000000E+00 0. -1.
          1   -1    0    0  505    0 -0.00000000000E+00 -0.00000000000E+00 -0.40416613179E+03  0.40416613179E+03  0.00000000000E+00 0. -1.
         21    1    1    2  503  504 -0.59763622919E+02 -0.23875454194E+02  0.87558691428E+03  0.87794884384E+03  0.00000000000E+00 0. -1.
         21    1    1    2  504  501 -0.46454458017E+02  0.56016642823E+02  0.93665106837E+03  0.93947384467E+03  0.00000000000E+00 0.  1.
         21    1    1    2  505  502  0.68463357414E+01 -0.35496600278E+02  0.14604941958E+01  0.36180298336E+02  0.00000000000E+00 0.  1.
          1    1    1    2  501    0  0.99371745195E+02  0.33554116492E+01 -0.37778126001E+03  0.39064649357E+03  0.00000000000E+00 0. -1.
<scales pt_clust_3="64.37714" pt_clust_4="14000.00000" pt_clust_5="36.15081" pt_clust_6="109.43654"></scales>
<clustering>
<clus scale="   36.151">  2  5  1 -1</clus>
<clus scale="   64.377">  1  3  2 -1</clus>
<clus scale="  109.437">  2  6  1 -1</clus>
<clus scale="   64.377">  1  3  2 -1</clus>
</clustering>
</event>
<event>
 6    0  0.1361744E+002  0.7384225E+02  0.7546771E-02  0.1347494E+00
         21   -1    0    0  504  502  0.00000000000E+00  0.00000000000E+00  0.54560718832E+03  0.54560718832E+03  0.00000000000E+00 0.  1.
          4   -1    0    0  505    0 -0.00000000000E+00 -0.00000000000E+00 -0.14389064616E+04  0.14389064616E+04  0.00000000000E+00 0.  1.
         21    1    1    2  503  502 -0.44649660155E+02  0.33478117533E+02  0.43554646022E+02  0.70791127238E+02  0.00000000000E+00 0. -1.
         21    1    1    2  504  501 -0.27005591497E+02 -0.64447642993E+02  0.47178269579E+03  0.47692946303E+03  0.00000000000E+00 0.  1.
         21    1    1    2  505  503  0.70366022880E+02 -0.39641939612E+02 -0.11119451553E+03  0.13743027627E+03  0.00000000000E+00 0. -1.
          4    1    1    2  501    0  0.12892287717E+01  0.70611465072E+02 -0.12974420995E+04  0.12993627833E+04  0.00000000000E+00 0.  1.
<scales pt_clust_3="55.80660" pt_clust_4="14000.00000" pt_clust_5="73.84225" pt_clust_6="70.68750"></scales>
<clustering>
<clus scale="   55.807">  1  3  2 -1</clus>
<clus scale="   70.687">  2  6  1 -1</clus>
<clus scale="   73.842">  2  5  1 -1</clus>
<clus scale="   55.807">  1  3  2 -1</clus>
</clustering>
</event>
<event>
 6    0  0.1361744E+002  0.9622468E+02  0.7546771E-02  0.1288441E+00
         21   -1    0    0  505  502  0.00000000000E+00  0.00000000000E+00  0.88247854178E+02  0.88247854178E+02  0.00000000000E+00 0.  1.
          1   -1    0    0  503    0 -0.00000000000E+00 -0.00000000000E+00 -0.91219552224E+03  0.91219552224E+03  0.00000000000E+00 0. -1.
         21    1    1    2  503  504 -0.23804694957E+02  0.62279734476E+02 -0.15167479894E+03  0.16568244766E+03  0.00000000000E+00 0. -1.
         21    1    1    2  504  502  0.14205709360E+02  0.33212315765E+02 -0.13615865510E+02  0.38603780780E+02  0.00000000000E+00 0.  1.
         21    1    1    2  505  501 -0.61423202313E+02 -0.99504560084E+00  0.49071340310E+02  0.78624400398E+02  0.00000000000E+00 0.  1.
          1    1    1    2  501    0  0.71022187910E+02 -0.94497004639E+02 -0.70772834392E+03  0.71753274758E+03  0.00000000000E+00 0. -1.
<scales pt_clust_3="96.22468" pt_clust_4="36.12285" pt_clust_5="56.33984" pt_clust_6="14000.00000"></scales>
<clustering>
<clus scale="   36.123">  1  4  2 -1</clus>
<clus scale="   56.340">  1  5  2 -1</clus>
<clus scale="   96.225">  1  3  2 -1</clus>
<clus scale="   36.123">  1  3  2 -1</clus>
</clustering>
</event>
<event>
 6    0  0.1361744E+002  0.8115336E+02  0.7546771E-02  0.1325810E+00
         21   -1    0    0  504  502  0.00000000000E+00  0.00000000000E+00  0.75122534750E+02  0.75122534750E+02  0.00000000000E+00 0. -1.
          2   -1    0    0  505    0 -0.00000000000E+00 -0.00000000000E+00 -0.18880628475E+04  0.18880628475E+04  0.00000000000E+00 0. -1.
         21    1    1    2  503  502  0.37400206047E+02  0.52707738358E+02  0.46262073438E+02  0.79479937934E+02  0.00000000000E+00 0. -1.
         21    1    1    2  504  501 -0.15536521757E+02 -0.30201471528E+02 -0.25313960630E+02  0.42359284620E+02  0.00000000000E+00 0. -1.
         21    1    1    2  505  503  0.46418308861E+02 -0.68646352569E+02 -0.97295749028E+03  0.97648003513E+03  0.00000000000E+00 0. -1.
          2    1    1    2  501    0 -0.68281993151E+02  0.46140085738E+02 -0.86093093526E+03  0.86486612454E+03  0.00000000000E+00 0. -1.
<scales pt_clust_3="33.20121" pt_clust_4="33.96340" pt_clust_5="14000.00000" pt_clust_6="81.15336"></scales>
<clustering>
<clus scale="   33.963">  1  4  2 -1</clus>
<clus scale="   33.201">  1  3  2 -1</clus>
<clus scale="   81.153">  1  6  2 -1</clus>
<clus scale="   33.963">  1  3  2 -1</clus>
</clustering>
</event>
<event>
 6    0  0.1361744E+002  0.1106748E+03  0.7546771E-02  0.1259325E+00
          1   -1    0    0  505    0 -0.00000000000E+00  0.00000000000E+00  0.27964812888E+04  0.27964812888E+04  0.00000000000E+00 0.  1.
         21   -1    0    0  504  502  0.00000000000E+00 -0.00000000000E+00 -0.59043701406E+02  0.59043701406E+02  0.00000000000E+00 0. -1.
         21    1    1    2  503  502  0.86549546108E+02 -0.31511816390E+01 -0.44492397001E+01  0.86721102455E+02  0.00000000000E+00 0. -1.
         21    1    1    2  504  501 -0.49852715434E+02  0.49529710480E+02  0.21069948681E+03  0.22210979086E+03  0.00000000000E+00 0.  1.
         21    1    1    2  505  503  0.81353063757E+02 -0.42374797073E+02  0.33495578129E+03  0.34728852533E+03  0.00000000000E+00 0. -1.
          1    1    1    2  501    0 -0.11804989443E+03 -0.40037317681E+01  0.21962315590E+04  0.21994055715E+04  0.00000000000E+00 0.  1.
<scales pt_clust_3="58.87283" pt_clust_4="70.27436" pt_clust_5="14000.00000" pt_clust_6="110.67479"></scales>
<clustering>
<clus scale="   70.274">  2  4  1 -1</clus>
<clus scale="   58.873">  2  3  1 -1</clus>
<clus scale="  110.675">  1  6  2 -1</clus>
<clus scale="   70.274">  2  3  1 -1</clus>
</clustering>
</event>
<event>
 6    0  0.1361744E+002  0.8158928E+02  0.7546771E-02  0.1324601E+00
         21   -1    0    0  505  502  0.00000000000E+00  0.00000000000E+00  0.20970698213E+04  0.20970698213E+04  0.00000000000E+00 0.  1.
         -4   -1    0    0    0  501 -0.00000000000E+00 -0.00000000000E+00 -0.66099537457E+02  0.66099537457E+02  0.00000000000E+00 0.  1.
         21    1    1    2  503  501 -0.38626769274E+02  0.46175558139E+02 -0.49929272943E+01  0.60408102080E+02  0.00000000000E+00 0.  1.
         21    1    1    2  504  503 -0.42654810887E+02  0.16570919650E+02  0.56336204549E+03  0.56521750023E+03  0.00000000000E+00 0.  1.
         21    1    1    2  505  504 -0.34005019849E+02  0.21845763711E+02  0.13458619495E+04  0.13464687022E+04  0.00000000000E+00 0.  1.
         -4    1    1    2    0  502  0.11528660001E+03 -0.84592241499E+02  0.12673921615E+03  0.19107505430E+03  0.00000000000E+00 0.  1.
<scales pt_clust_3="61.62638" pt_clust_4="14000.00000" pt_clust_5="40.41756" pt_clust_6="81.58928"></scales>
<clustering>
<clus scale="   40.418">  1  5  2 -1</clus>
<clus scale="   61.626">  2  3  1 -1</clus>
<clus scale="   81.589">  2  6  1 -1</clus>
<clus scale="   40.418">  1  3  2 -1</clus>
</clustering>
</event>
<event>
 6    0  0.1361744E+002  0.1430468E+03  0.7546771E-02  0.1209287E+00
         21   -1    0    0  501  502  0.00000000000E+00  0.00000000000E+00  0.72710695937E+02  0.72710695937E+02  0.00000000000E+00 0.  1.
          2   -1    0    0  503    0 -0.00000000000E+00 -0.00000000000E+00 -0.11455820872E+04  0.11455820872E+04  0.00000000000E+00 0.  1.
         21    1    1    2  503  505  0.17633633238E+02 -0.68705694657E+02 -0.11250549953E+03  0.13299964257E+03  0.00000000000E+00 0.  1.
         21    1    1    2  504  502 -0.12674186751E+02 -0.32578426567E+02  0.35621062577E+02  0.49908405970E+02  0.00000000000E+00 0.  1.
         21    1    1    2  505  504  0.15524992333E+02 -0.33356826823E+02 -0.74865653876E+01  0.37546663553E+02  0.00000000000E+00 0.  1.
          2    1    1    2  501    0 -0.20484438820E+02  0.13464094805E+03 -0.98850038896E+03  0.99783807108E+03  0.00000000000E+00 0.  1.
<scales pt_clust_3="44.50116" pt_clust_4="34.95696" pt_clust_5="44.50116" pt_clust_6="131.49411"></scales>
<clustering>
<clus scale="   34.957">  1  4  2 -1</clus>
<clus scale="   44.501">  3  5 -1 -1</clus>
<clus scale="  131.494">  2  6  1 -1</clus>
<clus scale="   34.957">  1  3  2 -1</clus>
</clustering>
</event>
<event>
 6    0  0.1361744E+002  0.9784116E+02  0.7546771E-02  0.1284902E+00
         21   -1    0    0  504  502  0.00000000000E+00  0.00000000000E+00  0.40712861050E+03  0.40712861050E+03  0.00000000000E+00 0.  1.
         -2   -1    0    0    0  501 -0.00000000000E+00 -0.00000000000E+00 -0.60530578357E+03  0.60530578357E+03  0.00000000000E+00 0. -1.
         21    1    1    2  503  502 -0.62080205226E+02 -0.28919201020E+02  0.13314520179E+03  0.14972613943E+03  0.00000000000E+00 0. -1.
         21    1    1    2  504  501  0.46605692506E+02  0.12146486678E+02 -0.10813213246E+03  0.11837307880E+03  0.00000000000E+00 0.  1.
         21    1    1    2  505  503  0.83380598562E+02  0.12115761373E+03  0.23074286005E+03  0.27363069828E+03  0.00000000000E+00 0.  1.
         -2    1    1    2    0  505 -0.67906085842E+02 -0.10438489938E+03 -0.45393310244E+03  0.47070447757E+03  0.00000000000E+00 0. -1.
<scales pt_clust_3="67.68750" pt_clust_4="48.16251" pt_clust_5="97.84116" pt_clust_6="14000.00000"></scales>
<clustering>
<clus scale="   48.163">  2  4  1 -1</clus>
<clus scale="   67.687">  1  3  2 -1</clus>
<clus scale="   97.841">  1  5  2 -1</clus>
<clus scale="   67.687">  1  3  2 -1</clus>
</clustering>
</event>
<event>
 6    0  0.1361744E+002  0.1390046E+03  0.7546771E-02  0.1214675E+00
          1   -1    0    0  503    0 -0.00000000000E+00  0.00000000000E+00  0.60164031410E+03  0.60164031410E+03  0.00000000000E+00 0. -1.
         21   -1    0    0  504  502  0.00000000000E+00 -0.00000000000E+00 -0.15583551229E+03  0.15583551229E+03  0.00000000000E+00 0. -1.
         21    1    1    2  503  502  0.37741203457E+02 -0.99219002621E+01  0.10478970663E+03  0.11182005705E+03  0.00000000000E+00 0. -1.
         21    1    1    2  504  505 -0.50561572307E+01  0.49075222449E+02  0.33757576457E+01  0.49450358179E+02  0.00000000000E+00 0. -1.
         21    1    1    2  505  501  0.38023180251E+01  0.96426610480E+02 -0.98577551726E+02  0.13794956519E+03  0.00000000000E+00 0. -1.
          1    1    1    2  501    0 -0.36487364252E+02 -0.13557993267E+03  0.43621688926E+03  0.45825584597E+03  0.00000000000E+00 0. -1.
<scales pt_clust_3="39.02362" pt_clust_4="48.63882" pt_clust_5="14000.00000" pt_clust_6="139.00464"></scales>
<clustering>
<clus scale="   39.024">  1  3  2 -1</clus>
<clus scale="   48.639">  2  4  1 -1</clus>
<clus scale="  139.005">  1  6  2 -1</clus>
<clus scale="   48.639">  2  3  1 -1</clus>
</clustering>
</event>
<event>
 6    0  0.1361744E+002  0.1571610E+03  0.7546771E-02  0.1191940E+00
         21   -1    0    0  504  502  0.00000000000E+00  0.00000000000E+00  0.68659693754E+02  0.68659693754E+02  0.00000000000E+00 0. -1.
          2   -1    0    0  503    0 -0.00000000000E+00 -0.00000000000E+00 -0.12914789254E+04  0.12914789254E+04  0.00000000000E+00 0.  1.
         21    1    1    2  503  505 -0.33627292232E+02 -0.25862146397E+02 -0.32320249664E+02  0.53331453547E+02  0.00000000000E+00 0.  1.
         21    1    1    2  504  501  0.57755708629E+02  0.50826058866E+02 -0.59308349747E+03  0.59805271098E+03  0.00000000000E+00 0.  1.
         21    1    1    2  505  502 -0.47967686908E+02 -0.95905822998E+02 -0.56903379029E+00  0.10723408820E+03  0.00000000000E+00 0. -1.
          2    1    1    2  501    0  0.23839270511E+02  0.70941910530E+02 -0.59684645075E+03  0.60152036645E+03  0.00000000000E+00 0.  1.
<scales pt_clust_3="35.66021" pt_clust_4="38.91927" pt_clust_5="35.66021" pt_clust_6="151.79686"></scales>
<clustering>
<clus scale="   35.660">  3  5 -1 -1</clus>
<clus scale="   38.919">  4  6 -1 -1</clus>
<clus scale="  151.797">  2  4  1 -1</clus>
<clus scale="  157.161">  1  3  2 -1</clus>
</clustering>
</event>
<event>
 6    0  0.1361744E+002  0.1798997E+03  0.7546771E-02  0.1167900E+00
         -4   -1    0    0    0  501 -0.00000000000E+00  0.00000000000E+00  0.43112484903E+03  0.43112484903E+03  0.00000000000E+00 0. -1.
         21   -1    0    0  505  502  0.00000000000E+00 -0.00000000000E+00 -0.21158134633E+03  0.21158134633E+03  0.00000000000E+00 0.  1.
         21    1    1    2  503  504 -0.50872993830E+02 -0.43094337914E+02 -0.19077612811E+02  0.69347954347E+02  0.00000000000E+00 0.  1.
         21    1    1    2  504  502 -0.20452970837E+02 -0.74843220171E+02 -0.49301474178E+02  0.91926421544E+02  0.00000000000E+00 0.  1.
         21    1    1    2  505  501  0.18683068215E+03 -0.38697976617E+02  0.15392525510E+03  0.24514530659E+03  0.00000000000E+00 0.  1.
         -4    1    1    2    0  503 -0.11550471748E+03  0.15663553470E+03  0.13399733459E+03  0.23628651288E+03  0.00000000000E+00 0. -1.
<scales pt_clust_3="44.81379" pt_clust_4="146.06069" pt_clust_5="179.89965" pt_clust_6="14000.00000"></scales>
<clustering>
<clus scale="   44.814">  3  4 -1 -1</clus>
<clus scale="  146.061">  2  3  1 -1</clus>
<clus scale="  179.900">  1  5  2 -1</clus>
<clus scale="  146.061">  2  3  1 -1</clus>
</clustering>
</event>
<event>
 6    0  0.1361744E+002  0.9449890E+02  0.7546771E-02  0.1292309E+00
         21   -1    0    0  503  502  0.00000000000E+00  0.00000000000E+00  0.37511605188E+03  0.37511605188E+03  0.00000000000E+00 0. -1.
          2   -1    0    0  505    0 -0.00000000000E+00 -0.00000000000E+00 -0.10119010004E+04  0.10119010004E+04  0.00000000000E+00 0.  1.
         21    1    1    2  503  504  0.73688566772E+02  0.17984025735E+02  0.23184000187E+03  0.24393281149E+03  0.00000000000E+00 0. -1.
         21    1    1    2  504  501 -0.37908543813E+02 -0.92262141447E+02 -0.51620500734E+03  0.52575371615E+03  0.00000000000E+00 0.  1.
         21    1    1    2  505  502 -0.62854918590E+01  0.49375189979E+02  0.12697598535E+03  0.13638298152E+03  0.00000000000E+00 0. -1.
          2    1    1    2  501    0 -0.29494531101E+02  0.24902925733E+02 -0.47939592843E+03  0.48094754315E+03  0.00000000000E+00 0.  1.
<scales pt_clust_3="94.49890" pt_clust_4="14000.00000" pt_clust_5="50.02566" pt_clust_6="38.60159"></scales>
<clustering>
<clus scale="   38.602">  2  6  1 -1</clus>
<clus scale="   50.026">  1  5  2 -1</clus>
<clus scale="   94.499">  1  3  2 -1</clus>
<clus scale="   50.026">  1  3  2 -1</clus>
</clustering>
</event>
<event>
 6    0  0.1361744E+002  0.1146231E+03  0.7546771E-02  0.1252240E+00
          2   -1    0    0  503    0 -0.00000000000E+00  0.00000000000E+00  0.16223985706E+04  0.16223985706E+04  0.00000000000E+00 0.  1.
         21   -1    0    0  501  502  0.00000000000E+00 -0.00000000000E+00 -0.81289403926E+02  0.81289403926E+02  0.00000000000E+00 0.  1.
         21    1    1    2  503  505  0.41025474612E+02 -0.20268527876E+02  0.18831822772E+03  0.19379798162E+03  0.00000000000E+00 0.  1.
         21    1    1    2  504  502  0.50259591261E+02  0.36943359646E+02 -0.17179178525E+01  0.62400236998E+02  0.00000000000E+00 0.  1.
         21    1    1    2  505  504  0.23895825200E+02  0.40757177243E+02 -0.30680827058E+02  0.56333569989E+02  0.00000000000E+00 0.  1.
          2    1    1    2  501    0 -0.11518089107E+03 -0.57432009012E+02  0.13851896839E+04  0.13911561859E+04  0.00000000000E+00 0.  1.
<scales pt_clust_3="45.75918" pt_clust_4="33.83720" pt_clust_5="33.83720" pt_clust_6="107.82770"></scales>
<clustering>
<clus scale="   33.837">  4  5 -1 -1</clus>
<clus scale="   45.759">  1  3  2 -1</clus>
<clus scale="  107.828">  1  6  2 -1</clus>
<clus scale="  114.623">  2  3  1 -1</clus>
</clustering>
</event>
<event>
 6    0  0.1361744E+002  0.1313050E+03  0.7546771E-02  0.1225532E+00
         21   -1    0    0  503  502  0.00000000000E+00  0.00000000000E+00  0.21125914271E+02  0.21125914271E+02  0.00000000000E+00 0.  1.
          1   -1    0    0  504    0 -0.00000000000E+00 -0.00000000000E+00 -0.31212472926E+04  0.31212472926E+04  0.00000000000E+00 0.  1.
         21    1    1    2  503  501 -0.98236712300E+02  0.56468159331E+02 -0.17219579434E+03  0.20613223001E+03  0.00000000000E+00 0.  1.
         21    1    1    2  504  505  0.43689053095E+02 -0.91148556751E+00 -0.38605463061E+03  0.38851993769E+03  0.00000000000E+00 0.  1.
         21    1    1    2  505  502 -0.13514821862E+02  0.27036104771E+02 -0.12963579298E+03  0.13311288515E+03  0.00000000000E+00 0. -1.
          1    1    1    2  501    0  0.68062481067E+02 -0.82592778534E+02 -0.24122351604E+04  0.24146081540E+04  0.00000000000E+00 0.  1.
<scales pt_clust_3="131.30496" pt_clust_4="42.83739" pt_clust_5="30.22584" pt_clust_6="14000.00000"></scales>
<clustering>
<clus scale="   30.226">  1  5  2 -1</clus>
<clus scale="   42.837">  2  4  1 -1</clus>
<clus scale="  131.305">  1  3  2 -1</clus>
<clus scale="   30.226">  1  3  2 -1</clus>
</clustering>
</event>
<event>
 6    0  0.1361744E+002  0.1461366E+03  0.7546771E-02  0.1205302E+00
         21   -1    0    0  503  502  0.00000000000E+00  0.00000000000E+00  0.11657004427E+03  0.11657004427E+03  0.00000000000E+00 0. -1.
          2   -1    0    0  505    0 -0.00000000000E+00 -0.00000000000E+00 -0.11520306920E+04  0.11520306920E+04  0.00000000000E+00 0.  1.
         21    1    1    2  503  501 -0.17039047080E+03 -0.49615108272E+02 -0.84711590873E+02  0.19664848114E+03  0.00000000000E+00 0.  1.
         21    1    1    2  504  502  0.86159573927E+02 -0.92342763750E+02 -0.26831693500E+02  0.12911466986E+03  0.00000000000E+00 0. -1.
         21    1    1    2  505  504  0.56684035780E+02  0.35819787898E+02 -0.20717946523E+03  0.21776011557E+03  0.00000000000E+00 0. -1.
          2    1    1    2  501    0  0.27546861090E+02  0.10613808412E+03 -0.71673789808E+03  0.72507746965E+03  0.00000000000E+00 0.  1.
<scales pt_clust_3="146.13662" pt_clust_4="127.44895" pt_clust_5="67.05324" pt_clust_6="14000.00000"></scales>
<clustering>
<clus scale="   67.053">  2  5  1 -1</clus>
<clus scale="  127.449">  1  4  2 -1</clus>
<clus scale="  146.137">  1  3  2 -1</clus>
<clus scale="  127.449">  1  3  2 -1</clus>
</clustering>
</event>
<event>
 6    0  0.1385082E+002  0.1330436E+03  0.7546771E-02  0.1223008E+00
         21   -1    0    0  504  502  0.00000000000E+00  0.00000000000E+00  0.42890643825E+03  0.42890643825E+03  0.00000000000E+00 0. -1.
          1   -1    0    0  505    0 -0.00000000000E+00 -0.00000000000E+00 -0.14612833761E+04  0.14612833761E+04  0.00000000000E+00 0. -1.
         21    1    1    2  503  502  0.55314942980E+02 -0.12232003557E+03  0.39978640458E+03  0.42172396577E+03  0.00000000000E+00 0. -1.
         21    1    1    2  504  501 -0.21174896732E+02  0.70906715329E+02 -0.54223388214E+03  0.54726019540E+03  0.00000000000E+00 0. -1.
         21    1    1    2  505  503 -0.51433500908E+02  0.17453104633E+02 -0.33259393847E+02  0.63688328256E+02  0.00000000000E+00 0. -1.
          1    1    1    2  501    0  0.17293454660E+02  0.33960215610E+02 -0.85667006645E+03  0.85751732494E+03  0.00000000000E+00 0. -1.
<scales pt_clust_3="14000.00000" pt_clust_4="133.04363" pt_clust_5="53.96061" pt_clust_6="38.10984"></scales>
<clustering>
<clus scale="   38.110">  2  6  1 -1</clus>
<clus scale="   53.961">  2  5  1 -1</clus>
<clus scale="  133.044">  2  4  1 -1</clus>
<clus scale="  133.044">  1  3  2 -1</clus>
</clustering>
</event>
<event>
 6    0  0.1361744E+002  0.7513353E+02  0.7546771E-02  0.1343458E+00
         21   -1    0    0  505  502  0.00000000000E+00  0.00000000000E+00  0.72755338293E+03  0.72755338293E+03  0.00000000000E+00 0.  1.
         -4   -1    0    0    0  501 -0.00000000000E+00 -0.00000000000E+00 -0.89109027737E+03  0.89109027737E+03  0.00000000000E+00 0. -1.
         21    1    1    2  503  502 -0.31926611235E+02  0.28829865789E+02  0.38588886124E+03  0.38827913013E+03  0.00000000000E+00 0.  1.
         21    1    1    2  504  501 -0.68903421373E+02  0.23482611216E+01 -0.62584610086E+03  0.62963206539E+03  0.00000000000E+00 0. -1.
         21    1    1    2  505  504 -0.23683998096E+02 -0.42646868893E+02  0.32172214508E+03  0.32539948652E+03  0.00000000000E+00 0.  1.
         -4    1    1    2    0  503  0.12451403070E+03  0.11468741982E+02 -0.24530179990E+03  0.27533297826E+03  0.00000000000E+00 0. -1.
<scales pt_clust_3="43.01709" pt_clust_4="75.13353" pt_clust_5="56.13583" pt_clust_6="14000.00000"></scales>
<clustering>
<clus scale="   43.017">  1  3  2 -1</clus>
<clus scale="   56.136">  1  5  2 -1</clus>
<clus scale="   75.134">  2  4  1 -1</clus>
<clus scale="   43.017">  1  3  2 -1</clus>
</clustering>
</event>
<event>
 6    0  0.1361744E+002  0.1091702E+03  0.7546771E-02  0.1262114E+00
         21   -1    0    0  504  502  0.00000000000E+00  0.00000000000E+00  0.12203998480E+02  0.12203998480E+02  0.00000000000E+00 0.  1.
          2   -1    0    0  503    0 -0.00000000000E+00 -0.00000000000E+00 -0.22834136721E+04  0.22834136721E+04  0.00000000000E+00 0.  1.
         21    1    1    2  503  502  0.19773903088E+02  0.77201360660E+02 -0.68038464895E+03  0.68503600479E+03  0.00000000000E+00 0.  1.
         21    1    1    2  504  505  0.50171669127E+02  0.23734862726E+02 -0.10416901726E+03  0.11803272533E+03  0.00000000000E+00 0.  1.
         21    1    1    2  505  501 -0.10646091453E+02 -0.35128758429E+02 -0.24469968121E+03  0.24743747274E+03  0.00000000000E+00 0. -1.
          2    1    1    2  501    0 -0.59299480763E+02 -0.65807464956E+02 -0.12419563262E+04  0.12451114678E+04  0.00000000000E+00 0.  1.
<scales pt_clust_3="97.17192" pt_clust_4="55.50261" pt_clust_5="32.02938" pt_clust_6="32.02938"></scales>
<clustering>
<clus scale="   32.029">  5  6 -1 -1</clus>
<clus scale="   55.503">  1  4  2 -1</clus>
<clus scale="   97.172">  2  3  1 -1</clus>
<clus scale="   55.503">  1  3  2 -1</clus>
</clustering>
</event>
<event>
 6    0  0.1361744E+002  0.1226242E+03  0.7546771E-02  0.1238830E+00
         21   -1    0    0  503  502  0.00000000000E+00  0.00000000000E+00  0.12528893378E+03  0.12528893378E+03  0.00000000000E+00 0. -1.
         -1   -1    0    0    0  501 -0.00000000000E+00 -0.00000000000E+00 -0.12487422010E+04  0.12487422010E+04  0.00000000000E+00 0. -1.
         21    1    1    2  503  505 -0.52009079288E+02 -0.56959051991E+02  0.98094483773E+02  0.12478704131E+03  0.00000000000E+00 0. -1.
         21    1    1    2  504  502 -0.17516241998E+02 -0.49778037998E+02 -0.65035897272E+02  0.83751655116E+02  0.00000000000E+00 0. -1.
         21    1    1    2  505  501  0.41980496738E+01  0.32114929158E+02 -0.12160338717E+03  0.12584266393E+03  0.00000000000E+00 0.  1.
         -1    1    1    2    0  504  0.65327271612E+02  0.74622160832E+02 -0.10349084666E+04  0.10396497744E+04  0.00000000000E+00 0. -1.
<scales pt_clust_3="14000.00000" pt_clust_4="50.67653" pt_clust_5="32.38815" pt_clust_6="122.62423"></scales>
<clustering>
<clus scale="   32.388">  2  5  1 -1</clus>
<clus scale="   50.677">  1  4  2 -1</clus>
<clus scale="  122.624">  2  6  1 -1</clus>
<clus scale="   50.677">  1  3  2 -1</clus>
</clustering>
</event>
<event>
 6    0  0.1361744E+002  0.1444738E+03  0.7546771E-02  0.1207433E+00
          2   -1    0    0  503    0 -0.00000000000E+00  0.00000000000E+00  0.16773082522E+04  0.16773082522E+04  0.00000000000E+00 0.  1.
         21   -1    0    0  504  502  0.00000000000E+00 -0.00000000000E+00 -0.33144288883E+02  0.33144288883E+02  0.00000000000E+00 0. -1.
         21    1    1    2  503  502 -0.12112571220E+02  0.13374165244E+03  0.15296482888E+03  0.20354798661E+03  0.00000000000E+00 0. -1.
         21    1    1    2  504  505 -0.30709606167E+02 -0.10123793964E+02  0.57692395982E+02  0.66136099593E+02  0.00000000000E+00 0.  1.
         21    1    1    2  505  501 -0.11344215021E+02 -0.44948945247E+02  0.34933045219E+03  0.35239305288E+03  0.00000000000E+00 0.  1.
          2    1    1    2  501    0  0.54166392408E+02 -0.78668913228E+02  0.10841762863E+04  0.10883754020E+04  0.00000000000E+00 0.  1.
<scales pt_clust_3="130.82672" pt_clust_4="32.33529" pt_clust_5="43.27684" pt_clust_6="43.27684"></scales>
<clustering>
<clus scale="   32.335">  2  4  1 -1</clus>
<clus scale="   43.277">  5  6 -1 -1</clus>
<clus scale="  130.827">  2  3  1 -1</clus>
<clus scale="   32.335">  2  3  1 -1</clus>
</clustering>
</event>
<event>
 6    0  0.1361744E+002  0.1160415E+03  0.7546771E-02  0.1249774E+00
         -1   -1    0    0    0  501 -0.00000000000E+00  0.00000000000E+00  0.13537744041E+04  0.13537744041E+04  0.00000000000E+00 0. -1.
         21   -1    0    0  503  502  0.00000000000E+00 -0.00000000000E+00 -0.79722307353E+03  0.79722307353E+03  0.00000000000E+00 0. -1.
         21    1    1    2  503  505 -0.30340291431E+02  0.75040110381E+02 -0.70774048893E+03  0.71235395073E+03  0.00000000000E+00 0. -1.
         21    1    1    2  504  502 -0.94015671418E+01  0.37508972024E+02 -0.74060385859E+02  0.83547909612E+02  0.00000000000E+00 0.  1.
         21    1    1    2  505  501 -0.79795814395E+01 -0.72814622767E+02  0.17019335880E+03  0.18528740483E+03  0.00000000000E+00 0. -1.
         -1    1    1    2    0  504  0.47721440013E+02 -0.39734459638E+02  0.11681588466E+04  0.11698082124E+04  0.00000000000E+00 0. -1.
<scales pt_clust_3="14000.00000" pt_clust_4="38.66927" pt_clust_5="116.04152" pt_clust_6="62.06217"></scales>
<clustering>
<clus scale="   38.669">  2  4  1 -1</clus>
<clus scale="   62.062">  1  6  2 -1</clus>
<clus scale="  116.042">  1  5  2 -1</clus>
<clus scale="   38.669">  2  3  1 -1</clus>
</clustering>
</event>
<event>
 6    0  0.3786584E+002  0.7817011E+02  0.7546771E-02  0.1334326E+00
         21   -1    0    0  503  502  0.00000000000E+00  0.00000000000E+00  0.62226918066E+03  0.62226918066E+03  0.00000000000E+00 0. -1.
          1   -1    0    0  504    0 -0.00000000000E+00 -0.00000000000E+00 -0.10130955182E+04  0.10130955182E+04  0.00000000000E+00 0. -1.
         21    1    1    2  503  501 -0.40506240968E+02  0.23259881039E+01  0.16061471564E+02  0.43636414229E+02  0.00000000000E+00 0.  1.
         21    1    1    2  504  505  0.44155544621E+01 -0.37011056785E+02 -0.23193087483E+02  0.43900281918E+02  0.00000000000E+00 0.  1.
         21    1    1    2  505  502  0.10808815908E+03 -0.39222850667E+02  0.57358854450E+03  0.58500025686E+03  0.00000000000E+00 0. -1.
          1    1    1    2  501    0 -0.71997472578E+02  0.73907919348E+02 -0.95728326609E+03  0.96282774583E+03  0.00000000000E+00 0. -1.
<scales pt_clust_3="40.48435" pt_clust_4="37.27352" pt_clust_5="14000.00000" pt_clust_6="78.17011"></scales>
<clustering>
<clus scale="   37.274">  2  4  1 -1</clus>
<clus scale="   40.484">  1  3  2 -1</clus>
<clus scale="   78.170">  2  6  1 -1</clus>
<clus scale="   40.484">  1  3  2 -1</clus>
</clustering>
</event>
<event>
 6    0  0.1361744E+002  0.1196856E+03  0.7546771E-02  0.1243617E+00
         21   -1    0    0  504  502  0.00000000000E+00  0.00000000000E+00  0.62230565652E+03  0.62230565652E+03  0.00000000000E+00 0. -1.
         -2   -1    0    0    0  501 -0.00000000000E+00 -0.00000000000E+00 -0.16739865826E+03  0.16739865826E+03  0.00000000000E+00 0. -1.
         21    1    1    2  503  502  0.92508492482E+02  0.96613323708E+02  0.52968085589E+03  0.54630922067E+03  0.00000000000E+00 0. -1.
         21    1    1    2  504  501 -0.71113139259E+02 -0.39787813973E+02  0.43964130850E+02  0.92590461266E+02  0.00000000000E+00 0.  1.
         21    1    1    2  505  503  0.21736484843E+02 -0.41474151451E+02 -0.53383330037E+02  0.71009576380E+02  0.00000000000E+00 0. -1.
         -2    1    1    2    0  505 -0.43131838066E+02 -0.15351358284E+02 -0.65354658436E+02  0.79795056460E+02  0.00000000000E+00 0. -1.
<scales pt_clust_3="119.68560" pt_clust_4="14000.00000" pt_clust_5="51.95842" pt_clust_6="45.78231"></scales>
<clustering>
<clus scale="   45.782">  2  6  1 -1</clus>
<clus scale="   51.958">  2  5  1 -1</clus>
<clus scale="  119.686">  1  3  2 -1</clus>
<clus scale="  119.686">  1  3  2 -1</clus>
</clustering>
</event>
<event>
 6    0  0.1361744E+002  0.1243956E+03  0.7546771E-02  0.1236017E+00
          2   -1    0    0  504    0 -0.00000000000E+00  0.00000000000E+00  0.63100478404E+03  0.63100478404E+03  0.00000000000E+00 0.  1.
         21   -1    0    0  501  502  0.00000000000E+00 -0.00000000000E+00 -0.23648123606E+03  0.23648123606E+03  0.00000000000E+00 0. -1.
         21    1    1    2  503  502  0.17314782668E+02  0.42629009487E+02 -0.87195388853E+02  0.98590415284E+02  0.00000000000E+00 0. -1.
         21    1    1    2  504  505  0.23448638085E+02 -0.22793781820E+02  0.29786431057E+02  0.44233772084E+02  0.00000000000E+00 0.  1.
         21    1    1    2  505  503  0.10613817773E+03 -0.55269200490E+02 -0.97794079918E+02  0.15454345460E+03  0.00000000000E+00 0. -1.
          2    1    1    2  501    0 -0.14690159848E+03  0.35433972823E+02  0.54972658569E+03  0.57011837813E+03  0.00000000000E+00 0.  1.
<scales pt_clust_3="45.89424" pt_clust_4="32.70161" pt_clust_5="124.39559" pt_clust_6="14000.00000"></scales>
<clustering>
<clus scale="   32.702">  1  4  2 -1</clus>
<clus scale="   45.894">  2  3  1 -1</clus>
<clus scale="  124.396">  2  5  1 -1</clus>
<clus scale="   45.894">  2  3  1 -1</clus>
</clustering>
</event>
<event>
 6    0  0.1361744E+002  0.1969975E+03  0.7546771E-02  0.1152297E+00
          4   -1    0    0  503    0 -0.00000000000E+00  0.00000000000E+00  0.17281155326E+04  0.17281155326E+04  0.00000000000E+00 0. -1.
         21   -1    0    0  504  502  0.00000000000E+00 -0.00000000000E+00 -0.26370888571E+03  0.26370888571E+03  0.00000000000E+00 0.  1.
         21    1    1    2  503  502 -0.94264112567E+02 -0.17368050618E+02  0.26122064742E+03  0.27825096359E+03  0.00000000000E+00 0. -1.
         21    1    1    2  504  505  0.12770351971E+03  0.73298327743E+02 -0.19589396850E+03  0.24506178954E+03  0.00000000000E+00 0.  1.
         21    1    1    2  505  501  0.23013122607E+02  0.37088781958E+02 -0.18033528170E+02  0.47227001785E+02  0.00000000000E+00 0.  1.
          4    1    1    2  501    0 -0.56452529753E+02 -0.93019059083E+02  0.14171134961E+04  0.14212846634E+04  0.00000000000E+00 0. -1.
<scales pt_clust_3="95.85078" pt_clust_4="37.59111" pt_clust_5="37.59111" pt_clust_6="184.50220"></scales>
<clustering>
<clus scale="   37.591">  4  5 -1 -1</clus>
<clus scale="   95.851">  1  3  2 -1</clus>
<clus scale="  184.502">  1  6  2 -1</clus>
<clus scale="  196.997">  2  3  1 -1</clus>
</clustering>
</event>
<event>
 6    0  0.1361744E+002  0.2669822E+03  0.7546771E-02  0.1103019E+00
         21   -1    0    0  504  502  0.00000000000E+00  0.00000000000E+00  0.43502737813E+02  0.43502737813E+02  0.00000000000E+00 0.  1.
          2   -1    0    0  503    0 -0.00000000000E+00 -0.00000000000E+00 -0.24299310576E+04  0.24299310576E+04  0.00000000000E+00 0.  1.
         21    1    1    2  503  505  0.23396562770E+03  0.45016017877E+02 -0.49019852932E+03  0.54503298520E+03  0.00000000000E+00 0.  1.
         21    1    1    2  504  501 -0.40368805634E+02  0.18132583807E+01 -0.14200561984E+03  0.14764323364E+03  0.00000000000E+00 0.  1.
         21    1    1    2  505  502  0.13694055731E+02  0.31824520676E+02 -0.42954636994E+02  0.55185397688E+02  0.00000000000E+00 0.  1.
          2    1    1    2  501    0 -0.20729087780E+03 -0.78653796934E+02 -0.17112695336E+04  0.17255721789E+04  0.00000000000E+00 0.  1.
<scales pt_clust_3="253.40105" pt_clust_4="35.88228" pt_clust_5="34.64574" pt_clust_6="35.88228"></scales>
<clustering>
<clus scale="   34.646">  1  5  2 -1</clus>
<clus scale="   35.882">  4  6 -1 -1</clus>
<clus scale="  253.401">  1  3  2 -1</clus>
<clus scale="   34.646">  1  3  2 -1</clus>
</clustering>
</event>
<event>
 6    0  0.1361744E+002  0.8725648E+02  0.7546771E-02  0.1309635E+00
          2   -1    0    0  504    0 -0.00000000000E+00  0.00000000000E+00  0.24906901172E+04  0.24906901172E+04  0.00000000000E+00 0. -1.
         21   -1    0    0  501  502  0.00000000000E+00 -0.00000000000E+00 -0.88186736704E+01  0.88186736704E+01  0.00000000000E+00 0. -1.
         21    1    1    2  503  502  0.20761832339E+02  0.46528152195E+02  0.21931003491E+03  0.22515064744E+03  0.00000000000E+00 0. -1.
         21    1    1    2  504  505 -0.35609035881E+02  0.36540257638E+01  0.74184267236E+03  0.74270580035E+03  0.00000000000E+00 0. -1.
         21    1    1    2  505  503  0.77582540006E+02  0.15957024280E+02  0.43810868992E+03  0.44521107502E+03  0.00000000000E+00 0. -1.
          2    1    1    2  501    0 -0.62735336464E+02 -0.66139202239E+02  0.10826100463E+04  0.10864412680E+04  0.00000000000E+00 0. -1.
<scales pt_clust_3="49.71825" pt_clust_4="35.79602" pt_clust_5="87.25648" pt_clust_6="14000.00000"></scales>
<clustering>
<clus scale="   35.796">  1  4  2 -1</clus>
<clus scale="   49.718">  2  3  1 -1</clus>
<clus scale="   87.256">  2  5  1 -1</clus>
<clus scale="   49.718">  2  3  1 -1</clus>
</clustering>
</event>
<event>
 6    0  0.1361744E+002  0.9597516E+02  0.7546771E-02  0.1288995E+00
          2   -1    0    0  505    0 -0.00000000000E+00  0.00000000000E+00  0.11406362619E+04  0.11406362619E+04  0.00000000000E+00 0. -1.
         21   -1    0    0  503  502  0.00000000000E+00 -0.00000000000E+00 -0.11206789168E+03  0.11206789168E+03  0.00000000000E+00 0.  1.
         21    1    1    2  503  501  0.30242410236E+02 -0.10251892889E+02  0.17866452635E+02  0.36591184928E+02  0.00000000000E+00 0. -1.
         21    1    1    2  504  502  0.16004062605E+02 -0.74972287176E+02 -0.80977214509E+02  0.11150911682E+03  0.00000000000E+00 0.  1.
         21    1    1    2  505  504  0.48725373661E+02  0.18539215924E+02  0.30847353719E+03  0.31284786672E+03  0.00000000000E+00 0. -1.
          2    1    1    2  501    0 -0.94971846502E+02  0.66684964142E+02  0.78320559486E+03  0.79175598507E+03  0.00000000000E+00 0. -1.
<scales pt_clust_3="31.93282" pt_clust_4="14000.00000" pt_clust_5="52.65922" pt_clust_6="95.97516"></scales>
<clustering>
<clus scale="   31.933">  2  3  1 -1</clus>
<clus scale="   52.659">  1  5  2 -1</clus>
<clus scale="   95.975">  1  6  2 -1</clus>
<clus scale="   31.933">  2  3  1 -1</clus>
</clustering>
</event>
<event>
 6    0  0.1361744E+002  0.1422588E+03  0.7546771E-02  0.1210321E+00
         21   -1    0    0  504  502  0.00000000000E+00  0.00000000000E+00  0.21790748170E+03  0.21790748170E+03  0.00000000000E+00 0.  1.
          1   -1    0    0  503    0 -0.00000000000E+00 -0.00000000000E+00 -0.29203913259E+04  0.29203913259E+04  0.00000000000E+00 0.  1.
         21    1    1    2  503  502  0.16758549979E+02  0.10934883041E+03  0.77807576413E+01  0.11089885436E+03  0.00000000000E+00 0. -1.
         21    1    1    2  504  505 -0.37781536188E+02 -0.19313655038E+03  0.84061677637E+02  0.21399891873E+03  0.00000000000E+00 0.  1.
         21    1    1    2  505  501  0.15217041236E+03  0.22093457136E+02 -0.85888933581E+03  0.87254503976E+03  0.00000000000E+00 0.  1.
          1    1    1    2  501    0 -0.13114742616E+03  0.61694262831E+02 -0.19354369436E+04  0.19408559947E+04  0.00000000000E+00 0.  1.
<scales pt_clust_3="110.62557" pt_clust_4="93.01155" pt_clust_5="142.25884" pt_clust_6="14000.00000"></scales>
<clustering>
<clus scale="  110.626">  1  3  2 -1</clus>
<clus scale="   93.012">  1  4  2 -1</clus>
<clus scale="  142.259">  1  5  2 -1</clus>
<clus scale="  110.626">  1  3  2 -1</clus>
</clustering>
</event>
<event>
 6    0  0.1361744E+002  0.1100360E+03  0.7546771E-02  0.1260503E+00
         21   -1    0    0  505  502  0.00000000000E+00  0.00000000000E+00  0.77254460482E+03  0.77254460482E+03  0.00000000000E+00 0.  1.
          1   -1    0    0  503    0 -0.00000000000E+00 -0.00000000000E+00 -0.52575532407E+03  0.52575532407E+03  0.00000000000E+00 0.  1.
         21    1    1    2  503  502  0.56239408202E+02  0.46128435465E+02  0.38822727077E+03  0.39498242665E+03  0.00000000000E+00 0.  1.
         21    1    1    2  504  501 -0.71616560774E+02  0.36463847128E+02  0.32893976062E+02  0.86836383997E+02  0.00000000000E+00 0.  1.
         21    1    1    2  505  504 -0.98379550528E+02 -0.74621095260E+02  0.30222178694E+03  0.32647335622E+03  0.00000000000E+00 0.  1.
          1    1    1    2  501    0  0.11375670310E+03 -0.79711873331E+01 -0.47655375302E+03  0.49000776203E+03  0.00000000000E+00 0.  1.
<scales pt_clust_3="72.73722" pt_clust_4="14000.00000" pt_clust_5="63.54048" pt_clust_6="110.03597"></scales>
<clustering>
<clus scale="   72.737">  1  3  2 -1</clus>
<clus scale="   63.540">  1  5  2 -1</clus>
<clus scale="  110.036">  2  6  1 -1</clus>
<clus scale="   72.737">  1  3  2 -1</clus>
</clustering>
</event>
<event>
 6    0  0.1361744E+002  0.1366222E+03  0.7546771E-02  0.1217948E+00
         21   -1    0    0  504  502  0.00000000000E+00  0.00000000000E+00  0.31314716930E+03  0.31314716930E+03  0.00000000000E+00 0. -1.
          1   -1    0    0  505    0 -0.00000000000E+00 -0.00000000000E+00 -0.18990179617E+03  0.18990179617E+03  0.00000000000E+00 0.  1.
         21    1    1    2  503  502  0.25040420510E+02 -0.47067707972E+02  0.35397357815E+02  0.63995036787E+02  0.00000000000E+00 0. -1.
         21    1    1    2  504  501 -0.44468665962E+02  0.22836422741E+02 -0.53727955252E+02  0.73387039943E+02  0.00000000000E+00 0. -1.
         21    1    1    2  505  503  0.41721313107E+02 -0.65007975943E+02  0.22721737854E+03  0.23998842058E+03  0.00000000000E+00 0. -1.
          1    1    1    2  501    0 -0.22293067655E+02  0.89239261174E+02 -0.85641407970E+02  0.12567846816E+03  0.00000000000E+00 0.  1.
<scales pt_clust_3="53.31409" pt_clust_4="41.60597" pt_clust_5="124.42049" pt_clust_6="41.60597"></scales>
<clustering>
<clus scale="   41.606">  4  6 -1 -1</clus>
<clus scale="   53.314">  1  3  2 -1</clus>
<clus scale="  124.420">  1  5  2 -1</clus>
<clus scale="   53.314">  1  3  2 -1</clus>
</clustering>
</event>
<event>
 6    0  0.1361744E+002  0.1633564E+03  0.7546771E-02  0.1184959E+00
         21   -1    0    0  504  502  0.00000000000E+00  0.00000000000E+00  0.89577846417E+02  0.89577846417E+02  0.00000000000E+00 0.  1.
          2   -1    0    0  505    0 -0.00000000000E+00 -0.00000000000E+00 -0.23668425680E+04  0.23668425680E+04  0.00000000000E+00 0. -1.
         21    1    1    2  503  501  0.70644867504E+02 -0.30790610985E+02 -0.10310524197E+04  0.10339283589E+04  0.00000000000E+00 0. -1.
         21    1    1    2  504  503 -0.13362140527E+03 -0.52194916916E+02 -0.13743282268E+03  0.19866245254E+03  0.00000000000E+00 0.  1.
         21    1    1    2  505  502 -0.26709598514E+02  0.79615109522E+02  0.24127361449E+02  0.87373324805E+02  0.00000000000E+00 0.  1.
          2    1    1    2  501    0  0.89686136279E+02  0.33704183790E+01 -0.11329068406E+04  0.11364562782E+04  0.00000000000E+00 0. -1.
<scales pt_clust_3="34.57094" pt_clust_4="159.03907" pt_clust_5="83.97600" pt_clust_6="34.57094"></scales>
<clustering>
<clus scale="   34.571">  3  6 -1 -1</clus>
<clus scale="   83.976">  1  5  2 -1</clus>
<clus scale="  159.039">  1  4  2 -1</clus>
<clus scale="   83.976">  1  3  2 -1</clus>
</clustering>
</event>
<event>
 6    0  0.1361744E+002  0.1048601E+03  0.7546771E-02  0.1270396E+00
          2   -1    0    0  505    0 -0.00000000000E+00  0.00000000000E+00  0.36145347728E+04  0.36145347728E+04  0.00000000000E+00 0.  1.
         21   -1    0    0  503  502  0.00000000000E+00 -0.00000000000E+00 -0.29387461607E+02  0.29387461607E+02  0.00000000000E+00 0.  1.
         21    1    1    2  503  504 -0.72284073183E+02 -0.52413331138E+02  0.13953838703E+03  0.16565960875E+03  0.00000000000E+00 0.  1.
         21    1    1    2  504  501 -0.38804414983E+02 -0.36158440448E+02  0.59233255137E+03  0.59470250281E+03  0.00000000000E+00 0.  1.
         21    1    1    2  505  502  0.79295441673E+02  0.12761726787E+03  0.36419430682E+03  0.39396881507E+03  0.00000000000E+00 0.  1.
          2    1    1    2  501    0  0.31793046493E+02 -0.39045496280E+02  0.24890820660E+04  0.24895913078E+04  0.00000000000E+00 0.  1.
<scales pt_clust_3="14000.00000" pt_clust_4="60.88133" pt_clust_5="104.86007" pt_clust_6="50.35225"></scales>
<clustering>
<clus scale="   50.352">  1  6  2 -1</clus>
<clus scale="   60.881">  1  4  2 -1</clus>
<clus scale="  104.860">  1  5  2 -1</clus>
<clus scale="  104.860">  2  3  1 -1</clus>
</clustering>
</event>
<event>
 6    0  0.1361744E+002  0.1005479E+03  0.7546771E-02  0.1279148E+00
         21   -1    0    0  505  502  0.00000000000E+00  0.00000000000E+00  0.17596293027E+03  0.17596293027E+03  0.00000000000E+00 0. -1.
         -4   -1    0    0    0  501 -0.00000000000E+00 -0.00000000000E+00 -0.77688949136E+03  0.77688949136E+03  0.00000000000E+00 0. -1.
         21    1    1    2  503  504  0.59290573959E+02  0.31058842149E+01  0.38657586253E+02  0.70847919179E+02  0.00000000000E+00 0. -1.
         21    1    1    2  504  502  0.46234281836E+02 -0.27101266056E+02  0.10695758254E+03  0.11963282118E+03  0.00000000000E+00 0. -1.
         21    1    1    2  505  501 -0.52032005419E+01  0.49671251243E+02 -0.20301041464E+03  0.20906347110E+03  0.00000000000E+00 0.  1.
         -4    1    1    2    0  503 -0.10032165525E+03 -0.25675869401E+02 -0.54353131525E+03  0.55330821016E+03  0.00000000000E+00 0. -1.
<scales pt_clust_3="100.54793" pt_clust_4="53.26503" pt_clust_5="49.94303" pt_clust_6="14000.00000"></scales>
<clustering>
<clus scale="   49.943">  2  5  1 -1</clus>
<clus scale="   53.265">  1  4  2 -1</clus>
<clus scale="  100.548">  1  3  2 -1</clus>
<clus scale="   53.265">  1  3  2 -1</clus>
</clustering>
</event>
<event>
 6    0  0.1361744E+002  0.1914818E+03  0.7546771E-02  0.1157132E+00
          1   -1    0    0  503    0 -0.00000000000E+00  0.00000000000E+00  0.13357855327E+04  0.13357855327E+04  0.00000000000E+00 0.  1.
         21   -1    0    0  504  502  0.00000000000E+00 -0.00000000000E+00 -0.22373813784E+03  0.22373813784E+03  0.00000000000E+00 0. -1.
         21    1    1    2  503  502  0.10131958724E+02  0.16094929663E+03  0.62445771214E+03  0.64494555345E+03  0.00000000000E+00 0.  1.
         21    1    1    2  504  505  0.52807906780E+02 -0.88615450920E+02 -0.10849949307E+03  0.14971143295E+03  0.00000000000E+00 0. -1.
         21    1    1    2  505  501 -0.56611125472E+01 -0.88020048287E+02 -0.59627572265E+02  0.10646607192E+03  0.00000000000E+00 0. -1.
          1    1    1    2  501    0 -0.57278752957E+02  0.15686202580E+02  0.65571674804E+03  0.65840061220E+03  0.00000000000E+00 0.  1.
<scales pt_clust_3="180.90876" pt_clust_4="58.02137" pt_clust_5="58.02137" pt_clust_6="59.38781"></scales>
<clustering>
<clus scale="   58.021">  4  5 -1 -1</clus>
<clus scale="   59.388">  1  6  2 -1</clus>
<clus scale="  180.909">  1  3  2 -1</clus>
<clus scale="  191.482">  2  3  1 -1</clus>
</clustering>
</event>
<event>
 6    0  0.1361744E+002  0.1077306E+03  0.7546771E-02  0.1264831E+00
         21   -1    0    0  505  502  0.00000000000E+00  0.00000000000E+00  0.19474790479E+03  0.19474790479E+03  0.00000000000E+00 0. -1.
         -1   -1    0    0    0  501 -0.00000000000E+00 -0.00000000000E+00 -0.74076882596E+03  0.74076882596E+03  0.00000000000E+00 0.  1.
         21    1    1    2  503  502  0.50575403825E+02 -0.27795419045E+02  0.12793942087E+03  0.14035295581E+03  0.00000000000E+00 0. -1.
         21    1    1    2  504  503  0.28058041057E+02 -0.30817925388E+02  0.33929907629E+02  0.53742318752E+02  0.00000000000E+00 0.  1.
         21    1    1    2  505  501 -0.15100008410E+02 -0.63574675694E+02 -0.11060693095E+03  0.12846650465E+03  0.00000000000E+00 0.  1.
         -1    1    1    2    0  504 -0.63533436473E+02  0.12218802013E+03 -0.59728331871E+03  0.61295495154E+03  0.00000000000E+00 0.  1.
<scales pt_clust_3="36.57710" pt_clust_4="36.57710" pt_clust_5="65.34332" pt_clust_6="98.75891"></scales>
<clustering>
<clus scale="   36.577">  3  4 -1 -1</clus>
<clus scale="   65.343">  2  5  1 -1</clus>
<clus scale="   98.759">  2  6  1 -1</clus>
<clus scale="  107.731">  1  3  2 -1</clus>
</clustering>
</event>
<event>
 6    0  0.1361744E+002  0.8170034E+02  0.7546771E-02  0.1324294E+00
         21   -1    0    0  505  502  0.00000000000E+00  0.00000000000E+00  0.25536343829E+03  0.25536343829E+03  0.00000000000E+00 0.  1.
          4   -1    0    0  503    0 -0.00000000000E+00 -0.00000000000E+00 -0.28806953172E+03  0.28806953172E+03  0.00000000000E+00 0.  1.
         21    1    1    2  503  504 -0.78058590468E+01 -0.33318842058E+02 -0.72306580624E+02  0.79995739093E+02  0.00000000000E+00 0.  1.
         21    1    1    2  504  502 -0.65102696536E+02  0.62932928880E+02  0.15012253169E+03  0.17531596948E+03  0.00000000000E+00 0.  1.
         21    1    1    2  505  501 -0.12897906870E+02 -0.37697069070E+02  0.74234675688E+02  0.84250887785E+02  0.00000000000E+00 0.  1.
          4    1    1    2  501    0  0.85806462453E+02  0.80829822484E+01 -0.18475672018E+03  0.20387037365E+03  0.00000000000E+00 0.  1.
<scales pt_clust_3="34.22100" pt_clust_4="81.70034" pt_clust_5="40.64730" pt_clust_6="14000.00000"></scales>
<clustering>
<clus scale="   34.221">  2  3  1 -1</clus>
<clus scale="   40.647">  1  5  2 -1</clus>
<clus scale="   81.700">  1  4  2 -1</clus>
<clus scale="   40.647">  1  3  2 -1</clus>
</clustering>
</event>
<event>
 6    0  0.1361744E+002  0.2030508E+03  0.7546771E-02  0.1147190E+00
          2   -1    0    0  503    0 -0.00000000000E+00  0.00000000000E+00  0.16072330512E+04  0.16072330512E+04  0.00000000000E+00 0. -1.
         21   -1    0    0  505  502  0.00000000000E+00 -0.00000000000E+00 -0.10263380895E+03  0.10263380895E+03  0.00000000000E+00 0.  1.
         21    1    1    2  503  502  0.56910237829E+01 -0.29884778910E+02  0.32150246868E+03  0.32293857796E+03  0.00000000000E+00 0. -1.
         21    1    1    2  504  501  0.79731304572E+02 -0.12858438192E+03 -0.22064895114E+01  0.15131388832E+03  0.00000000000E+00 0.  1.
         21    1    1    2  505  504  0.41200879982E+02 -0.20475028928E+02  0.20509787144E+02  0.50372519191E+02  0.00000000000E+00 0. -1.
          2    1    1    2  501    0 -0.12662320834E+03  0.17894418976E+03  0.11647934760E+04  0.11852418747E+04  0.00000000000E+00 0. -1.
<scales pt_clust_3="30.42183" pt_clust_4="32.62336" pt_clust_5="32.62336" pt_clust_6="194.24345"></scales>
<clustering>
<clus scale="   30.422">  1  3  2 -1</clus>
<clus scale="   32.623">  4  5 -1 -1</clus>
<clus scale="  194.243">  1  6  2 -1</clus>
<clus scale="  203.051">  2  3  1 -1</clus>
</clustering>
</event>
<event>
 6    0  0.1361744E+002  0.6749618E+02  0.7546771E-02  0.1368820E+00
          1   -1    0    0  504    0 -0.00000000000E+00  0.00000000000E+00  0.10742734927E+04  0.10742734927E+04  0.00000000000E+00 0. -1.
         21   -1    0    0  503  502  0.00000000000E+00 -0.00000000000E+00 -0.19897222641E+03  0.19897222641E+03  0.00000000000E+00 0.  1.
         21    1    1    2  503  501  0.36491470798E+02 -0.47385539479E+01 -0.23761719585E+01  0.36874483423E+02  0.00000000000E+00 0. -1.
         21    1    1    2  504  505 -0.14661666534E+01 -0.40653665060E+02  0.89801352595E+02  0.98585764973E+02  0.00000000000E+00 0. -1.
         21    1    1    2  505  502 -0.54099694162E+02 -0.59149733056E+02 -0.16265408921E+03  0.18133345131E+03  0.00000000000E+00 0.  1.
          1    1    1    2  501    0  0.19074390017E+02  0.10454195206E+03  0.95053017486E+03  0.95645201940E+03  0.00000000000E+00 0. -1.
<scales pt_clust_3="36.79784" pt_clust_4="40.77373" pt_clust_5="67.49618" pt_clust_6="14000.00000"></scales>
<clustering>
<clus scale="   36.798">  2  3  1 -1</clus>
<clus scale="   40.774">  1  4  2 -1</clus>
<clus scale="   67.496">  2  5  1 -1</clus>
<clus scale="   36.798">  2  3  1 -1</clus>
</clustering>
</event>
<event>
 6    0  0.1361744E+002  0.3680032E+03  0.7546771E-02  0.1055459E+00
          2   -1    0    0  505    0 -0.00000000000E+00  0.00000000000E+00  0.10326317515E+04  0.10326317515E+04  0.00000000000E+00 0. -1.
         21   -1    0    0  504  502  0.00000000000E+00 -0.00000000000E+00 -0.36837861846E+03  0.36837861846E+03  0.00000000000E+00 0. -1.
         21    1    1    2  503  502 -0.11474453928E+02  0.16509828970E+03  0.82500418596E+02  0.18492005684E+03  0.00000000000E+00 0. -1.
         21    1    1    2  504  501  0.48320488968E+02 -0.45896289461E+02  0.71372982021E+02  0.97649585780E+02  0.00000000000E+00 0. -1.
         21    1    1    2  505  503 -0.31795659967E+03 -0.14454714660E+02 -0.18002988344E+03  0.36567211676E+03  0.00000000000E+00 0. -1.
          2    1    1    2  501    0  0.28111056463E+03 -0.10474728558E+03  0.69040961586E+03  0.75276861056E+03  0.00000000000E+00 0. -1.
<scales pt_clust_3="165.49655" pt_clust_4="50.93855" pt_clust_5="351.77589" pt_clust_6="50.93855"></scales>
<clustering>
<clus scale="   50.939">  4  6 -1 -1</clus>
<clus scale="  165.497">  2  3  1 -1</clus>
<clus scale="  351.776">  2  5  1 -1</clus>
<clus scale="  165.497">  2  3  1 -1</clus>
</clustering>
</event>
<event>
 6    0  0.1361744E+002  0.8764536E+02  0.7546771E-02  0.1308656E+00
         21   -1    0    0  505  502  0.00000000000E+00  0.00000000000E+00  0.39682542573E+02  0.39682542573E+02  0.00000000000E+00 0.  1.
          2   -1    0    0  503    0 -0.00000000000E+00 -0.00000000000E+00 -0.42459849493E+04  0.42459849493E+04  0.00000000000E+00 0.  1.
         21    1    1    2  503  502 -0.56519012501E+02  0.65373879205E+02 -0.37985077091E+02  0.94398140543E+02  0.00000000000E+00 0.  1.
         21    1    1    2  504  501 -0.41558778141E+02 -0.80414047225E+02 -0.26239068767E+03  0.27756517074E+03  0.00000000000E+00 0. -1.
         21    1    1    2  505  504  0.15413226419E+02  0.44825934546E+02 -0.16315815576E+03  0.16990443122E+03  0.00000000000E+00 0.  1.
          2    1    1    2  501    0  0.82664564223E+02 -0.29785766527E+02 -0.37427684862E+04  0.37437997493E+04  0.00000000000E+00 0.  1.
<scales pt_clust_3="14000.00000" pt_clust_4="80.73107" pt_clust_5="47.40181" pt_clust_6="87.64536"></scales>
<clustering>
<clus scale="   47.402">  1  5  2 -1</clus>
<clus scale="   80.731">  1  4  2 -1</clus>
<clus scale="   87.645">  2  6  1 -1</clus>
<clus scale="   47.402">  1  3  2 -1</clus>
</clustering>
</event>
<event>
 6    0  0.1361744E+002  0.1604210E+03  0.7546771E-02  0.1188222E+00
         21   -1    0    0  505  502  0.00000000000E+00  0.00000000000E+00  0.74054391954E+03  0.74054391954E+03  0.00000000000E+00 0.  1.
          4   -1    0    0  504    0 -0.00000000000E+00 -0.00000000000E+00 -0.31570272134E+03  0.31570272134E+03  0.00000000000E+00 0. -1.
         21    1    1    2  503  502  0.24749228862E+02 -0.62926766486E+02  0.22263385428E+02  0.71189610200E+02  0.00000000000E+00 0.  1.
         21    1    1    2  504  503 -0.40131366572E+02  0.14934113149E+02 -0.69798099467E+01  0.43385159506E+02  0.00000000000E+00 0. -1.
         21    1    1    2  505  501 -0.70842796402E+02  0.14543798874E+03  0.64916270766E+03  0.66901654044E+03  0.00000000000E+00 0.  1.
          4    1    1    2  501    0  0.86224934111E+02 -0.97445335398E+02 -0.23960508493E+03  0.27265533074E+03  0.00000000000E+00 0. -1.
<scales pt_clust_3="65.26693" pt_clust_4="42.82002" pt_clust_5="160.42101" pt_clust_6="14000.00000"></scales>
<clustering>
<clus scale="   42.820">  2  4  1 -1</clus>
<clus scale="   65.267">  2  3  1 -1</clus>
<clus scale="  160.421">  1  5  2 -1</clus>
<clus scale="  160.421">  1  3  2 -1</clus>
</clustering>
</event>
<event>
 6    0  0.1361744E+002  0.9012589E+02  0.7546771E-02  0.1302547E+00
          2   -1    0    0  505    0 -0.00000000000E+00  0.00000000000E+00  0.30082811182E+04  0.30082811182E+04  0.00000000000E+00 0.  1.
         21   -1    0    0  503  502  0.00000000000E+00 -0.00000000000E+00 -0.12847753311E+03  0.12847753311E+03  0.00000000000E+00 0.  1.
         21    1    1    2  503  504  0.88630536225E+02 -0.31879874709E+02 -0.10143531544E+03  0.13842261947E+03  0.00000000000E+00 0.  1.
         21    1    1    2  504  501 -0.50143456865E+02  0.38539466342E+02  0.12751526847E+03  0.14233692573E+03  0.00000000000E+00 0. -1.
         21    1    1    2  505  502 -0.30933851309E+02 -0.48826211567E+02  0.92755170166E+03  0.92935088171E+03  0.00000000000E+00 0.  1.
          2    1    1    2  501    0 -0.75532280522E+01  0.42166619935E+02  0.19261719304E+04  0.19266482244E+04  0.00000000000E+00 0.  1.
<scales pt_clust_3="14000.00000" pt_clust_4="90.12589" pt_clust_5="39.49309" pt_clust_6="42.83778"></scales>
<clustering>
<clus scale="   42.838">  1  6  2 -1</clus>
<clus scale="   39.493">  1  5  2 -1</clus>
<clus scale="   90.126">  1  4  2 -1</clus>
<clus scale="   90.126">  2  3  1 -1</clus>
</clustering>
</event>
<event>
 6    0  0.1361744E+002  0.3433334E+03  0.7546771E-02  0.1065385E+00
          1   -1    0    0  503    0 -0.00000000000E+00  0.00000000000E+00  0.12288000363E+04  0.12288000363E+04  0.00000000000E+00 0. -1.
         21   -1    0    0  504  502  0.00000000000E+00 -0.00000000000E+00 -0.31922199804E+03  0.31922199804E+03  0.00000000000E+00 0. -1.
         21    1    1    2  503  502  0.81967478958E+02  0.33271591093E+03  0.90701933834E+03  0.96958889490E+03  0.00000000000E+00 0. -1.
         21    1    1    2  504  505  0.13780502781E+02 -0.98950999652E+02 -0.21092508942E+02  0.10210825884E+03  0.00000000000E+00 0. -1.
         21    1    1    2  505  501 -0.11195909663E+03 -0.20614200416E+03 -0.16382925340E+03  0.28612827449E+03  0.00000000000E+00 0. -1.
          1    1    1    2  501    0  0.16211114887E+02 -0.27622907120E+02  0.18748046222E+03  0.19019660607E+03  0.00000000000E+00 0. -1.
<scales pt_clust_3="322.59421" pt_clust_4="76.97441" pt_clust_5="76.97441" pt_clust_6="32.02851"></scales>
<clustering>
<clus scale="   32.029">  1  6  2 -1</clus>
<clus scale="   76.974">  4  5 -1 -1</clus>
<clus scale="  322.594">  1  3  2 -1</clus>
<clus scale="  343.333">  2  3  1 -1</clus>
</clustering>
</event>
<event>
 6    0  0.1361744E+002  0.1189616E+03  0.7546771E-02  0.1244820E+00
          2   -1    0    0  505    0 -0.00000000000E+00  0.00000000000E+00  0.90099768139E+03  0.90099768139E+03  0.00000000000E+00 0. -1.
         21   -1    0    0  501  502  0.00000000000E+00 -0.00000000000E+00 -0.12807319251E+03  0.12807319251E+03  0.00000000000E+00 0.  1.
         21    1    1    2  503  502 -0.36622117873E+02 -0.11710209368E+03 -0.78803393649E+02  0.14582199667E+03  0.00000000000E+00 0.  1.
         21    1    1    2  504  503 -0.35030797720E+02  0.54289667218E+02  0.83820615673E+02  0.10583203847E+03  0.00000000000E+00 0. -1.
         21    1    1    2  505  504  0.33466037512E+02  0.26136813490E+02  0.11892792533E+03  0.12628127378E+03  0.00000000000E+00 0. -1.
          2    1    1    2  501    0  0.38186878081E+02  0.36675612974E+02  0.64897934153E+03  0.65113556498E+03  0.00000000000E+00 0. -1.
<scales pt_clust_3="118.96165" pt_clust_4="65.27918" pt_clust_5="42.46303" pt_clust_6="14000.00000"></scales>
<clustering>
<clus scale="   42.463">  1  5  2 -1</clus>
<clus scale="   65.279">  1  4  2 -1</clus>
<clus scale="  118.962">  2  3  1 -1</clus>
<clus scale="  118.962">  2  3  1 -1</clus>
</clustering>
</event>
<event>
 6    0  0.1361744E+002  0.1023992E+03  0.7546771E-02  0.1275330E+00
         21   -1    0    0  505  502  0.00000000000E+00  0.00000000000E+00  0.41693263147E+02  0.41693263147E+02  0.00000000000E+00 0.  1.
          2   -1    0    0  504    0 -0.00000000000E+00 -0.00000000000E+00 -0.21388595645E+04  0.21388595645E+04  0.00000000000E+00 0. -1.
         21    1    1    2  503  501  0.18165197349E+02  0.74666000166E+02 -0.49264750979E+03  0.49860460776E+03  0.00000000000E+00 0. -1.
         21    1    1    2  504  502  0.44966019535E+02 -0.13040469098E+01 -0.16579784439E+03  0.17179222524E+03  0.00000000000E+00 0.  1.
         21    1    1    2  505  503 -0.42594549394E+02 -0.97821647675E+02 -0.44551802160E+02  0.11562107709E+03  0.00000000000E+00 0.  1.
          2    1    1    2  501    0 -0.20536667490E+02  0.24459694419E+02 -0.13941691450E+04  0.13945349175E+04  0.00000000000E+00 0. -1.
<scales pt_clust_3="102.39921" pt_clust_4="40.53247" pt_clust_5="14000.00000" pt_clust_6="31.93793"></scales>
<clustering>
<clus scale="   31.938">  2  6  1 -1</clus>
<clus scale="   40.532">  2  4  1 -1</clus>
<clus scale="  102.399">  2  3  1 -1</clus>
<clus scale="  102.399">  1  3  2 -1</clus>
</clustering>
</event>
<event>
 6    0  0.1361744E+002  0.1460093E+03  0.7546771E-02  0.1205464E+00
         21   -1    0    0  504  502  0.00000000000E+00  0.00000000000E+00  0.25465018995E+02  0.25465018995E+02  0.00000000000E+00 0. -1.
          2   -1    0    0  505    0 -0.00000000000E+00 -0.00000000000E+00 -0.17398784555E+04  0.17398784555E+04  0.00000000000E+00 0. -1.
         21    1    1    2  503  502 -0.16454844521E+02 -0.79889664380E+02 -0.16987553932E+03  0.18844314591E+03  0.00000000000E+00 0.  1.
         21    1    1    2  504  501  0.56411776184E+02 -0.56775223965E+01 -0.25549118054E+03  0.26170645022E+03  0.00000000000E+00 0. -1.
         21    1    1    2  505  503 -0.11924030154E+03  0.92999130363E+02 -0.50611346924E+03  0.52822147960E+03  0.00000000000E+00 0. -1.
          2    1    1    2  501    0  0.79283369881E+02 -0.74319435869E+01 -0.78293324739E+03  0.78697239875E+03  0.00000000000E+00 0. -1.
<scales pt_clust_3="81.56666" pt_clust_4="44.78494" pt_clust_5="136.02101" pt_clust_6="44.78494"></scales>
<clustering>
<clus scale="   44.785">  4  6 -1 -1</clus>
<clus scale="   81.567">  1  3  2 -1</clus>
<clus scale="  136.021">  1  5  2 -1</clus>
<clus scale="   81.567">  1  3  2 -1</clus>
</clustering>
</event>
<event>
 6    0  0.1361744E+002  0.9983125E+02  0.7546771E-02  0.1280651E+00
          2   -1    0    0  503    0 -0.00000000000E+00  0.00000000000E+00  0.29194087636E+03  0.29194087636E+03  0.00000000000E+00 0. -1.
         21   -1    0    0  501  502  0.00000000000E+00 -0.00000000000E+00 -0.70588676829E+03  0.70588676829E+03  0.00000000000E+00 0. -1.
         21    1    1    2  503  505  0.28960735159E+02  0.44603602258E+02  0.36160773279E+02  0.64310240549E+02  0.00000000000E+00 0. -1.
         21    1    1    2  504  502  0.22969265512E+02  0.40627359338E+02 -0.11132317147E+03  0.12071047176E+03  0.00000000000E+00 0. -1.
         21    1    1    2  505  504  0.74664687243E+02 -0.18236125547E+02 -0.55124408791E+03  0.55657651428E+03  0.00000000000E+00 0. -1.
          2    1    1    2  501    0 -0.12659468791E+03 -0.66994836049E+02  0.21246059418E+03  0.25623041807E+03  0.00000000000E+00 0. -1.
<scales pt_clust_3="54.29243" pt_clust_4="46.67086" pt_clust_5="99.83125" pt_clust_6="14000.00000"></scales>
<clustering>
<clus scale="   46.671">  2  4  1 -1</clus>
<clus scale="   54.292">  1  3  2 -1</clus>
<clus scale="   99.831">  2  5  1 -1</clus>
<clus scale="   46.671">  2  3  1 -1</clus>
</clustering>
</event>
<event>
 6    0  0.1361744E+002  0.2007486E+03  0.7546771E-02  0.1149109E+00
         21   -1    0    0  503  502  0.00000000000E+00  0.00000000000E+00  0.55494105196E+02  0.55494105196E+02  0.00000000000E+00 0. -1.
          2   -1    0    0  505    0 -0.00000000000E+00 -0.00000000000E+00 -0.10274605288E+04  0.10274605288E+04  0.00000000000E+00 0.  1.
         21    1    1    2  503  501 -0.38446653473E+02  0.65054977445E+02 -0.68120587166E+02  0.10173843742E+03  0.00000000000E+00 0.  1.
         21    1    1    2  504  502  0.12076502562E+03 -0.12265021053E+03 -0.33513383344E+03  0.37675184389E+03  0.00000000000E+00 0. -1.
         21    1    1    2  505  504 -0.42233007248E+01 -0.51189875248E+02 -0.29852552187E+03  0.30291207768E+03  0.00000000000E+00 0. -1.
          2    1    1    2  501    0 -0.78095071426E+02  0.10878510833E+03 -0.27018648114E+03  0.30155227501E+03  0.00000000000E+00 0.  1.
<scales pt_clust_3="49.76828" pt_clust_4="189.50103" pt_clust_5="51.36380" pt_clust_6="49.76828"></scales>
<clustering>
<clus scale="   49.768">  3  6 -1 -1</clus>
<clus scale="   51.364">  2  5  1 -1</clus>
<clus scale="  189.501">  2  4  1 -1</clus>
<clus scale="  200.749">  1  3  2 -1</clus>
</clustering>
</event>
<event>
 6    0  0.1361744E+002  0.2095720E+03  0.7546771E-02  0.1141905E+00
         21   -1    0    0  503  502  0.00000000000E+00  0.00000000000E+00  0.44732108368E+02  0.44732108368E+02  0.00000000000E+00 0.  1.
         -4   -1    0    0    0  501 -0.00000000000E+00 -0.00000000000E+00 -0.17558463105E+04  0.17558463105E+04  0.00000000000E+00 0.  1.
         21    1    1    2  503  501 -0.16836378942E+02 -0.48574546255E+02 -0.16686439023E+03  0.17460433823E+03  0.00000000000E+00 0. -1.
         21    1    1    2  504  502 -0.28485088476E+02  0.14415783131E+03 -0.16589671224E+03  0.22161813943E+03  0.00000000000E+00 0.  1.
         21    1    1    2  505  504 -0.27465599965E+02  0.58597367392E+02 -0.13895740303E+03  0.15328786809E+03  0.00000000000E+00 0.  1.
         -4    1    1    2    0  505  0.72787067383E+02 -0.15418065244E+03 -0.12393956967E+04  0.12510680731E+04  0.00000000000E+00 0.  1.
<scales pt_clust_3="51.40963" pt_clust_4="38.57230" pt_clust_5="38.57230" pt_clust_6="201.35068"></scales>
<clustering>
<clus scale="   38.572">  4  5 -1 -1</clus>
<clus scale="   51.410">  2  3  1 -1</clus>
<clus scale="  201.351">  2  6  1 -1</clus>
<clus scale="  209.572">  1  3  2 -1</clus>
</clustering>
</event>
<event>
 6    0  0.1361744E+002  0.1830399E+03  0.7546771E-02  0.1164893E+00
          2   -1    0    0  504    0 -0.00000000000E+00  0.00000000000E+00  0.14366853982E+04  0.14366853982E+04  0.00000000000E+00 0.  1.
         21   -1    0    0  505  502  0.00000000000E+00 -0.00000000000E+00 -0.34886040652E+03  0.34886040652E+03  0.00000000000E+00 0.  1.
         21    1    1    2  503  502  0.29606524407E+03  0.19352254432E+02 -0.17894600619E+03  0.34648349402E+03  0.00000000000E+00 0.  1.
         21    1    1    2  504  503  0.74890044717E+01 -0.32169354609E+02  0.46962287958E+02  0.57414362786E+02  0.00000000000E+00 0. -1.
         21    1    1    2  505  501 -0.14151911092E+03 -0.10558803489E+03  0.35052057162E+02  0.18001427326E+03  0.00000000000E+00 0.  1.
          2    1    1    2  501    0 -0.16203513762E+03  0.11840513506E+03  0.11847566528E+04  0.12016336747E+04  0.00000000000E+00 0.  1.
<scales pt_clust_3="14000.00000" pt_clust_4="33.02957" pt_clust_5="177.61216" pt_clust_6="183.03988"></scales>
<clustering>
<clus scale="   33.030">  1  4  2 -1</clus>
<clus scale="  177.612">  2  5  1 -1</clus>
<clus scale="  183.040">  1  6  2 -1</clus>
<clus scale="  177.612">  2  3  1 -1</clus>
</clustering>
</event>
<event>
 6    0  0.1361744E+002  0.1457017E+03  0.7546771E-02  0.1205856E+00
          1   -1    0    0  503    0 -0.00000000000E+00  0.00000000000E+00  0.14317823077E+04  0.14317823077E+04  0.00000000000E+00 0.  1.
         21   -1    0    0  505  502  0.00000000000E+00 -0.00000000000E+00 -0.31155822340E+02  0.31155822340E+02  0.00000000000E+00 0.  1.
         21    1    1    2  503  504  0.25506398436E+02 -0.30071740512E+02  0.16338409426E+03  0.16807512664E+03  0.00000000000E+00 0. -1.
         21    1    1    2  504  502  0.15278261909E+02 -0.13266612585E+03  0.18353875110E+03  0.22698061457E+03  0.00000000000E+00 0.  1.
         21    1    1    2  505  501 -0.33856240692E+02  0.59497118615E+02  0.35251680616E+03  0.35910200609E+03  0.00000000000E+00 0.  1.
          1    1    1    2  501    0 -0.69284196533E+01  0.10324074775E+03  0.70118683383E+03  0.70878038273E+03  0.00000000000E+00 0.  1.
<scales pt_clust_3="39.43204" pt_clust_4="138.90485" pt_clust_5="35.77401" pt_clust_6="35.77401"></scales>
<clustering>
<clus scale="   35.774">  5  6 -1 -1</clus>
<clus scale="   39.432">  1  3  2 -1</clus>
<clus scale="  138.905">  2  4  1 -1</clus>
<clus scale="  138.905">  2  3  1 -1</clus>
</clustering>
</event>
<event>
 6    0  0.1361744E+002  0.1108224E+03  0.7546771E-02  0.1259054E+00
         21   -1    0    0  504  502  0.00000000000E+00  0.00000000000E+00  0.30454422825E+03  0.30454422825E+03  0.00000000000E+00 0. -1.
          3   -1    0    0  505    0 -0.00000000000E+00 -0.00000000000E+00 -0.22416431554E+03  0.22416431554E+03  0.00000000000E+00 0. -1.
         21    1    1    2  503  502 -0.41978008618E+02 -0.29594011963E+02  0.63138714840E+02  0.81390761535E+02  0.00000000000E+00 0. -1.
         21    1    1    2  504  501  0.42803942620E+02 -0.32092792620E+02  0.15725782505E+03  0.16610884498E+03  0.00000000000E+00 0. -1.
         21    1    1    2  505  503 -0.41457884352E+02  0.12315521698E+03 -0.15877789804E+03  0.20517403479E+03  0.00000000000E+00 0. -1.
          3    1    1    2  501    0  0.40631950350E+02 -0.61468412397E+02  0.18761270867E+02  0.76034902488E+02  0.00000000000E+00 0. -1.
<scales pt_clust_3="51.36106" pt_clust_4="54.41522" pt_clust_5="14000.00000" pt_clust_6="110.82240"></scales>
<clustering>
<clus scale="   51.361">  1  3  2 -1</clus>
<clus scale="   54.415">  1  4  2 -1</clus>
<clus scale="  110.822">  1  6  2 -1</clus>
<clus scale="   51.361">  1  3  2 -1</clus>
</clustering>
</event>
<event>
 6    0  0.1361744E+002  0.1689216E+03  0.7546771E-02  0.1178977E+00
         21   -1    0    0  504  502  0.00000000000E+00  0.00000000000E+00  0.13131111295E+03  0.13131111295E+03  0.00000000000E+00 0. -1.
         -2   -1    0    0    0  501 -0.00000000000E+00 -0.00000000000E+00 -0.92797954001E+03  0.92797954001E+03  0.00000000000E+00 0. -1.
         21    1    1    2  503  502  0.13010863941E+02  0.41896555491E+02 -0.26960797143E+02  0.51492606509E+02  0.00000000000E+00 0. -1.
         21    1    1    2  504  505 -0.57285481254E+02 -0.73579592978E+02 -0.77828264938E+01  0.93574330100E+02  0.00000000000E+00 0. -1.
         21    1    1    2  505  501 -0.26004975313E+02 -0.10966427966E+03  0.21770274603E+02  0.11478875307E+03  0.00000000000E+00 0. -1.
         -2    1    1    2    0  503  0.70279592626E+02  0.14134731715E+03 -0.78369507802E+03  0.79943496329E+03  0.00000000000E+00 0. -1.
<scales pt_clust_3="43.87031" pt_clust_4="49.26778" pt_clust_5="49.26778" pt_clust_6="160.71896"></scales>
<clustering>
<clus scale="   43.870">  1  3  2 -1</clus>
<clus scale="   49.268">  4  5 -1 -1</clus>
<clus scale="  160.719">  2  6  1 -1</clus>
<clus scale="   43.870">  1  3  2 -1</clus>
</clustering>
</event>
<event>
 6    0  0.1361744E+002  0.7203289E+02  0.7546771E-02  0.1353313E+00
          2   -1    0    0  503    0 -0.00000000000E+00  0.00000000000E+00  0.12292047879E+04  0.12292047879E+04  0.00000000000E+00 0.  1.
         21   -1    0    0  504  502  0.00000000000E+00 -0.00000000000E+00 -0.19310415210E+03  0.19310415210E+03  0.00000000000E+00 0.  1.
         21    1    1    2  503  505 -0.52977139547E+02 -0.19997705300E+01  0.77151185928E+02  0.93610265927E+02  0.00000000000E+00 0. -1.
         21    1    1    2  504  501 -0.36574068119E+02  0.44037079106E+02 -0.14756441000E+03  0.15827881063E+03  0.00000000000E+00 0.  1.
         21    1    1    2  505  502 -0.29382920428E+02 -0.13419301690E+02 -0.19532385108E+02  0.37748479952E+02  0.00000000000E+00 0. -1.
          2    1    1    2  501    0  0.11893412809E+03 -0.28618006886E+02  0.11260462450E+04  0.11326713835E+04  0.00000000000E+00 0.  1.
<scales pt_clust_3="54.51291" pt_clust_4="72.03289" pt_clust_5="32.30222" pt_clust_6="14000.00000"></scales>
<clustering>
<clus scale="   32.302">  2  5  1 -1</clus>
<clus scale="   54.513">  1  3  2 -1</clus>
<clus scale="   72.033">  2  4  1 -1</clus>
<clus scale="   32.302">  2  3  1 -1</clus>
</clustering>
</event>
<event>
 6    0  0.1361744E+002  0.1188695E+03  0.7546771E-02  0.1244974E+00
         21   -1    0    0  504  502  0.00000000000E+00  0.00000000000E+00  0.45087137668E+03  0.45087137668E+03  0.00000000000E+00 0. -1.
         -2   -1    0    0    0  501 -0.00000000000E+00 -0.00000000000E+00 -0.15779838164E+03  0.15779838164E+03  0.00000000000E+00 0. -1.
         21    1    1    2  503  502 -0.37320341831E+02 -0.26772910139E+02  0.24278849086E+03  0.24709481566E+03  0.00000000000E+00 0. -1.
         21    1    1    2  504  501 -0.18116469505E+02 -0.38515804471E+02  0.69219462672E+00  0.42569388001E+02  0.00000000000E+00 0. -1.
         21    1    1    2  505  503 -0.36257100425E+02 -0.49466543720E+02  0.13557419857E+03  0.14880147713E+03  0.00000000000E+00 0. -1.
         -2    1    1    2    0  505  0.91693911760E+02  0.11475525833E+03 -0.85981889013E+02  0.17020407753E+03  0.00000000000E+00 0. -1.
<scales pt_clust_3="41.94621" pt_clust_4="42.56376" pt_clust_5="41.94621" pt_clust_6="108.53799"></scales>
<clustering>
<clus scale="   41.946">  3  5 -1 -1</clus>
<clus scale="   42.564">  2  4  1 -1</clus>
<clus scale="  108.538">  2  6  1 -1</clus>
<clus scale="  118.869">  1  3  2 -1</clus>
</clustering>
</event>
<event>
 6    0  0.1361744E+002  0.8124375E+02  0.7546771E-02  0.1325558E+00
          1   -1    0    0  504    0 -0.00000000000E+00  0.00000000000E+00  0.11665109919E+04  0.11665109919E+04  0.00000000000E+00 0. -1.
         21   -1    0    0  503  502  0.00000000000E+00 -0.00000000000E+00 -0.18668089643E+03  0.18668089643E+03  0.00000000000E+00 0. -1.
         21    1    1    2  503  501 -0.22489924173E+02  0.65919743830E+02 -0.11107041875E+02  0.70530672016E+02  0.00000000000E+00 0. -1.
         21    1    1    2  504  505  0.29974098022E+01 -0.70378759314E+02  0.78161181612E+02  0.10522036181E+03  0.00000000000E+00 0. -1.
         21    1    1    2  505  502 -0.62941596775E+02  0.16039959820E+02 -0.12258972887E+03  0.13873415780E+03  0.00000000000E+00 0. -1.
          1    1    1    2  501    0  0.82434111146E+02 -0.11580944335E+02  0.10353656846E+04  0.10387066968E+04  0.00000000000E+00 0. -1.
<scales pt_clust_3="81.24375" pt_clust_4="67.61532" pt_clust_5="64.95325" pt_clust_6="14000.00000"></scales>
<clustering>
<clus scale="   64.953">  2  5  1 -1</clus>
<clus scale="   67.615">  2  4  1 -1</clus>
<clus scale="   81.244">  2  3  1 -1</clus>
<clus scale="   64.953">  2  3  1 -1</clus>
</clustering>
</event>
<event>
 6    0  0.1361744E+002  0.1841735E+03  0.7546771E-02  0.1163824E+00
          2   -1    0    0  504    0 -0.00000000000E+00  0.00000000000E+00  0.22154158592E+04  0.22154158592E+04  0.00000000000E+00 0.  1.
         21   -1    0    0  505  502  0.00000000000E+00 -0.00000000000E+00 -0.45627174102E+02  0.45627174102E+02  0.00000000000E+00 0. -1.
         21    1    1    2  503  501 -0.50992447046E+02  0.72442529816E+02  0.11528790341E+03  0.14539412111E+03  0.00000000000E+00 0. -1.
         21    1    1    2  504  502  0.42391396621E+02  0.59951571579E+02  0.61681382993E+03  0.62116867454E+03  0.00000000000E+00 0. -1.
         21    1    1    2  505  503 -0.98555754296E+01  0.87617551559E+02  0.80304807260E+02  0.11925950602E+03  0.00000000000E+00 0. -1.
          2    1    1    2  501    0  0.18456625855E+02 -0.22001165295E+03  0.13573821445E+04  0.13752207316E+04  0.00000000000E+00 0.  1.
<scales pt_clust_3="49.51417" pt_clust_4="73.42494" pt_clust_5="49.51417" pt_clust_6="177.35996"></scales>
<clustering>
<clus scale="   49.514">  3  5 -1 -1</clus>
<clus scale="   73.425">  1  4  2 -1</clus>
<clus scale="  177.360">  1  6  2 -1</clus>
<clus scale="  184.174">  2  3  1 -1</clus>
</clustering>
</event>
<event>
 6    0  0.1361744E+002  0.1227357E+03  0.7546771E-02  0.1238651E+00
          2   -1    0    0  504    0 -0.00000000000E+00  0.00000000000E+00  0.10729615385E+04  0.10729615385E+04  0.00000000000E+00 0. -1.
         21   -1    0    0  503  502  0.00000000000E+00 -0.00000000000E+00 -0.46511935674E+02  0.46511935674E+02  0.00000000000E+00 0. -1.
         21    1    1    2  503  505 -0.37126046637E+02  0.22291214560E+01  0.16991086009E+02  0.40890210627E+02  0.00000000000E+00 0. -1.
         21    1    1    2  504  502 -0.25607983850E+02  0.11559708326E+03  0.94252247534E+02  0.15133387149E+03  0.00000000000E+00 0. -1.
         21    1    1    2  505  501  0.24821274426E+02 -0.10066968037E+03  0.55073369969E+03  0.56040885805E+03  0.00000000000E+00 0. -1.
          2    1    1    2  501    0  0.37912756061E+02 -0.17156524345E+02  0.36447256962E+03  0.36684053403E+03  0.00000000000E+00 0. -1.
<scales pt_clust_3="37.19291" pt_clust_4="14000.00000" pt_clust_5="122.73567" pt_clust_6="40.42637"></scales>
<clustering>
<clus scale="   37.193">  2  3  1 -1</clus>
<clus scale="   40.426">  1  6  2 -1</clus>
<clus scale="  122.736">  1  5  2 -1</clus>
<clus scale="   37.193">  2  3  1 -1</clus>
</clustering>
</event>
<event>
 6    0  0.1361744E+002  0.1899475E+03  0.7546771E-02  0.1158509E+00
          1   -1    0    0  504    0 -0.00000000000E+00  0.00000000000E+00  0.11220099835E+04  0.11220099835E+04  0.00000000000E+00 0.  1.
         21   -1    0    0  503  502  0.00000000000E+00 -0.00000000000E+00 -0.32108646766E+02  0.32108646766E+02  0.00000000000E+00 0. -1.
         21    1    1    2  503  501  0.41416237897E+02  0.62132375471E+02  0.16265044969E+03  0.17897180121E+03  0.00000000000E+00 0.  1.
         21    1    1    2  504  505 -0.51458881597E+02 -0.42879310716E+02  0.22589191050E+03  0.23561368171E+03  0.00000000000E+00 0. -1.
         21    1    1    2  505  502 -0.56711276451E+02 -0.10557628185E+03  0.28634333099E+03  0.31041105548E+03  0.00000000000E+00 0. -1.
          1    1    1    2  501    0  0.66753920151E+02  0.86323217092E+02  0.41501564556E+03  0.42912209187E+03  0.00000000000E+00 0.  1.
<scales pt_clust_3="40.01714" pt_clust_4="33.58596" pt_clust_5="189.09805" pt_clust_6="40.01714"></scales>
<clustering>
<clus scale="   33.586">  4  5 -1 -1</clus>
<clus scale="   40.017">  3  6 -1 -1</clus>
<clus scale="  189.098">  2  4  1 -1</clus>
<clus scale="  189.098">  2  3  1 -1</clus>
</clustering>
</event>
<event>
 6    0  0.1361744E+002  0.1615177E+03  0.7546771E-02  0.1186994E+00
          2   -1    0    0  503    0 -0.00000000000E+00  0.00000000000E+00  0.11821798339E+04  0.11821798339E+04  0.00000000000E+00 0. -1.
         21   -1    0    0  501  502  0.00000000000E+00 -0.00000000000E+00 -0.83478028820E+02  0.83478028820E+02  0.00000000000E+00 0.  1.
         21    1    1    2  503  505 -0.45188059509E+02  0.62657592590E-01  0.87622508674E+02  0.98588380018E+02  0.00000000000E+00 0.  1.
         21    1    1    2  504  502  0.81410084330E+02  0.99701613237E+02  0.92938746706E+02  0.15876279209E+03  0.00000000000E+00 0.  1.
         21    1    1    2  505  504  0.86209780306E+02 -0.16505299471E+03  0.18621355798E+03  0.26334408377E+03  0.00000000000E+00 0.  1.
          2    1    1    2  501    0 -0.12243180513E+03  0.65288723884E+02  0.73192699169E+03  0.74496260680E+03  0.00000000000E+00 0. -1.
<scales pt_clust_3="45.18810" pt_clust_4="125.48509" pt_clust_5="161.51773" pt_clust_6="14000.00000"></scales>
<clustering>
<clus scale="   45.188">  1  3  2 -1</clus>
<clus scale="  125.485">  2  4  1 -1</clus>
<clus scale="  161.518">  2  5  1 -1</clus>
<clus scale="  125.485">  2  3  1 -1</clus>
</clustering>
</event>
<event>
 6    0  0.1361744E+002  0.1416191E+03  0.7546771E-02  0.1211167E+00
          1   -1    0    0  502    0 -0.00000000000E+00  0.00000000000E+00  0.61956818238E+03  0.61956818238E+03  0.00000000000E+00 0. -1.
         21   -1    0    0  503  502  0.00000000000E+00 -0.00000000000E+00 -0.74237639539E+02  0.74237639539E+02  0.00000000000E+00 0.  1.
         21    1    1    2  503  505 -0.64090973246E+02  0.60648775511E+02 -0.21114040646E+01  0.88263156808E+02  0.00000000000E+00 0.  1.
         21    1    1    2  504  501  0.24613170057E+02 -0.44544716415E+02  0.17116061916E+03  0.17856650708E+03  0.00000000000E+00 0.  1.
         21    1    1    2  505  504 -0.47736023153E+02  0.68190054396E+01  0.93399655031E+01  0.49116816848E+02  0.00000000000E+00 0.  1.
          1    1    1    2  501    0  0.87213826342E+02 -0.22923064536E+02  0.36694136224E+03  0.37785934118E+03  0.00000000000E+00 0. -1.
<scales pt_clust_3="137.18967" pt_clust_4="41.13912" pt_clust_5="31.04679" pt_clust_6="41.13912"></scales>
<clustering>
<clus scale="   31.047">  3  5 -1 -1</clus>
<clus scale="   41.139">  4  6 -1 -1</clus>
<clus scale="  137.190">  2  3  1 -1</clus>
<clus scale="  137.190">  2  3  1 -1</clus>
</clustering>
</event>
<event>
 6    0  0.1361744E+002  0.9878630E+02  0.7546771E-02  0.1282869E+00
         21   -1    0    0  504  502  0.00000000000E+00  0.00000000000E+00  0.14648095632E+03  0.14648095632E+03  0.00000000000E+00 0.  1.
         -3   -1    0    0    0  501 -0.00000000000E+00 -0.00000000000E+00 -0.47121689792E+03  0.47121689792E+03  0.00000000000E+00 0.  1.
         21    1    1    2  503  505  0.36200675656E+02 -0.30114969314E+02  0.24174542779E+02  0.52932115141E+02  0.00000000000E+00 0.  1.
         21    1    1    2  504  503  0.29343353589E+02 -0.32708446621E+02  0.78209944573E+02  0.89708808432E+02  0.00000000000E+00 0.  1.
         21    1    1    2  505  501 -0.76785750605E+01  0.11067889931E+03 -0.14193199026E+03  0.18014846412E+03  0.00000000000E+00 0.  1.
         -3    1    1    2    0  502 -0.57865454185E+02 -0.47855483379E+02 -0.28518843869E+03  0.29490846654E+03  0.00000000000E+00 0.  1.
<scales pt_clust_3="38.89336" pt_clust_4="38.89336" pt_clust_5="90.20912" pt_clust_6="75.09033"></scales>
<clustering>
<clus scale="   38.893">  3  4 -1 -1</clus>
<clus scale="   75.090">  2  6  1 -1</clus>
<clus scale="   90.209">  2  5  1 -1</clus>
<clus scale="   98.786">  1  3  2 -1</clus>
</clustering>
</event>
<event>
 6    0  0.1361744E+002  0.1196220E+03  0.7546771E-02  0.1243722E+00
         21   -1    0    0  505  502  0.00000000000E+00  0.00000000000E+00  0.21659620842E+04  0.21659620842E+04  0.00000000000E+00 0. -1.
         -3   -1    0    0    0  501 -0.00000000000E+00 -0.00000000000E+00 -0.26658370435E+03  0.26658370435E+03  0.00000000000E+00 0. -1.
         21    1    1    2  503  504  0.60506785102E+02  0.52826527245E+01  0.14950000594E+04  0.14962333224E+04  0.00000000000E+00 0. -1.
         21    1    1    2  504  502  0.51702153186E+02 -0.21675908121E+01  0.62883721547E+03  0.63096279974E+03  0.00000000000E+00 0. -1.
         21    1    1    2  505  501  0.20246620256E+02  0.23829112418E+02  0.11583093034E+02  0.33345468577E+02  0.00000000000E+00 0. -1.
         -3    1    1    2    0  503 -0.13245555854E+03 -0.26944174330E+02 -0.23604198805E+03  0.27200419784E+03  0.00000000000E+00 0. -1.
<scales pt_clust_3="37.82345" pt_clust_4="37.82345" pt_clust_5="31.26903" pt_clust_6="112.38954"></scales>
<clustering>
<clus scale="   31.269">  2  5  1 -1</clus>
<clus scale="   37.823">  3  4 -1 -1</clus>
<clus scale="  112.390">  2  6  1 -1</clus>
<clus scale="  119.622">  1  3  2 -1</clus>
</clustering>
</event>
<event>
 6    0  0.1361744E+002  0.6915839E+02  0.7546771E-02  0.1362979E+00
         21   -1    0    0  504  502  0.00000000000E+00  0.00000000000E+00  0.23026611347E+03  0.23026611347E+03  0.00000000000E+00 0.  1.
          2   -1    0    0  505    0 -0.00000000000E+00 -0.00000000000E+00 -0.14578218671E+04  0.14578218671E+04  0.00000000000E+00 0. -1.
         21    1    1    2  503  502 -0.31007127455E+02  0.39200969884E+02  0.18192146796E+03  0.18866260493E+03  0.00000000000E+00 0.  1.
         21    1    1    2  504  501  0.73232895359E+02  0.14723220968E+02  0.80570771538E+01  0.75131529271E+02  0.00000000000E+00 0.  1.
         21    1    1    2  505  503  0.22358303568E+02  0.26890604783E+02 -0.39018658558E+03  0.39175064765E+03  0.00000000000E+00 0. -1.
          2    1    1    2  501    0 -0.64584071471E+02 -0.80814795635E+02 -0.10273477131E+04  0.10325431987E+04  0.00000000000E+00 0. -1.
<scales pt_clust_3="50.00450" pt_clust_4="69.15839" pt_clust_5="34.97139" pt_clust_6="14000.00000"></scales>
<clustering>
<clus scale="   34.971">  2  5  1 -1</clus>
<clus scale="   50.005">  1  3  2 -1</clus>
<clus scale="   69.158">  1  4  2 -1</clus>
<clus scale="   50.005">  1  3  2 -1</clus>
</clustering>
</event>
<event>
 6    0  0.1361744E+002  0.6850224E+02  0.7546771E-02  0.1365262E+00
         -1   -1    0    0    0  501 -0.00000000000E+00  0.00000000000E+00  0.61799671764E+02  0.61799671764E+02  0.00000000000E+00 0.  1.
         21   -1    0    0  503  502  0.00000000000E+00 -0.00000000000E+00 -0.90482021114E+03  0.90482021114E+03  0.00000000000E+00 0.  1.
         21    1    1    2  503  505 -0.11911865869E+01 -0.45636431903E+02 -0.37931908368E+03  0.38205637030E+03  0.00000000000E+00 0.  1.
         21    1    1    2  504  502  0.49488189088E+02 -0.51258250725E+01 -0.40735902005E+03  0.41038606964E+03  0.00000000000E+00 0.  1.
         21    1    1    2  505  501  0.18829107752E+02 -0.43592300595E+02 -0.58220694360E+01  0.47840573391E+02  0.00000000000E+00 0. -1.
         -1    1    1    2    0  504 -0.67126110253E+02  0.94354557571E+02 -0.50520366219E+02  0.12633686958E+03  0.00000000000E+00 0.  1.
<scales pt_clust_3="45.65198" pt_clust_4="68.50224" pt_clust_5="49.61523" pt_clust_6="14000.00000"></scales>
<clustering>
<clus scale="   45.652">  2  3  1 -1</clus>
<clus scale="   49.615">  1  5  2 -1</clus>
<clus scale="   68.502">  2  4  1 -1</clus>
<clus scale="   45.652">  2  3  1 -1</clus>
</clustering>
</event>
<event>
 6    0  0.1361744E+002  0.1375959E+03  0.7546771E-02  0.1216601E+00
         21   -1    0    0  503  502  0.00000000000E+00  0.00000000000E+00  0.72517522300E+02  0.72517522300E+02  0.00000000000E+00 0. -1.
          1   -1    0    0  504    0 -0.00000000000E+00 -0.00000000000E+00 -0.79020051285E+03  0.79020051285E+03  0.00000000000E+00 0.  1.
         21    1    1    2  503  505 -0.34820756953E+02 -0.61287383351E+01  0.15498548474E+02  0.38603776411E+02  0.00000000000E+00 0. -1.
         21    1    1    2  504  502  0.77629572002E+02  0.12675728141E+03 -0.19803049721E+03  0.24760823223E+03  0.00000000000E+00 0. -1.
         21    1    1    2  505  501 -0.31314365546E+02  0.16660395717E+02 -0.15161000453E+02  0.38574787229E+02  0.00000000000E+00 0. -1.
          1    1    1    2  501    0 -0.11494449502E+02 -0.13728893880E+03 -0.51999004136E+03  0.53793123928E+03  0.00000000000E+00 0.  1.
<scales pt_clust_3="35.35600" pt_clust_4="137.59589" pt_clust_5="43.01127" pt_clust_6="14000.00000"></scales>
<clustering>
<clus scale="   35.356">  1  3  2 -1</clus>
<clus scale="   43.011">  1  5  2 -1</clus>
<clus scale="  137.596">  1  4  2 -1</clus>
<clus scale="   35.356">  1  3  2 -1</clus>
</clustering>
</event>
<event>
 6    0  0.1361744E+002  0.1724764E+03  0.7546771E-02  0.1175290E+00
         21   -1    0    0  501  502  0.00000000000E+00  0.00000000000E+00  0.49336823744E+02  0.49336823744E+02  0.00000000000E+00 0. -1.
          1   -1    0    0  503    0 -0.00000000000E+00 -0.00000000000E+00 -0.22521812273E+04  0.22521812273E+04  0.00000000000E+00 0. -1.
         21    1    1    2  503  505 -0.12102950853E+03 -0.68563656243E+02 -0.12562402670E+04  0.12639180058E+04  0.00000000000E+00 0. -1.
         21    1    1    2  504  502  0.66164338368E+02  0.82117501796E+02 -0.50336108293E+02  0.11685344484E+03  0.00000000000E+00 0. -1.
         21    1    1    2  505  504  0.42055494383E+02  0.48416513937E+02 -0.82367626703E+02  0.10438989107E+03  0.00000000000E+00 0. -1.
          1    1    1    2  501    0  0.12809675781E+02 -0.61970359490E+02 -0.81390040148E+03  0.81635670928E+03  0.00000000000E+00 0. -1.
<scales pt_clust_3="164.80426" pt_clust_4="39.66921" pt_clust_5="39.66921" pt_clust_6="63.28043"></scales>
<clustering>
<clus scale="   39.669">  4  5 -1 -1</clus>
<clus scale="   63.280">  2  6  1 -1</clus>
<clus scale="  164.804">  2  3  1 -1</clus>
<clus scale="  172.476">  1  3  2 -1</clus>
</clustering>
</event>
<event>
 6    0  0.1361744E+002  0.1557997E+03  0.7546771E-02  0.1193522E+00
         21   -1    0    0  503  502  0.00000000000E+00  0.00000000000E+00  0.21790035235E+03  0.21790035235E+03  0.00000000000E+00 0.  1.
          1   -1    0    0  505    0 -0.00000000000E+00 -0.00000000000E+00 -0.23310070885E+04  0.23310070885E+04  0.00000000000E+00 0.  1.
         21    1    1    2  503  504 -0.37782027360E+02  0.35469344992E+02  0.50474900544E+02  0.72341354774E+02  0.00000000000E+00 0.  1.
         21    1    1    2  504  501 -0.65334419749E+02  0.12463609495E+03 -0.31104925420E+03  0.34140061673E+03  0.00000000000E+00 0.  1.
         21    1    1    2  505  502 -0.19239177639E+02 -0.55664620342E+02  0.13178038965E+03  0.14434253361E+03  0.00000000000E+00 0.  1.
          1    1    1    2  501    0  0.12235562475E+03 -0.10444081960E+03 -0.19843127721E+04  0.19908229357E+04  0.00000000000E+00 0.  1.
<scales pt_clust_3="51.82235" pt_clust_4="14000.00000" pt_clust_5="57.94639" pt_clust_6="155.79973"></scales>
<clustering>
<clus scale="   51.822">  1  3  2 -1</clus>
<clus scale="   57.946">  1  5  2 -1</clus>
<clus scale="  155.800">  2  6  1 -1</clus>
<clus scale="   51.822">  1  3  2 -1</clus>
</clustering>
</event>
<event>
 6    0  0.1361744E+002  0.3073335E+03  0.7546771E-02  0.1081631E+00
          2   -1    0    0  502    0 -0.00000000000E+00  0.00000000000E+00  0.17143531093E+04  0.17143531093E+04  0.00000000000E+00 0.  1.
         21   -1    0    0  505  502  0.00000000000E+00 -0.00000000000E+00 -0.27094595029E+03  0.27094595029E+03  0.00000000000E+00 0. -1.
         21    1    1    2  503  504 -0.11399872938E+02  0.14408532896E+03 -0.22900220620E+02  0.14633850905E+03  0.00000000000E+00 0. -1.
         21    1    1    2  504  501 -0.16458080576E+02 -0.25711887831E+03  0.12114816030E+04  0.12385752542E+04  0.00000000000E+00 0.  1.
         21    1    1    2  505  503 -0.29397171469E+02  0.14613231088E+03 -0.13733850673E+03  0.20268377193E+03  0.00000000000E+00 0. -1.
          2    1    1    2  501    0  0.57255124983E+02 -0.33098761535E+02  0.39216428332E+03  0.39770152434E+03  0.00000000000E+00 0.  1.
<scales pt_clust_3="99.45238" pt_clust_4="290.18001" pt_clust_5="99.45238" pt_clust_6="66.13378"></scales>
<clustering>
<clus scale="   66.134">  1  6  2 -1</clus>
<clus scale="   99.452">  3  5 -1 -1</clus>
<clus scale="  290.180">  1  4  2 -1</clus>
<clus scale="  307.333">  2  3  1 -1</clus>
</clustering>
</event>
<event>
 6    0  0.1361744E+002  0.1220633E+03  0.7546771E-02  0.1239732E+00
         21   -1    0    0  504  502  0.00000000000E+00  0.00000000000E+00  0.14199443459E+03  0.14199443459E+03  0.00000000000E+00 0. -1.
          2   -1    0    0  503    0 -0.00000000000E+00 -0.00000000000E+00 -0.52931824825E+04  0.52931824825E+04  0.00000000000E+00 0.  1.
         21    1    1    2  503  505 -0.56414616806E-01  0.33015280028E+02 -0.47421121517E+03  0.47535911530E+03  0.00000000000E+00 0. -1.
         21    1    1    2  504  501  0.29066464018E+02 -0.50527956186E+02  0.89608904788E+01  0.58976531307E+02  0.00000000000E+00 0. -1.
         21    1    1    2  505  502  0.69265951891E+02 -0.23217755432E+02  0.94374403264E+02  0.11934556653E+03  0.00000000000E+00 0. -1.
          2    1    1    2  501    0 -0.98276001292E+02  0.40730431591E+02 -0.47803121265E+04  0.47814957039E+04  0.00000000000E+00 0.  1.
<scales pt_clust_3="33.01533" pt_clust_4="58.14318" pt_clust_5="14000.00000" pt_clust_6="122.06329"></scales>
<clustering>
<clus scale="   33.015">  2  3  1 -1</clus>
<clus scale="   58.143">  1  4  2 -1</clus>
<clus scale="  122.063">  2  6  1 -1</clus>
<clus scale="   58.143">  1  3  2 -1</clus>
</clustering>
</event>
<event>
 6    0  0.1361744E+002  0.1750433E+03  0.7546771E-02  0.1172688E+00
         21   -1    0    0  503  502  0.00000000000E+00  0.00000000000E+00  0.33614837185E+03  0.33614837185E+03  0.00000000000E+00 0.  1.
          2   -1    0    0  505    0 -0.00000000000E+00 -0.00000000000E+00 -0.16921330095E+04  0.16921330095E+04  0.00000000000E+00 0. -1.
         21    1    1    2  503  504  0.18000286158E+01  0.55922035245E+02  0.14308224938E+03  0.15363282272E+03  0.00000000000E+00 0. -1.
         21    1    1    2  504  501 -0.75329340937E+02  0.85641405899E+02  0.16066245475E+03  0.19703142992E+03  0.00000000000E+00 0.  1.
         21    1    1    2  505  502  0.64824566626E+02  0.19576261431E+02 -0.26225931014E+03  0.27086048107E+03  0.00000000000E+00 0. -1.
          2    1    1    2  501    0  0.87047456952E+01 -0.16113970257E+03 -0.13974700316E+04  0.14067566476E+04  0.00000000000E+00 0. -1.
<scales pt_clust_3="50.78618" pt_clust_4="50.78618" pt_clust_5="67.71598" pt_clust_6="159.31836"></scales>
<clustering>
<clus scale="   50.786">  3  4 -1 -1</clus>
<clus scale="   67.716">  2  5  1 -1</clus>
<clus scale="  159.318">  2  6  1 -1</clus>
<clus scale="  175.043">  1  3  2 -1</clus>
</clustering>
</event>
<event>
 6    0  0.1361744E+002  0.1575521E+03  0.7546771E-02  0.1191488E+00
         21   -1    0    0  503  502  0.00000000000E+00  0.00000000000E+00  0.78365760320E+03  0.78365760320E+03  0.00000000000E+00 0. -1.
          2   -1    0    0  504    0 -0.00000000000E+00 -0.00000000000E+00 -0.90292581888E+03  0.90292581888E+03  0.00000000000E+00 0. -1.
         21    1    1    2  503  505  0.17607269278E+03 -0.11796713475E+02  0.58929598479E+03  0.61515080532E+03  0.00000000000E+00 0. -1.
         21    1    1    2  504  502 -0.30377563737E+02 -0.28848997464E+02  0.17194786962E+03  0.17697776951E+03  0.00000000000E+00 0. -1.
         21    1    1    2  505  501 -0.95351663357E+02  0.85579648045E+01 -0.60699773478E+03  0.61450095891E+03  0.00000000000E+00 0. -1.
          2    1    1    2  501    0 -0.50343465690E+02  0.32087746135E+02 -0.27351433530E+03  0.27995388835E+03  0.00000000000E+00 0. -1.
<scales pt_clust_3="151.50522" pt_clust_4="41.89345" pt_clust_5="34.13784" pt_clust_6="34.13784"></scales>
<clustering>
<clus scale="   34.138">  5  6 -1 -1</clus>
<clus scale="   41.893">  1  4  2 -1</clus>
<clus scale="  151.505">  1  3  2 -1</clus>
<clus scale="   41.893">  1  3  2 -1</clus>
</clustering>
</event>
<event>
 6    0  0.1361744E+002  0.8563498E+02  0.7546771E-02  0.1313780E+00
          2   -1    0    0  505    0 -0.00000000000E+00  0.00000000000E+00  0.31591161360E+04  0.31591161360E+04  0.00000000000E+00 0.  1.
         21   -1    0    0  504  502  0.00000000000E+00 -0.00000000000E+00 -0.10888148231E+03  0.10888148231E+03  0.00000000000E+00 0. -1.
         21    1    1    2  503  502 -0.41355216830E+02 -0.76500614263E+02 -0.84373357565E+02  0.12116708055E+03  0.00000000000E+00 0. -1.
         21    1    1    2  504  501  0.25345464529E+02  0.45344692075E+02  0.46522469516E+03  0.46811595856E+03  0.00000000000E+00 0.  1.
         21    1    1    2  505  503 -0.43192864993E+02 -0.20602043794E+02  0.13712312610E+03  0.14523367208E+03  0.00000000000E+00 0.  1.
          2    1    1    2  501    0  0.59202617294E+02  0.51757965983E+02  0.25322601900E+04  0.25334809071E+04  0.00000000000E+00 0.  1.
<scales pt_clust_3="85.63498" pt_clust_4="14000.00000" pt_clust_5="47.85465" pt_clust_6="41.41000"></scales>
<clustering>
<clus scale="   47.855">  1  5  2 -1</clus>
<clus scale="   41.410">  1  6  2 -1</clus>
<clus scale="   85.635">  2  3  1 -1</clus>
<clus scale="   85.635">  2  3  1 -1</clus>
</clustering>
</event>
<event>
 6    0  0.1361744E+002  0.3280065E+03  0.7546771E-02  0.1072022E+00
         21   -1    0    0  503  502  0.00000000000E+00  0.00000000000E+00  0.10400076764E+04  0.10400076764E+04  0.00000000000E+00 0.  1.
         -3   -1    0    0    0  501 -0.00000000000E+00 -0.00000000000E+00 -0.12470394695E+03  0.12470394695E+03  0.00000000000E+00 0.  1.
         21    1    1    2  503  504 -0.20847314817E+03 -0.11723308101E+03  0.63915667966E+03  0.68244114028E+03  0.00000000000E+00 0.  1.
         21    1    1    2  504  501 -0.55632317221E+02 -0.34986889939E+02  0.63365119271E+02  0.91291705687E+02  0.00000000000E+00 0.  1.
         21    1    1    2  505  502  0.71194670301E+02  0.26051463050E+02  0.12117606364E+03  0.14293704281E+03  0.00000000000E+00 0.  1.
         -3    1    1    2    0  505  0.19291079509E+03  0.12616850790E+03  0.91605866872E+02  0.24804173458E+03  0.00000000000E+00 0.  1.
<scales pt_clust_3="324.23084" pt_clust_4="57.90587" pt_clust_5="69.45066" pt_clust_6="69.45066"></scales>
<clustering>
<clus scale="   57.906">  3  4 -1 -1</clus>
<clus scale="   69.451">  5  6 -1 -1</clus>
<clus scale="  324.231">  1  3  2 -1</clus>
<clus scale="  324.231">  1  3  2 -1</clus>
</clustering>
</event>
<event>
 6    0  0.1361744E+002  0.1986646E+03  0.7546771E-02  0.1150871E+00
          2   -1    0    0  505    0 -0.00000000000E+00  0.00000000000E+00  0.16093935164E+03  0.16093935164E+03  0.00000000000E+00 0.  1.
         21   -1    0    0  503  502  0.00000000000E+00 -0.00000000000E+00 -0.22053739936E+04  0.22053739936E+04  0.00000000000E+00 0.  1.
         21    1    1    2  503  504  0.45044973525E+02  0.11666127531E+02 -0.88454679266E+03  0.88576982144E+03  0.00000000000E+00 0.  1.
         21    1    1    2  504  501  0.11019646482E+03  0.86842083506E+02 -0.11723442824E+04  0.11807099241E+04  0.00000000000E+00 0.  1.
         21    1    1    2  505  502 -0.52432522115E+02  0.71462030449E+02 -0.35505740509E+02  0.95481143585E+02  0.00000000000E+00 0. -1.
          2    1    1    2  501    0 -0.10280891623E+03 -0.16997024149E+03  0.47962173579E+02  0.20435245616E+03  0.00000000000E+00 0.  1.
<scales pt_clust_3="43.60769" pt_clust_4="43.60769" pt_clust_5="88.63403" pt_clust_6="183.66750"></scales>
<clustering>
<clus scale="   43.608">  3  4 -1 -1</clus>
<clus scale="   88.634">  1  5  2 -1</clus>
<clus scale="  183.667">  1  6  2 -1</clus>
<clus scale="  198.665">  2  3  1 -1</clus>
</clustering>
</event>
<event>
 6    0  0.1361744E+002  0.2047804E+03  0.7546771E-02  0.1145767E+00
         -3   -1    0    0    0  501 -0.00000000000E+00  0.00000000000E+00  0.98469432222E+02  0.98469432222E+02  0.00000000000E+00 0. -1.
         21   -1    0    0  503  502  0.00000000000E+00 -0.00000000000E+00 -0.18989700100E+04  0.18989700100E+04  0.00000000000E+00 0. -1.
         21    1    1    2  503  504 -0.11195392393E+03 -0.33809660937E+02 -0.86890950794E+03  0.87674426559E+03  0.00000000000E+00 0. -1.
         21    1    1    2  504  501 -0.10952569689E+03  0.13073141398E+01 -0.78254566810E+03  0.79017422763E+03  0.00000000000E+00 0. -1.
         21    1    1    2  505  502  0.21065988773E+02  0.38680631445E+02 -0.12011487977E+03  0.12793573181E+03  0.00000000000E+00 0. -1.
         -3    1    1    2    0  505  0.20041363204E+03 -0.61782846482E+01 -0.28930521924E+02  0.20258521715E+03  0.00000000000E+00 0. -1.
<scales pt_clust_3="33.57297" pt_clust_4="33.57297" pt_clust_5="44.04506" pt_clust_6="201.82062"></scales>
<clustering>
<clus scale="   33.573">  3  4 -1 -1</clus>
<clus scale="   44.045">  2  5  1 -1</clus>
<clus scale="  201.821">  1  6  2 -1</clus>
<clus scale="   44.045">  2  3  1 -1</clus>
</clustering>
</event>
<event>
 6    0  0.1361744E+002  0.1231321E+03  0.7546771E-02  0.1238018E+00
         21   -1    0    0  503  502  0.00000000000E+00  0.00000000000E+00  0.26334436094E+03  0.26334436094E+03  0.00000000000E+00 0. -1.
         -4   -1    0    0    0  501 -0.00000000000E+00 -0.00000000000E+00 -0.31990629501E+03  0.31990629501E+03  0.00000000000E+00 0.  1.
         21    1    1    2  503  501 -0.82237985752E+02  0.37268960389E+02 -0.91448440599E+02  0.12851022915E+03  0.00000000000E+00 0. -1.
         21    1    1    2  504  502 -0.72321231239E+01 -0.48193471861E+02  0.48779734254E+02  0.68951989158E+02  0.00000000000E+00 0. -1.
         21    1    1    2  505  504  0.32132962348E+02 -0.63118736673E+02  0.16738312407E+03  0.18175151282E+03  0.00000000000E+00 0. -1.
         -4    1    1    2    0  505  0.57337146528E+02  0.74043248145E+02 -0.18127635180E+03  0.20403692482E+03  0.00000000000E+00 0.  1.
<scales pt_clust_3="90.28877" pt_clust_4="46.29872" pt_clust_5="46.29872" pt_clust_6="109.75481"></scales>
<clustering>
<clus scale="   46.299">  4  5 -1 -1</clus>
<clus scale="   90.289">  2  3  1 -1</clus>
<clus scale="  109.755">  2  6  1 -1</clus>
<clus scale="  123.132">  1  3  2 -1</clus>
</clustering>
</event>
<event>
 6    0  0.1361744E+002  0.1155227E+03  0.7546771E-02  0.1250671E+00
          2   -1    0    0  505    0 -0.00000000000E+00  0.00000000000E+00  0.56430753204E+03  0.56430753204E+03  0.00000000000E+00 0. -1.
         21   -1    0    0  503  502  0.00000000000E+00 -0.00000000000E+00 -0.14168274524E+04  0.14168274524E+04  0.00000000000E+00 0. -1.
         21    1    1    2  503  504 -0.56077054024E+02 -0.69606537024E+01 -0.13343367369E+04  0.13355327080E+04  0.00000000000E+00 0. -1.
         21    1    1    2  504  501 -0.68943950889E+02 -0.81578615479E+01 -0.54138991693E+02  0.88038908960E+02  0.00000000000E+00 0. -1.
         21    1    1    2  505  502  0.27705879101E+02  0.25024665015E+02  0.53174656788E+02  0.64972253466E+02  0.00000000000E+00 0.  1.
          2    1    1    2  501    0  0.97315125813E+02 -0.99061497643E+01  0.48278115139E+03  0.49259111406E+03  0.00000000000E+00 0. -1.
<scales pt_clust_3="56.47122" pt_clust_4="14000.00000" pt_clust_5="37.33430" pt_clust_6="115.52273"></scales>
<clustering>
<clus scale="   37.334">  1  5  2 -1</clus>
<clus scale="   56.471">  2  3  1 -1</clus>
<clus scale="  115.523">  1  6  2 -1</clus>
<clus scale="   56.471">  2  3  1 -1</clus>
</clustering>
</event>
<event>
 6    0  0.1361744E+002  0.1650227E+03  0.7546771E-02  0.1183140E+00
         21   -1    0    0  504  502  0.00000000000E+00  0.00000000000E+00  0.11827771360E+04  0.11827771360E+04  0.00000000000E+00 0. -1.
          2   -1    0    0  505    0 -0.00000000000E+00 -0.00000000000E+00 -0.15568512602E+03  0.15568512602E+03  0.00000000000E+00 0. -1.
         21    1    1    2  503  502 -0.31662884773E+02  0.12282848315E+02  0.30474990445E+03  0.30663644743E+03  0.00000000000E+00 0. -1.
         21    1    1    2  504  501  0.70266119191E+02  0.12334425111E+02  0.73373145132E+02  0.10233808663E+03  0.00000000000E+00 0. -1.
         21    1    1    2  505  503 -0.13466090656E+03 -0.15530646521E+03  0.72266898121E+03  0.75133488824E+03  0.00000000000E+00 0. -1.
          2    1    1    2  501    0  0.96057672139E+02  0.13068919179E+03 -0.73700020814E+02  0.17815283970E+03  0.00000000000E+00 0. -1.
<scales pt_clust_3="33.96184" pt_clust_4="68.45201" pt_clust_5="165.02266" pt_clust_6="14000.00000"></scales>
<clustering>
<clus scale="   33.962">  1  3  2 -1</clus>
<clus scale="   68.452">  1  4  2 -1</clus>
<clus scale="  165.023">  1  5  2 -1</clus>
<clus scale="   33.962">  1  3  2 -1</clus>
</clustering>
</event>
<event>
 6    0  0.1361744E+002  0.1598323E+03  0.7546771E-02  0.1188886E+00
         21   -1    0    0  505  502  0.00000000000E+00  0.00000000000E+00  0.15450562977E+03  0.15450562977E+03  0.00000000000E+00 0. -1.
          1   -1    0    0  503    0 -0.00000000000E+00 -0.00000000000E+00 -0.74627909281E+03  0.74627909281E+03  0.00000000000E+00 0. -1.
         21    1    1    2  503  502  0.42651466983E+02 -0.10321392952E+03 -0.32831806660E+03  0.34679246783E+03  0.00000000000E+00 0.  1.
         21    1    1    2  504  501 -0.40913890242E+02  0.11228950841E+03  0.45458995526E+02  0.12786477384E+03  0.00000000000E+00 0. -1.
         21    1    1    2  505  504 -0.26945117761E+02  0.24357044945E+02  0.51648444861E+02  0.63141641301E+02  0.00000000000E+00 0. -1.
          1    1    1    2  501    0  0.25207541021E+02 -0.33432623832E+02 -0.36056283683E+03  0.36298583961E+03  0.00000000000E+00 0. -1.
<scales pt_clust_3="147.54620" pt_clust_4="33.87859" pt_clust_5="33.87859" pt_clust_6="41.87076"></scales>
<clustering>
<clus scale="   33.879">  4  5 -1 -1</clus>
<clus scale="   41.871">  2  6  1 -1</clus>
<clus scale="  147.546">  2  3  1 -1</clus>
<clus scale="  159.832">  1  3  2 -1</clus>
</clustering>
</event>
<event>
 6    0  0.1361744E+002  0.1217202E+03  0.7546771E-02  0.1240286E+00
         21   -1    0    0  505  502  0.00000000000E+00  0.00000000000E+00  0.91285425234E+03  0.91285425234E+03  0.00000000000E+00 0. -1.
         -2   -1    0    0    0  501 -0.00000000000E+00 -0.00000000000E+00 -0.99347377562E+02  0.99347377562E+02  0.00000000000E+00 0.  1.
         21    1    1    2  503  502 -0.33094682894E+01 -0.92443509628E+02  0.22944525369E+03  0.24739013621E+03  0.00000000000E+00 0.  1.
         21    1    1    2  504  501 -0.33324817594E+02 -0.30784428866E+01  0.34888320217E+01  0.33648064241E+02  0.00000000000E+00 0. -1.
         21    1    1    2  505  504  0.12624899178E+02  0.14994113073E+03  0.63375586046E+03  0.65137410252E+03  0.00000000000E+00 0. -1.
         -2    1    1    2    0  503  0.24009386706E+02 -0.54419178220E+02 -0.53183071398E+02  0.79789326927E+02  0.00000000000E+00 0.  1.
<scales pt_clust_3="121.72021" pt_clust_4="33.46670" pt_clust_5="14000.00000" pt_clust_6="56.89387"></scales>
<clustering>
<clus scale="   33.467">  2  4  1 -1</clus>
<clus scale="   56.894">  2  6  1 -1</clus>
<clus scale="  121.720">  2  3  1 -1</clus>
<clus scale="  121.720">  1  3  2 -1</clus>
</clustering>
</event>
<event>
 6    0  0.1361744E+002  0.1284351E+03  0.7546771E-02  0.1229796E+00
          1   -1    0    0  504    0 -0.00000000000E+00  0.00000000000E+00  0.12181184339E+04  0.12181184339E+04  0.00000000000E+00 0.  1.
         21   -1    0    0  503  502  0.00000000000E+00 -0.00000000000E+00 -0.22429967691E+03  0.22429967691E+03  0.00000000000E+00 0. -1.
         21    1    1    2  503  505 -0.66690330287E+02 -0.19773872191E+02 -0.15381837004E+03  0.16881557137E+03  0.00000000000E+00 0. -1.
         21    1    1    2  504  502 -0.73888674622E+01  0.31795662465E+02  0.26051320532E+03  0.26255035643E+03  0.00000000000E+00 0.  1.
         21    1    1    2  505  501 -0.47094419297E+02 -0.20248622640E+02 -0.46710799741E+02  0.69352648545E+02  0.00000000000E+00 0. -1.
          1    1    1    2  501    0  0.12117361705E+03  0.82268323656E+01  0.93383472142E+03  0.94169953444E+03  0.00000000000E+00 0.  1.
<scales pt_clust_3="38.01782" pt_clust_4="32.64291" pt_clust_5="38.01782" pt_clust_6="120.54954"></scales>
<clustering>
<clus scale="   32.643">  1  4  2 -1</clus>
<clus scale="   38.018">  3  5 -1 -1</clus>
<clus scale="  120.550">  1  6  2 -1</clus>
<clus scale="  128.435">  2  3  1 -1</clus>
</clustering>
</event>
<event>
 6    0  0.1361744E+002  0.1052069E+03  0.7546771E-02  0.1269713E+00
         21   -1    0    0  503  502  0.00000000000E+00  0.00000000000E+00  0.99628983854E+03  0.99628983854E+03  0.00000000000E+00 0. -1.
         -1   -1    0    0    0  501 -0.00000000000E+00 -0.00000000000E+00 -0.13759410326E+03  0.13759410326E+03  0.00000000000E+00 0. -1.
         21    1    1    2  503  505 -0.35657962401E+02 -0.41032812097E+02  0.18803781257E+03  0.19573809263E+03  0.00000000000E+00 0. -1.
         21    1    1    2  504  502 -0.43227484922E+02 -0.35715670263E+02  0.70039574639E+03  0.70263676684E+03  0.00000000000E+00 0. -1.
         21    1    1    2  505  501 -0.55150511371E+02  0.18790772042E+02  0.42954996638E+02  0.72386488757E+02  0.00000000000E+00 0. -1.
         -1    1    1    2    0  504  0.13403595869E+03  0.57957710318E+02 -0.72692820315E+02  0.16312259357E+03  0.00000000000E+00 0. -1.
<scales pt_clust_3="54.36159" pt_clust_4="14000.00000" pt_clust_5="59.84383" pt_clust_6="105.20690"></scales>
<clustering>
<clus scale="   54.362">  1  3  2 -1</clus>
<clus scale="   59.844">  2  5  1 -1</clus>
<clus scale="  105.207">  2  6  1 -1</clus>
<clus scale="   54.362">  1  3  2 -1</clus>
</clustering>
</event>
<event>
 6    0  0.1361744E+002  0.1066270E+03  0.7546771E-02  0.1266947E+00
         21   -1    0    0  503  502  0.00000000000E+00  0.00000000000E+00  0.74496812705E+02  0.74496812705E+02  0.00000000000E+00 0.  1.
          2   -1    0    0  505    0 -0.00000000000E+00 -0.00000000000E+00 -0.77260942446E+03  0.77260942446E+03  0.00000000000E+00 0.  1.
         21    1    1    2  503  501  0.78317213618E+02  0.68792338504E+02 -0.19999572643E+01  0.10425915602E+03  0.00000000000E+00 0.  1.
         21    1    1    2  504  502 -0.26061854336E+02  0.61992616108E+02 -0.11262083517E+03  0.13117071784E+03  0.00000000000E+00 0.  1.
         21    1    1    2  505  504  0.36299572915E+02 -0.38387918992E+02 -0.12618844061E+03  0.13680209744E+03  0.00000000000E+00 0.  1.
          2    1    1    2  501    0 -0.88554932197E+02 -0.92397035620E+02 -0.45730337871E+03  0.47487426587E+03  0.00000000000E+00 0.  1.
<scales pt_clust_3="14000.00000" pt_clust_4="57.95285" pt_clust_5="52.83267" pt_clust_6="106.62697"></scales>
<clustering>
<clus scale="   52.833">  2  5  1 -1</clus>
<clus scale="   57.953">  2  4  1 -1</clus>
<clus scale="  106.627">  2  6  1 -1</clus>
<clus scale="  106.627">  1  3  2 -1</clus>
</clustering>
</event>
<event>
 6    0  0.1361744E+002  0.3729464E+03  0.7546771E-02  0.1053572E+00
          2   -1    0    0  504    0 -0.00000000000E+00  0.00000000000E+00  0.15307183032E+03  0.15307183032E+03  0.00000000000E+00 0.  1.
         21   -1    0    0  501  502  0.00000000000E+00 -0.00000000000E+00 -0.14586369704E+04  0.14586369704E+04  0.00000000000E+00 0. -1.
         21    1    1    2  503  505 -0.29109649701E+03  0.10064930495E+03 -0.77062527263E+03  0.82989804432E+03  0.00000000000E+00 0. -1.
         21    1    1    2  504  503 -0.85704449796E+01 -0.59633670666E+02  0.11773599883E+02  0.61386031460E+02  0.00000000000E+00 0. -1.
         21    1    1    2  505  502 -0.37381266503E+02  0.50677578396E+02 -0.26296470163E+03  0.27039972326E+03  0.00000000000E+00 0. -1.
          2    1    1    2  501    0  0.33704820850E+03 -0.91693212678E+02 -0.28374876572E+03  0.45002500170E+03  0.00000000000E+00 0.  1.
<scales pt_clust_3="48.59352" pt_clust_4="60.24639" pt_clust_5="48.59352" pt_clust_6="357.12676"></scales>
<clustering>
<clus scale="   48.594">  3  5 -1 -1</clus>
<clus scale="   60.246">  1  4  2 -1</clus>
<clus scale="  357.127">  1  6  2 -1</clus>
<clus scale="  372.946">  2  3  1 -1</clus>
</clustering>
</event>
<event>
 6    0  0.1361744E+002  0.9179518E+02  0.7546771E-02  0.1298562E+00
         -2   -1    0    0    0  501 -0.00000000000E+00  0.00000000000E+00  0.70476610373E+03  0.70476610373E+03  0.00000000000E+00 0. -1.
         21   -1    0    0  504  502  0.00000000000E+00 -0.00000000000E+00 -0.67185708750E+02  0.67185708750E+02  0.00000000000E+00 0. -1.
         21    1    1    2  503  501  0.26499249082E+02  0.22663577464E+02  0.31290168417E+03  0.31483854894E+03  0.00000000000E+00 0.  1.
         21    1    1    2  504  505  0.23747988102E+01 -0.63895401994E+02  0.37444701832E+02  0.74097015868E+02  0.00000000000E+00 0. -1.
         21    1    1    2  505  503  0.57166047011E+02 -0.18032141099E+02 -0.16205608704E+02  0.62094579449E+02  0.00000000000E+00 0. -1.
         -2    1    1    2    0  502 -0.86040094903E+02  0.59263965629E+02  0.30343961769E+03  0.32092166822E+03  0.00000000000E+00 0. -1.
<scales pt_clust_3="34.86901" pt_clust_4="60.97340" pt_clust_5="14000.00000" pt_clust_6="91.79518"></scales>
<clustering>
<clus scale="   34.869">  1  3  2 -1</clus>
<clus scale="   60.973">  2  4  1 -1</clus>
<clus scale="   91.795">  1  6  2 -1</clus>
<clus scale="   60.973">  2  3  1 -1</clus>
</clustering>
</event>
<event>
 6    0  0.1361744E+002  0.1238705E+03  0.7546771E-02  0.1236845E+00
         21   -1    0    0  503  502  0.00000000000E+00  0.00000000000E+00  0.32387052421E+02  0.32387052421E+02  0.00000000000E+00 0. -1.
         -2   -1    0    0    0  501 -0.00000000000E+00 -0.00000000000E+00 -0.13285189790E+04  0.13285189790E+04  0.00000000000E+00 0.  1.
         21    1    1    2  503  504  0.16654733945E+02  0.48063123777E+02 -0.33966880008E+02  0.61165292180E+02  0.00000000000E+00 0. -1.
         21    1    1    2  504  505  0.61484572189E+02  0.29992473474E+02 -0.95750494335E+02  0.11767777296E+03  0.00000000000E+00 0. -1.
         21    1    1    2  505  501 -0.30816891839E+02  0.33021880945E+02 -0.65638617311E+03  0.65793839658E+03  0.00000000000E+00 0. -1.
         -2    1    1    2    0  502 -0.47322414294E+02 -0.11107747820E+03 -0.51002837916E+03  0.52412456974E+03  0.00000000000E+00 0.  1.
<scales pt_clust_3="48.25227" pt_clust_4="48.25227" pt_clust_5="45.16775" pt_clust_6="111.28380"></scales>
<clustering>
<clus scale="   45.168">  2  5  1 -1</clus>
<clus scale="   48.252">  3  4 -1 -1</clus>
<clus scale="  111.284">  2  6  1 -1</clus>
<clus scale="  123.871">  1  3  2 -1</clus>
</clustering>
</event>
<event>
 6    0  0.1361744E+002  0.1187113E+03  0.7546771E-02  0.1245238E+00
         -3   -1    0    0    0  501 -0.00000000000E+00  0.00000000000E+00  0.87353705940E+03  0.87353705940E+03  0.00000000000E+00 0. -1.
         21   -1    0    0  505  502  0.00000000000E+00 -0.00000000000E+00 -0.19859562786E+04  0.19859562786E+04  0.00000000000E+00 0.  1.
         21    1    1    2  503  501 -0.24619976290E+02 -0.38610049516E+02  0.44505139724E+02  0.63855983416E+02  0.00000000000E+00 0. -1.
         21    1    1    2  504  502  0.64985237808E+02  0.99547760228E+02 -0.19630549171E+04  0.19666513278E+04  0.00000000000E+00 0.  1.
         21    1    1    2  505  503  0.23774428383E+02 -0.45950717828E+02  0.57051534112E+02  0.77016682987E+02  0.00000000000E+00 0. -1.
         -3    1    1    2    0  504 -0.64139689900E+02 -0.14986992884E+02  0.74907902403E+03  0.75196934381E+03  0.00000000000E+00 0. -1.
<scales pt_clust_3="45.79169" pt_clust_4="118.71131" pt_clust_5="53.71454" pt_clust_6="14000.00000"></scales>
<clustering>
<clus scale="   45.792">  1  3  2 -1</clus>
<clus scale="   53.715">  1  5  2 -1</clus>
<clus scale="  118.711">  2  4  1 -1</clus>
<clus scale="  118.711">  2  3  1 -1</clus>
</clustering>
</event>
<event>
 6    0  0.1361744E+002  0.1845880E+03  0.7546771E-02  0.1163435E+00
         21   -1    0    0  503  502  0.00000000000E+00  0.00000000000E+00  0.14646192744E+04  0.14646192744E+04  0.00000000000E+00 0.  1.
          1   -1    0    0  504    0 -0.00000000000E+00 -0.00000000000E+00 -0.21920180826E+03  0.21920180826E+03  0.00000000000E+00 0.  1.
         21    1    1    2  503  505 -0.12762219868E+03  0.40472209031E+01  0.12796107747E+04  0.12859656062E+04  0.00000000000E+00 0.  1.
         21    1    1    2  504  502 -0.48480056719E+02  0.10570466417E+00  0.13683793472E+03  0.14517213042E+03  0.00000000000E+00 0. -1.
         21    1    1    2  505  501  0.38741583469E+02  0.12430923534E+01 -0.82625635486E+01  0.39632379750E+02  0.00000000000E+00 0. -1.
          1    1    1    2  501    0  0.13736067193E+03 -0.53960179207E+01 -0.16276867965E+03  0.21305096638E+03  0.00000000000E+00 0.  1.
<scales pt_clust_3="174.65622" pt_clust_4="48.48017" pt_clust_5="31.71833" pt_clust_6="31.71833"></scales>
<clustering>
<clus scale="   31.718">  5  6 -1 -1</clus>
<clus scale="   48.480">  1  4  2 -1</clus>
<clus scale="  174.656">  1  3  2 -1</clus>
<clus scale="   48.480">  1  3  2 -1</clus>
</clustering>
</event>
<event>
 6    0  0.1361744E+002  0.1365420E+03  0.7546771E-02  0.1218059E+00
          2   -1    0    0  505    0 -0.00000000000E+00  0.00000000000E+00  0.36624994277E+03  0.36624994277E+03  0.00000000000E+00 0.  1.
         21   -1    0    0  504  502  0.00000000000E+00 -0.00000000000E+00 -0.39547156608E+03  0.39547156608E+03  0.00000000000E+00 0.  1.
         21    1    1    2  503  502  0.32582558219E+02  0.42069213589E+02 -0.23888026996E+03  0.24473501018E+03  0.00000000000E+00 0.  1.
         21    1    1    2  504  501 -0.12476300978E+02 -0.43705156237E+02  0.74127372691E+02  0.86952091119E+02  0.00000000000E+00 0. -1.
         21    1    1    2  505  503  0.24228045510E+02  0.68095479534E+02 -0.13218360100E+03  0.15065356582E+03  0.00000000000E+00 0.  1.
          2    1    1    2  501    0 -0.44334302751E+02 -0.66459536886E+02  0.26771487496E+03  0.27938084172E+03  0.00000000000E+00 0.  1.
<scales pt_clust_3="49.14053" pt_clust_4="33.56276" pt_clust_5="49.14053" pt_clust_6="131.69546"></scales>
<clustering>
<clus scale="   33.563">  4  6 -1 -1</clus>
<clus scale="   49.141">  3  5 -1 -1</clus>
<clus scale="  131.695">  1  4  2 -1</clus>
<clus scale="  136.542">  2  3  1 -1</clus>
</clustering>
</event>
<event>
 6    0  0.1361744E+002  0.1600915E+03  0.7546771E-02  0.1188593E+00
         21   -1    0    0  504  502  0.00000000000E+00  0.00000000000E+00  0.47247648530E+03  0.47247648530E+03  0.00000000000E+00 0. -1.
          2   -1    0    0  503    0 -0.00000000000E+00 -0.00000000000E+00 -0.76266452525E+02  0.76266452525E+02  0.00000000000E+00 0. -1.
         21    1    1    2  503  502 -0.13416519650E+03  0.58427179824E+02  0.26203712680E+03  0.30012912407E+03  0.00000000000E+00 0. -1.
         21    1    1    2  504  505  0.20516895777E+01  0.30458188677E+02  0.61803508226E+02  0.68931736643E+02  0.00000000000E+00 0. -1.
         21    1    1    2  505  501  0.43712064594E+02 -0.44335791270E+02  0.11041945090E+02  0.63232361413E+02  0.00000000000E+00 0. -1.
          2    1    1    2  501    0  0.88401442326E+02 -0.44549577231E+02  0.61327452659E+02  0.11644971570E+03  0.00000000000E+00 0. -1.
<scales pt_clust_3="154.71121" pt_clust_4="30.52721" pt_clust_5="32.55682" pt_clust_6="32.55682"></scales>
<clustering>
<clus scale="   30.527">  1  4  2 -1</clus>
<clus scale="   32.557">  5  6 -1 -1</clus>
<clus scale="  154.711">  1  3  2 -1</clus>
<clus scale="   30.527">  1  3  2 -1</clus>
</clustering>
</event>
<event>
 6    0  0.1361744E+002  0.1377029E+03  0.7546771E-02  0.1216454E+00
         21   -1    0    0  503  502  0.00000000000E+00  0.00000000000E+00  0.47920087600E+02  0.47920087600E+02  0.00000000000E+00 0.  1.
          2   -1    0    0  505    0 -0.00000000000E+00 -0.00000000000E+00 -0.68531259246E+03  0.68531259246E+03  0.00000000000E+00 0.  1.
         21    1    1    2  503  501 -0.54695349450E+01 -0.59003428805E+02 -0.27827087386E+03  0.28451010468E+03  0.00000000000E+00 0.  1.
         21    1    1    2  504  502  0.11568637571E+02  0.66873253835E+02 -0.37524810504E+02  0.77549834668E+02  0.00000000000E+00 0.  1.
         21    1    1    2  505  504 -0.53615152193E+02  0.71779208883E+02 -0.12493653365E+03  0.15373996492E+03  0.00000000000E+00 0.  1.
          2    1    1    2  501    0  0.47516049567E+02 -0.79649033913E+02 -0.19666028684E+03  0.21743277580E+03  0.00000000000E+00 0.  1.
<scales pt_clust_3="58.70863" pt_clust_4="67.86653" pt_clust_5="116.47940" pt_clust_6="58.70863"></scales>
<clustering>
<clus scale="   58.709">  3  6 -1 -1</clus>
<clus scale="   67.867">  1  4  2 -1</clus>
<clus scale="  116.479">  1  5  2 -1</clus>
<clus scale="   67.867">  1  3  2 -1</clus>
</clustering>
</event>
<event>
 6    0  0.1361744E+002  0.2702187E+03  0.7546771E-02  0.1101154E+00
          2   -1    0    0  502    0 -0.00000000000E+00  0.00000000000E+00  0.13902987051E+04  0.13902987051E+04  0.00000000000E+00 0. -1.
         21   -1    0    0  504  502  0.00000000000E+00 -0.00000000000E+00 -0.13689278685E+03  0.13689278685E+03  0.00000000000E+00 0.  1.
         21    1    1    2  503  505 -0.22579206521E+03  0.86311709776E+01  0.30715866266E+01  0.22597784951E+03  0.00000000000E+00 0.  1.
         21    1    1    2  504  503 -0.29787805962E+02  0.24283631758E+02  0.23663851878E+02  0.45132981744E+02  0.00000000000E+00 0.  1.
         21    1    1    2  505  501  0.25872364579E+02 -0.20818842977E+02  0.80944133054E+02  0.87491463285E+02  0.00000000000E+00 0.  1.
          2    1    1    2  501    0  0.22970750659E+03 -0.12095959758E+02  0.11457263467E+04  0.11685891975E+04  0.00000000000E+00 0. -1.
<scales pt_clust_3="269.78936" pt_clust_4="32.94625" pt_clust_5="30.90002" pt_clust_6="30.90002"></scales>
<clustering>
<clus scale="   30.900">  5  6 -1 -1</clus>
<clus scale="   32.946">  3  4 -1 -1</clus>
<clus scale="  269.789">  2  3  1 -1</clus>
<clus scale="  269.789">  2  3  1 -1</clus>
</clustering>
</event>
<event>
 6    0  0.1361744E+002  0.7077716E+02  0.7546771E-02  0.1357470E+00
         21   -1    0    0  503  502  0.00000000000E+00  0.00000000000E+00  0.56679910799E+02  0.56679910799E+02  0.00000000000E+00 0.  1.
          1   -1    0    0  505    0 -0.00000000000E+00 -0.00000000000E+00 -0.50550674018E+03  0.50550674018E+03  0.00000000000E+00 0.  1.
         21    1    1    2  503  501  0.10621493837E+02  0.89450221402E+02 -0.24937646108E+03  0.26514670954E+03  0.00000000000E+00 0.  1.
         21    1    1    2  504  502  0.52127058013E+02 -0.50219427155E+02  0.41201093422E+01  0.72499629943E+02  0.00000000000E+00 0.  1.
         21    1    1    2  505  504 -0.14742236424E+02 -0.42173963528E+02 -0.75391252646E+02  0.87634569149E+02  0.00000000000E+00 0.  1.
          1    1    1    2  501    0 -0.48006315426E+02  0.29431692815E+01 -0.12817922500E+03  0.13690574235E+03  0.00000000000E+00 0.  1.
<scales pt_clust_3="14000.00000" pt_clust_4="70.77716" pt_clust_5="44.67636" pt_clust_6="53.60213"></scales>
<clustering>
<clus scale="   44.676">  2  5  1 -1</clus>
<clus scale="   53.602">  2  6  1 -1</clus>
<clus scale="   70.777">  1  4  2 -1</clus>
<clus scale="   70.777">  1  3  2 -1</clus>
</clustering>
</event>
<event>
 6    0  0.1361744E+002  0.7365828E+02  0.7546771E-02  0.1348077E+00
          2   -1    0    0  505    0 -0.00000000000E+00  0.00000000000E+00  0.71056782095E+03  0.71056782095E+03  0.00000000000E+00 0.  1.
         21   -1    0    0  503  502  0.00000000000E+00 -0.00000000000E+00 -0.24298989041E+03  0.24298989041E+03  0.00000000000E+00 0.  1.
         21    1    1    2  503  501 -0.97084502967E+01 -0.78348789891E+02  0.13334082467E+02  0.80066126669E+02  0.00000000000E+00 0.  1.
         21    1    1    2  504  502 -0.56234452813E+02  0.28603597894E+02 -0.19360130991E+03  0.20362206829E+03  0.00000000000E+00 0.  1.
         21    1    1    2  505  504  0.40556636372E+01  0.77581080205E+02  0.16611567548E+03  0.18338399617E+03  0.00000000000E+00 0. -1.
          2    1    1    2  501    0  0.61887239472E+02 -0.27835888209E+02  0.48172948250E+03  0.48648552023E+03  0.00000000000E+00 0.  1.
<scales pt_clust_3="73.65828" pt_clust_4="63.09104" pt_clust_5="14000.00000" pt_clust_6="64.48249"></scales>
<clustering>
<clus scale="   63.091">  2  4  1 -1</clus>
<clus scale="   64.482">  1  6  2 -1</clus>
<clus scale="   73.658">  2  3  1 -1</clus>
<clus scale="   63.091">  2  3  1 -1</clus>
</clustering>
</event>
<event>
 6    0  0.1361744E+002  0.1262260E+03  0.7546771E-02  0.1233166E+00
         -2   -1    0    0    0  501 -0.00000000000E+00  0.00000000000E+00  0.11158966124E+04  0.11158966124E+04  0.00000000000E+00 0. -1.
         21   -1    0    0  503  502  0.00000000000E+00 -0.00000000000E+00 -0.43285319614E+03  0.43285319614E+03  0.00000000000E+00 0. -1.
         21    1    1    2  503  505  0.63915386928E+02  0.76625746076E+02 -0.40267642085E+03  0.41485537426E+03  0.00000000000E+00 0. -1.
         21    1    1    2  504  502  0.99657912198E+01  0.31066319546E+02  0.15810666329E+02  0.36254797952E+02  0.00000000000E+00 0.  1.
         21    1    1    2  505  501  0.36999026458E+02 -0.12295650969E+03  0.46194048788E+03  0.47945411206E+03  0.00000000000E+00 0. -1.
         -2    1    1    2    0  504 -0.11088020460E+03  0.15264444068E+02  0.60796868289E+03  0.61818552426E+03  0.00000000000E+00 0. -1.
<scales pt_clust_3="126.22599" pt_clust_4="32.62565" pt_clust_5="14000.00000" pt_clust_6="111.85852"></scales>
<clustering>
<clus scale="   32.626">  2  4  1 -1</clus>
<clus scale="  111.859">  1  6  2 -1</clus>
<clus scale="  126.226">  2  3  1 -1</clus>
<clus scale="   32.626">  2  3  1 -1</clus>
</clustering>
</event>
<event>
 6    0  0.1361744E+002  0.2525060E+03  0.7546771E-02  0.1111731E+00
         21   -1    0    0  504  502  0.00000000000E+00  0.00000000000E+00  0.92635189838E+02  0.92635189838E+02  0.00000000000E+00 0. -1.
          2   -1    0    0  503    0 -0.00000000000E+00 -0.00000000000E+00 -0.13736108365E+04  0.13736108365E+04  0.00000000000E+00 0. -1.
         21    1    1    2  503  502 -0.23146965342E+02  0.58342331408E+02 -0.12183875706E+03  0.13705580018E+03  0.00000000000E+00 0. -1.
         21    1    1    2  504  505  0.23338339427E+03  0.21514938785E+02 -0.12394525871E+03  0.26512851312E+03  0.00000000000E+00 0. -1.
         21    1    1    2  505  501 -0.11812970627E+03 -0.34016469666E+02 -0.34505962861E+03  0.36630300982E+03  0.00000000000E+00 0. -1.
          2    1    1    2  501    0 -0.92106722660E+02 -0.45840800527E+02 -0.69013200233E+03  0.69775870327E+03  0.00000000000E+00 0. -1.
<scales pt_clust_3="62.76631" pt_clust_4="231.79777" pt_clust_5="91.81128" pt_clust_6="91.81128"></scales>
<clustering>
<clus scale="   62.766">  2  3  1 -1</clus>
<clus scale="   91.811">  5  6 -1 -1</clus>
<clus scale="  231.798">  1  4  2 -1</clus>
<clus scale="  231.798">  1  3  2 -1</clus>
</clustering>
</event>
<event>
 6    0  0.1361744E+002  0.1889845E+03  0.7546771E-02  0.1159380E+00
         21   -1    0    0  503  502  0.00000000000E+00  0.00000000000E+00  0.30071733383E+03  0.30071733383E+03  0.00000000000E+00 0. -1.
          2   -1    0    0  505    0 -0.00000000000E+00 -0.00000000000E+00 -0.12716687093E+04  0.12716687093E+04  0.00000000000E+00 0.  1.
         21    1    1    2  503  504 -0.12589102229E+03 -0.14607039870E+03  0.22894820139E+03  0.29933658278E+03  0.00000000000E+00 0. -1.
         21    1    1    2  504  501  0.13688587051E+03  0.96883791786E+02 -0.20466478379E+03  0.26459758953E+03  0.00000000000E+00 0.  1.
         21    1    1    2  505  502  0.56742447172E+02  0.46629347566E+02 -0.26226800826E+03  0.27235731957E+03  0.00000000000E+00 0.  1.
          2    1    1    2  501    0 -0.67737295391E+02  0.25572593440E+01 -0.73296678477E+03  0.73609455122E+03  0.00000000000E+00 0.  1.
<scales pt_clust_3="188.98454" pt_clust_4="14000.00000" pt_clust_5="53.15153" pt_clust_6="67.78555"></scales>
<clustering>
<clus scale="   67.786">  2  6  1 -1</clus>
<clus scale="   53.152">  2  5  1 -1</clus>
<clus scale="  188.985">  1  3  2 -1</clus>
<clus scale="  188.985">  1  3  2 -1</clus>
</clustering>
</event>
<event>
 6    0  0.1361744E+002  0.1531816E+03  0.7546771E-02  0.1196617E+00
          1   -1    0    0  505    0 -0.00000000000E+00  0.00000000000E+00  0.28593048684E+03  0.28593048684E+03  0.00000000000E+00 0.  1.
         21   -1    0    0  504  502  0.00000000000E+00 -0.00000000000E+00 -0.16791701109E+04  0.16791701109E+04  0.00000000000E+00 0. -1.
         21    1    1    2  503  502 -0.11237405806E+03 -0.94915064360E+02 -0.16129080850E+04  0.16196015834E+04  0.00000000000E+00 0. -1.
         21    1    1    2  504  501  0.63885159565E+02  0.37413139177E+02  0.11194513350E+03  0.13421165937E+03  0.00000000000E+00 0.  1.
         21    1    1    2  505  503  0.72684385595E+01  0.44754005934E+02 -0.38094861111E+02  0.59219673161E+02  0.00000000000E+00 0. -1.
          1    1    1    2  501    0  0.41220459935E+02  0.12747919248E+02  0.14581818850E+03  0.15206768184E+03  0.00000000000E+00 0.  1.
<scales pt_clust_3="146.67649" pt_clust_4="33.71651" pt_clust_5="45.34039" pt_clust_6="33.71651"></scales>
<clustering>
<clus scale="   33.717">  4  6 -1 -1</clus>
<clus scale="   45.340">  1  5  2 -1</clus>
<clus scale="  146.676">  2  3  1 -1</clus>
<clus scale="  146.676">  2  3  1 -1</clus>
</clustering>
</event>
<event>
 6    0  0.1361744E+002  0.1076763E+03  0.7546771E-02  0.1264934E+00
         21   -1    0    0  504  502  0.00000000000E+00  0.00000000000E+00  0.19356445272E+03  0.19356445272E+03  0.00000000000E+00 0.  1.
          1   -1    0    0  503    0 -0.00000000000E+00 -0.00000000000E+00 -0.19891694488E+04  0.19891694488E+04  0.00000000000E+00 0.  1.
         21    1    1    2  503  505  0.30376307546E+02  0.89044474829E+00 -0.14795613564E+03  0.15104479808E+03  0.00000000000E+00 0. -1.
         21    1    1    2  504  501 -0.43900274662E+02 -0.30649405499E+02  0.46737919495E+01  0.53744436958E+02  0.00000000000E+00 0. -1.
         21    1    1    2  505  502  0.18273667417E+02 -0.74892047267E+02  0.15208061214E+03  0.17050295673E+03  0.00000000000E+00 0.  1.
          1    1    1    2  501    0 -0.47497003008E+01  0.10465100802E+03 -0.18044032646E+04  0.18074417098E+04  0.00000000000E+00 0.  1.
<scales pt_clust_3="30.38936" pt_clust_4="53.20232" pt_clust_5="14000.00000" pt_clust_6="107.67633"></scales>
<clustering>
<clus scale="   30.389">  2  3  1 -1</clus>
<clus scale="   53.202">  1  4  2 -1</clus>
<clus scale="  107.676">  2  6  1 -1</clus>
<clus scale="   53.202">  1  3  2 -1</clus>
</clustering>
</event>
<event>
 6    0  0.1361744E+002  0.1147999E+03  0.7546771E-02  0.1251931E+00
         21   -1    0    0  503  502  0.00000000000E+00  0.00000000000E+00  0.61521030835E+03  0.61521030835E+03  0.00000000000E+00 0.  1.
          1   -1    0    0  504    0 -0.00000000000E+00 -0.00000000000E+00 -0.16837554563E+03  0.16837554563E+03  0.00000000000E+00 0. -1.
         21    1    1    2  503  505 -0.29880886694E+02  0.41876366064E+02  0.64664583089E+02  0.82631747715E+02  0.00000000000E+00 0.  1.
         21    1    1    2  504  502  0.10052515053E+03 -0.13587399616E+03  0.49661494863E+03  0.52458884465E+03  0.00000000000E+00 0.  1.
         21    1    1    2  505  501 -0.26149068244E+02  0.82263214165E+02 -0.60234558878E+02  0.10525783704E+03  0.00000000000E+00 0. -1.
          1    1    1    2  501    0 -0.44495195595E+02  0.11734415931E+02 -0.54210210120E+02  0.71107424574E+02  0.00000000000E+00 0. -1.
<scales pt_clust_3="54.50935" pt_clust_4="14000.00000" pt_clust_5="114.79994" pt_clust_6="46.01651"></scales>
<clustering>
<clus scale="   46.017">  2  6  1 -1</clus>
<clus scale="   54.509">  1  3  2 -1</clus>
<clus scale="  114.800">  2  5  1 -1</clus>
<clus scale="   54.509">  1  3  2 -1</clus>
</clustering>
</event>
<event>
 6    0  0.1361744E+002  0.1304835E+03  0.7546771E-02  0.1226740E+00
         -1   -1    0    0    0  501 -0.00000000000E+00  0.00000000000E+00  0.18168556778E+03  0.18168556778E+03  0.00000000000E+00 0.  1.
         21   -1    0    0  503  502  0.00000000000E+00 -0.00000000000E+00 -0.15758971279E+03  0.15758971279E+03  0.00000000000E+00 0.  1.
         21    1    1    2  503  504  0.50295169442E+02 -0.27549531568E+02 -0.42309944618E+02  0.71265083824E+02  0.00000000000E+00 0.  1.
         21    1    1    2  504  501  0.70339227561E+02  0.75858523908E+01 -0.55131840426E+02  0.89692095076E+02  0.00000000000E+00 0.  1.
         21    1    1    2  505  502 -0.48732077994E+02  0.28492988075E+01  0.20058253519E+02  0.52775633237E+02  0.00000000000E+00 0. -1.
         -1    1    1    2    0  505 -0.71902319009E+02  0.17114380370E+02  0.10147938652E+03  0.12554246844E+03  0.00000000000E+00 0.  1.
<scales pt_clust_3="34.41428" pt_clust_4="128.11055" pt_clust_5="37.01734" pt_clust_6="37.01734"></scales>
<clustering>
<clus scale="   34.414">  3  4 -1 -1</clus>
<clus scale="   37.017">  5  6 -1 -1</clus>
<clus scale="  128.111">  2  3  1 -1</clus>
<clus scale="  128.111">  2  3  1 -1</clus>
</clustering>
</event>
<event>
 6    0  0.1361744E+002  0.2312527E+03  0.7546771E-02  0.1125761E+00
          2   -1    0    0  505    0 -0.00000000000E+00  0.00000000000E+00  0.53666784045E+03  0.53666784045E+03  0.00000000000E+00 0.  1.
         21   -1    0    0  504  502  0.00000000000E+00 -0.00000000000E+00 -0.13152911849E+03  0.13152911849E+03  0.00000000000E+00 0.  1.
         21    1    1    2  503  502  0.74775002993E+02 -0.12014797435E+03  0.20167019860E+03  0.24636904395E+03  0.00000000000E+00 0.  1.
         21    1    1    2  504  501 -0.54027888380E+02  0.10402667573E+02  0.30376569903E+02  0.62848740755E+02  0.00000000000E+00 0. -1.
         21    1    1    2  505  503  0.40525659393E+02 -0.90392586616E+02  0.89808103674E+02  0.13371104767E+03  0.00000000000E+00 0. -1.
          2    1    1    2  501    0 -0.61272774006E+02  0.20013789340E+03  0.83283849781E+02  0.22526812656E+03  0.00000000000E+00 0.  1.
<scales pt_clust_3="36.27386" pt_clust_4="55.02025" pt_clust_5="36.27386" pt_clust_6="227.15216"></scales>
<clustering>
<clus scale="   36.274">  3  5 -1 -1</clus>
<clus scale="   55.020">  2  4  1 -1</clus>
<clus scale="  227.152">  2  6  1 -1</clus>
<clus scale="   55.020">  2  3  1 -1</clus>
</clustering>
</event>
<event>
 6    0  0.1361744E+002  0.1078022E+03  0.7546771E-02  0.1264695E+00
          2   -1    0    0  503    0 -0.00000000000E+00  0.00000000000E+00  0.10736155598E+04  0.10736155598E+04  0.00000000000E+00 0.  1.
         21   -1    0    0  504  502  0.00000000000E+00 -0.00000000000E+00 -0.18801629275E+02  0.18801629275E+02  0.00000000000E+00 0.  1.
         21    1    1    2  503  505  0.60975721432E+02  0.36325978157E+02  0.24556836085E+03  0.25561970805E+03  0.00000000000E+00 0.  1.
         21    1    1    2  504  501 -0.64442790564E+02 -0.31841517472E+02  0.33794142059E+03  0.34550131583E+03  0.00000000000E+00 0.  1.
         21    1    1    2  505  502  0.54470385606E+02 -0.33532022122E+02  0.12890325514E+03  0.14390089854E+03  0.00000000000E+00 0.  1.
          2    1    1    2  501    0 -0.51003316475E+02  0.29047561438E+02  0.34240089394E+03  0.34739526664E+03  0.00000000000E+00 0.  1.
<scales pt_clust_3="87.84597" pt_clust_4="56.46418" pt_clust_5="63.96420" pt_clust_6="56.46418"></scales>
<clustering>
<clus scale="   56.464">  4  6 -1 -1</clus>
<clus scale="   63.964">  2  5  1 -1</clus>
<clus scale="   87.846">  1  3  2 -1</clus>
<clus scale="   63.964">  2  3  1 -1</clus>
</clustering>
</event>
<event>
 6    0  0.1361744E+002  0.2284003E+03  0.7546771E-02  0.1127771E+00
          2   -1    0    0  504    0 -0.00000000000E+00  0.00000000000E+00  0.25693917344E+04  0.25693917344E+04  0.00000000000E+00 0. -1.
         21   -1    0    0  503  502  0.00000000000E+00 -0.00000000000E+00 -0.14865134803E+03  0.14865134803E+03  0.00000000000E+00 0. -1.
         21    1    1    2  503  505  0.14270408074E+02  0.46537127328E+02 -0.30854828912E+02  0.57631321638E+02  0.00000000000E+00 0.  1.
         21    1    1    2  504  502  0.28068271557E+02 -0.11783712588E+03  0.13771118915E+04  0.13824292307E+04  0.00000000000E+00 0. -1.
         21    1    1    2  505  501 -0.19890453992E+03  0.11178743017E+03  0.40872490339E+02  0.23179733823E+03  0.00000000000E+00 0. -1.
          2    1    1    2  501    0  0.15656586029E+03 -0.40487431618E+02  0.10336108334E+04  0.10461851918E+04  0.00000000000E+00 0. -1.
<scales pt_clust_3="48.67596" pt_clust_4="120.06694" pt_clust_5="228.40027" pt_clust_6="14000.00000"></scales>
<clustering>
<clus scale="   48.676">  2  3  1 -1</clus>
<clus scale="  120.067">  1  4  2 -1</clus>
<clus scale="  228.400">  2  5  1 -1</clus>
<clus scale="   48.676">  2  3  1 -1</clus>
</clustering>
</event>
<event>
 6    0  0.1361744E+002  0.7699187E+02  0.7546771E-02  0.1337812E+00
         21   -1    0    0  503  502  0.00000000000E+00  0.00000000000E+00  0.42783022342E+02  0.42783022342E+02  0.00000000000E+00 0.  1.
          3   -1    0    0  505    0 -0.00000000000E+00 -0.00000000000E+00 -0.11352719380E+04  0.11352719380E+04  0.00000000000E+00 0.  1.
         21    1    1    2  503  501  0.63221946533E+02 -0.11668065265E+03 -0.22100517606E+03  0.25778804680E+03  0.00000000000E+00 0.  1.
         21    1    1    2  504  502 -0.48296114087E+02  0.45549151092E+02 -0.31357148514E+02  0.73420096459E+02  0.00000000000E+00 0.  1.
         21    1    1    2  505  504 -0.45916101570E+02  0.44153183637E+02 -0.43452634908E+03  0.43917074134E+03  0.00000000000E+00 0.  1.
          3    1    1    2  501    0  0.30990269124E+02  0.26978317922E+02 -0.40560024199E+03  0.40767607573E+03  0.00000000000E+00 0.  1.
<scales pt_clust_3="76.99187" pt_clust_4="66.16228" pt_clust_5="14000.00000" pt_clust_6="41.08803"></scales>
<clustering>
<clus scale="   41.088">  2  6  1 -1</clus>
<clus scale="   66.162">  1  4  2 -1</clus>
<clus scale="   76.992">  1  3  2 -1</clus>
<clus scale="   66.162">  1  3  2 -1</clus>
</clustering>
</event>
<event>
 6    0  0.1361744E+002  0.1305502E+03  0.7546771E-02  0.1226642E+00
          2   -1    0    0  503    0 -0.00000000000E+00  0.00000000000E+00  0.17356988697E+04  0.17356988697E+04  0.00000000000E+00 0.  1.
         21   -1    0    0  504  502  0.00000000000E+00 -0.00000000000E+00 -0.15688431734E+04  0.15688431734E+04  0.00000000000E+00 0.  1.
         21    1    1    2  503  502 -0.59806589152E+02 -0.21470009264E+02  0.12503564599E+03  0.14025584541E+03  0.00000000000E+00 0.  1.
         21    1    1    2  504  505 -0.18729153716E+02  0.46278794139E+02 -0.76220098678E+03  0.76383430941E+03  0.00000000000E+00 0.  1.
         21    1    1    2  505  501 -0.62475423254E+02  0.46797577705E+02 -0.79239037125E+03  0.79622590528E+03  0.00000000000E+00 0.  1.
          2    1    1    2  501    0  0.14101116612E+03 -0.71606362579E+02  0.15964114083E+04  0.16042259831E+04  0.00000000000E+00 0.  1.
<scales pt_clust_3="63.54360" pt_clust_4="33.70486" pt_clust_5="33.70486" pt_clust_6="123.56034"></scales>
<clustering>
<clus scale="   33.705">  4  5 -1 -1</clus>
<clus scale="   63.544">  1  3  2 -1</clus>
<clus scale="  123.560">  1  6  2 -1</clus>
<clus scale="  130.550">  2  3  1 -1</clus>
</clustering>
</event>
<event>
 6    0  0.1361744E+002  0.1545877E+03  0.7546771E-02  0.1194946E+00
         21   -1    0    0  503  502  0.00000000000E+00  0.00000000000E+00  0.51911892333E+03  0.51911892333E+03  0.00000000000E+00 0.  1.
          2   -1    0    0  504    0 -0.00000000000E+00 -0.00000000000E+00 -0.74433506633E+03  0.74433506633E+03  0.00000000000E+00 0.  1.
         21    1    1    2  503  501 -0.61046775000E+02  0.51919082501E+02  0.39169850751E+03  0.39981248186E+03  0.00000000000E+00 0.  1.
         21    1    1    2  504  505  0.51400255225E+02 -0.84303149959E+02 -0.38281870852E+03  0.39534689948E+03  0.00000000000E+00 0.  1.
         21    1    1    2  505  502 -0.97922404203E+02  0.34119680123E+02  0.83395782531E+02  0.13307068182E+03  0.00000000000E+00 0. -1.
          2    1    1    2  501    0  0.10756892398E+03 -0.17356126656E+01 -0.31749172452E+03  0.33522392650E+03  0.00000000000E+00 0.  1.
<scales pt_clust_3="80.13925" pt_clust_4="94.88100" pt_clust_5="154.58769" pt_clust_6="14000.00000"></scales>
<clustering>
<clus scale="   80.139">  1  3  2 -1</clus>
<clus scale="   94.881">  2  4  1 -1</clus>
<clus scale="  154.588">  1  5  2 -1</clus>
<clus scale="   80.139">  1  3  2 -1</clus>
</clustering>
</event>
<event>
 6    0  0.1361744E+002  0.1604171E+03  0.7546771E-02  0.1188227E+00
         21   -1    0    0  503  502  0.00000000000E+00  0.00000000000E+00  0.20817458525E+02  0.20817458525E+02  0.00000000000E+00 0. -1.
          2   -1    0    0  504    0 -0.00000000000E+00 -0.00000000000E+00 -0.16199530676E+04  0.16199530676E+04  0.00000000000E+00 0. -1.
         21    1    1    2  503  501 -0.13097294771E+01  0.58052019737E+02 -0.22009113877E+03  0.22762219082E+03  0.00000000000E+00 0.  1.
         21    1    1    2  504  505 -0.51508752018E+02  0.72492532239E+01 -0.23792821071E+03  0.24354781185E+03  0.00000000000E+00 0.  1.
         21    1    1    2  505  502 -0.16823703735E+02 -0.14749794586E+03 -0.69179271732E+03  0.70754211520E+03  0.00000000000E+00 0. -1.
          2    1    1    2  501    0  0.69642185229E+02  0.82196672898E+02 -0.44932354224E+03  0.46205840822E+03  0.00000000000E+00 0. -1.
<scales pt_clust_3="41.55816" pt_clust_4="52.01637" pt_clust_5="150.09779" pt_clust_6="41.55816"></scales>
<clustering>
<clus scale="   41.558">  3  6 -1 -1</clus>
<clus scale="   52.016">  2  4  1 -1</clus>
<clus scale="  150.098">  2  5  1 -1</clus>
<clus scale="  160.417">  1  3  2 -1</clus>
</clustering>
</event>
<event>
 6    0  0.1361744E+002  0.1213672E+03  0.7546771E-02  0.1240858E+00
         21   -1    0    0  501  502  0.00000000000E+00  0.00000000000E+00  0.47264165546E+02  0.47264165546E+02  0.00000000000E+00 0.  1.
          1   -1    0    0  504    0 -0.00000000000E+00 -0.00000000000E+00 -0.63683397210E+03  0.63683397210E+03  0.00000000000E+00 0.  1.
         21    1    1    2  503  502 -0.19697805809E+01 -0.41828830370E+02 -0.97316531774E+01  0.42991117213E+02  0.00000000000E+00 0.  1.
         21    1    1    2  504  505 -0.31393541327E+02 -0.22361766970E+02 -0.31656789938E+03  0.31890568822E+03  0.00000000000E+00 0.  1.
         21    1    1    2  505  503 -0.24238870222E+02 -0.51117916275E+02 -0.88594063072E+02  0.10511646972E+03  0.00000000000E+00 0.  1.
          1    1    1    2  501    0  0.57602192129E+02  0.11530851362E+03 -0.17467619092E+03  0.21708486250E+03  0.00000000000E+00 0.  1.
<scales pt_clust_3="43.90110" pt_clust_4="38.54352" pt_clust_5="43.90110" pt_clust_6="108.57291"></scales>
<clustering>
<clus scale="   38.544">  2  4  1 -1</clus>
<clus scale="   43.901">  3  5 -1 -1</clus>
<clus scale="  108.573">  2  6  1 -1</clus>
<clus scale="  121.367">  1  3  2 -1</clus>
</clustering>
</event>
<event>
 6    0  0.1361744E+002  0.1318893E+03  0.7546771E-02  0.1224679E+00
          2   -1    0    0  502    0 -0.00000000000E+00  0.00000000000E+00  0.83507358939E+03  0.83507358939E+03  0.00000000000E+00 0. -1.
         21   -1    0    0  505  502  0.00000000000E+00 -0.00000000000E+00 -0.87679551612E+02  0.87679551612E+02  0.00000000000E+00 0.  1.
         21    1    1    2  503  504 -0.94154304761E+02  0.54598083043E+02  0.80088035305E+02  0.13512985302E+03  0.00000000000E+00 0.  1.
         21    1    1    2  504  501  0.83807454735E+02  0.74163936310E+01  0.41343032929E+03  0.42190440806E+03  0.00000000000E+00 0. -1.
         21    1    1    2  505  503 -0.19789497754E+02 -0.23466451225E+02 -0.49596390653E+02  0.58327527980E+02  0.00000000000E+00 0.  1.
          2    1    1    2  501    0  0.30136347780E+02 -0.38548025449E+02  0.30347206384E+03  0.30739135195E+03  0.00000000000E+00 0. -1.
<scales pt_clust_3="115.86157" pt_clust_4="49.04098" pt_clust_5="30.69688" pt_clust_6="49.04098"></scales>
<clustering>
<clus scale="   30.697">  2  5  1 -1</clus>
<clus scale="   49.041">  4  6 -1 -1</clus>
<clus scale="  115.862">  2  3  1 -1</clus>
<clus scale="   30.697">  2  3  1 -1</clus>
</clustering>
</event>
<event>
 6    0  0.1361744E+002  0.8723076E+02  0.7546771E-02  0.1309700E+00
         21   -1    0    0  504  502  0.00000000000E+00  0.00000000000E+00  0.10884670267E+03  0.10884670267E+03  0.00000000000E+00 0. -1.
          2   -1    0    0  505    0 -0.00000000000E+00 -0.00000000000E+00 -0.13139759832E+04  0.13139759832E+04  0.00000000000E+00 0. -1.
         21    1    1    2  503  502 -0.14259082692E+03  0.58356847742E+02  0.17041905542E+02  0.15500997433E+03  0.00000000000E+00 0. -1.
         21    1    1    2  504  501  0.66980478726E+02 -0.43802255871E+01 -0.46043207205E+02  0.81397468243E+02  0.00000000000E+00 0. -1.
         21    1    1    2  505  503  0.13135453850E+02 -0.70019570842E+02 -0.31874104144E+03  0.32660546834E+03  0.00000000000E+00 0. -1.
          2    1    1    2  501    0  0.62474894340E+02  0.16042948687E+02 -0.85738693742E+03  0.85980977494E+03  0.00000000000E+00 0. -1.
<scales pt_clust_3="14000.00000" pt_clust_4="75.75260" pt_clust_5="87.23076" pt_clust_6="64.50185"></scales>
<clustering>
<clus scale="   64.502">  2  6  1 -1</clus>
<clus scale="   75.753">  1  4  2 -1</clus>
<clus scale="   87.231">  2  5  1 -1</clus>
<clus scale="   75.753">  1  3  2 -1</clus>
</clustering>
</event>
<event>
 6    0  0.1361744E+002  0.2315790E+03  0.7546771E-02  0.1125533E+00
         21   -1    0    0  505  502  0.00000000000E+00  0.00000000000E+00  0.12455357638E+03  0.12455357638E+03  0.00000000000E+00 0. -1.
          1   -1    0    0  503    0 -0.00000000000E+00 -0.00000000000E+00 -0.50902394381E+03  0.50902394381E+03  0.00000000000E+00 0. -1.
         21    1    1    2  503  504 -0.74256792609E+02 -0.48301603118E+02  0.18779303004E+02  0.90552627426E+02  0.00000000000E+00 0. -1.
         21    1    1    2  504  502 -0.38465355791E+02 -0.12370846450E+03 -0.67558882168E+02  0.14610807762E+03  0.00000000000E+00 0. -1.
         21    1    1    2  505  501  0.70041887676E+02  0.63208470502E+02 -0.16450462758E+03  0.18963899722E+03  0.00000000000E+00 0. -1.
          1    1    1    2  501    0  0.42680260724E+02  0.10880159712E+03 -0.17118616069E+03  0.20727781792E+03  0.00000000000E+00 0. -1.
<scales pt_clust_3="88.03803" pt_clust_4="88.03803" pt_clust_5="45.46748" pt_clust_6="211.78917"></scales>
<clustering>
<clus scale="   45.467">  5  6 -1 -1</clus>
<clus scale="   88.038">  3  4 -1 -1</clus>
<clus scale="  211.789">  2  5  1 -1</clus>
<clus scale="  231.579">  1  3  2 -1</clus>
</clustering>
</event>
<event>
 6    0  0.1361744E+002  0.4061583E+03  0.7546771E-02  0.1041668E+00
         21   -1    0    0  504  502  0.00000000000E+00  0.00000000000E+00  0.82525991019E+03  0.82525991019E+03  0.00000000000E+00 0. -1.
          2   -1    0    0  505    0 -0.00000000000E+00 -0.00000000000E+00 -0.12064813083E+04  0.12064813083E+04  0.00000000000E+00 0.  1.
         21    1    1    2  503  502 -0.20298688763E+03 -0.11513506807E+02  0.37820385989E+03  0.42938839880E+03  0.00000000000E+00 0. -1.
         21    1    1    2  504  501  0.62110088831E+02  0.28797093776E+02 -0.19229744552E+03  0.20412065867E+03  0.00000000000E+00 0. -1.
         21    1    1    2  505  503 -0.19454032184E+03  0.21788665748E+02  0.36095717145E+03  0.41062240854E+03  0.00000000000E+00 0. -1.
          2    1    1    2  501    0  0.33541712064E+03 -0.39072252717E+02 -0.92808498395E+03  0.98760975248E+03  0.00000000000E+00 0.  1.
<scales pt_clust_3="399.07283" pt_clust_4="37.21451" pt_clust_5="32.92154" pt_clust_6="37.21451"></scales>
<clustering>
<clus scale="   32.922">  3  5 -1 -1</clus>
<clus scale="   37.215">  4  6 -1 -1</clus>
<clus scale="  399.073">  1  3  2 -1</clus>
<clus scale="  399.073">  1  3  2 -1</clus>
</clustering>
</event>
<event>
 6    0  0.1361744E+002  0.1291465E+03  0.7546771E-02  0.1228728E+00
          2   -1    0    0  503    0 -0.00000000000E+00  0.00000000000E+00  0.20946956868E+04  0.20946956868E+04  0.00000000000E+00 0.  1.
         21   -1    0    0  504  502  0.00000000000E+00 -0.00000000000E+00 -0.21317317645E+02  0.21317317645E+02  0.00000000000E+00 0. -1.
         21    1    1    2  503  502 -0.12637533057E+01  0.38581616875E+02  0.17966465285E+03  0.18376486529E+03  0.00000000000E+00 0.  1.
         21    1    1    2  504  505 -0.58226646268E+02  0.70006509220E+02  0.10668867097E+03  0.14026306065E+03  0.00000000000E+00 0. -1.
         21    1    1    2  505  501  0.34550611454E+02 -0.52853749740E+02  0.58231289225E+03  0.58572653012E+03  0.00000000000E+00 0.  1.
          2    1    1    2  501    0  0.24939788120E+02 -0.55734376355E+02  0.12047121531E+04  0.12062585484E+04  0.00000000000E+00 0.  1.
<scales pt_clust_3="38.60231" pt_clust_4="119.40395" pt_clust_5="48.95506" pt_clust_6="48.95506"></scales>
<clustering>
<clus scale="   38.602">  2  3  1 -1</clus>
<clus scale="   48.955">  5  6 -1 -1</clus>
<clus scale="  119.404">  2  4  1 -1</clus>
<clus scale="   38.602">  2  3  1 -1</clus>
</clustering>
</event>
<event>
 6    0  0.1361744E+002  0.1358831E+03  0.7546771E-02  0.1218978E+00
          3   -1    0    0  503    0 -0.00000000000E+00  0.00000000000E+00  0.16609881552E+04  0.16609881552E+04  0.00000000000E+00 0. -1.
         21   -1    0    0  504  502  0.00000000000E+00 -0.00000000000E+00 -0.27357122007E+02  0.27357122007E+02  0.00000000000E+00 0. -1.
         21    1    1    2  503  502  0.29914521491E+02  0.11452256684E+02  0.18486056407E+03  0.18761519376E+03  0.00000000000E+00 0. -1.
         21    1    1    2  504  505 -0.55572094345E+01 -0.51219090381E+02  0.71517243334E+02  0.88141896339E+02  0.00000000000E+00 0. -1.
         21    1    1    2  505  501 -0.62472392841E+02 -0.61301489463E+02  0.10922239944E+03  0.13996501355E+03  0.00000000000E+00 0. -1.
          3    1    1    2  501    0  0.38115080784E+02  0.10106832316E+03  0.12680308264E+04  0.12726231736E+04  0.00000000000E+00 0. -1.
<scales pt_clust_3="32.03175" pt_clust_4="35.20552" pt_clust_5="35.20552" pt_clust_6="128.01247"></scales>
<clustering>
<clus scale="   32.032">  1  3  2 -1</clus>
<clus scale="   35.206">  4  5 -1 -1</clus>
<clus scale="  128.012">  1  6  2 -1</clus>
<clus scale="  135.883">  2  3  1 -1</clus>
</clustering>
</event>
<event>
 6    0  0.1361744E+002  0.6631419E+02  0.7546771E-02  0.1373095E+00
         21   -1    0    0  505  502  0.00000000000E+00  0.00000000000E+00  0.20327269520E+03  0.20327269520E+03  0.00000000000E+00 0.  1.
          1   -1    0    0  504    0 -0.00000000000E+00 -0.00000000000E+00 -0.72276847580E+03  0.72276847580E+03  0.00000000000E+00 0.  1.
         21    1    1    2  503  502 -0.51835025037E+01 -0.96357881319E+02  0.15058453455E+03  0.17885025031E+03  0.00000000000E+00 0.  1.
         21    1    1    2  504  503 -0.91149800809E+00 -0.40977853878E+02 -0.13934392846E+03  0.14524718839E+03  0.00000000000E+00 0.  1.
         21    1    1    2  505  501  0.24220072749E+02  0.35757656484E+02  0.15622505807E+02  0.45926948613E+02  0.00000000000E+00 0. -1.
          1    1    1    2  501    0 -0.18125072238E+02  0.10157807871E+03 -0.54635889250E+03  0.55601678368E+03  0.00000000000E+00 0.  1.
<scales pt_clust_3="14000.00000" pt_clust_4="40.98799" pt_clust_5="42.29323" pt_clust_6="66.31419"></scales>
<clustering>
<clus scale="   40.988">  2  4  1 -1</clus>
<clus scale="   42.293">  1  5  2 -1</clus>
<clus scale="   66.314">  2  6  1 -1</clus>
<clus scale="   42.293">  1  3  2 -1</clus>
</clustering>
</event>
<event>
 6    0  0.1361744E+002  0.1368456E+03  0.7546771E-02  0.1217638E+00
         21   -1    0    0  501  502  0.00000000000E+00  0.00000000000E+00  0.12795469993E+02  0.12795469993E+02  0.00000000000E+00 0. -1.
          1   -1    0    0  505    0 -0.00000000000E+00 -0.00000000000E+00 -0.31008338101E+04  0.31008338101E+04  0.00000000000E+00 0. -1.
         21    1    1    2  503  504  0.10227373799E+03  0.17172900389E+02 -0.36925838692E+03  0.38354475918E+03  0.00000000000E+00 0. -1.
         21    1    1    2  504  502  0.23248944718E+02  0.32208253981E+02 -0.14082070465E+03  0.14631594551E+03  0.00000000000E+00 0. -1.
         21    1    1    2  505  503 -0.49690460825E+02  0.32098730308E+02 -0.69011448489E+03  0.69264527187E+03  0.00000000000E+00 0. -1.
          1    1    1    2  501    0 -0.75832221878E+02 -0.81479884678E+02 -0.18878447637E+04  0.18911233036E+04  0.00000000000E+00 0. -1.
<scales pt_clust_3="30.17553" pt_clust_4="30.17553" pt_clust_5="59.15632" pt_clust_6="127.86511"></scales>
<clustering>
<clus scale="   30.176">  3  4 -1 -1</clus>
<clus scale="   59.156">  2  5  1 -1</clus>
<clus scale="  127.865">  2  6  1 -1</clus>
<clus scale="  136.846">  1  3  2 -1</clus>
</clustering>
</event>
<event>
 6    0  0.1361744E+002  0.1696978E+03  0.7546771E-02  0.1178163E+00
         21   -1    0    0  505  502  0.00000000000E+00  0.00000000000E+00  0.12145480538E+03  0.12145480538E+03  0.00000000000E+00 0.  1.
         -1   -1    0    0    0  501 -0.00000000000E+00 -0.00000000000E+00 -0.35700895587E+03  0.35700895587E+03  0.00000000000E+00 0.  1.
         21    1    1    2  503  502  0.10501289634E+03  0.50279356049E+02 -0.29113222130E+02  0.12001375648E+03  0.00000000000E+00 0.  1.
         21    1    1    2  504  501  0.34955287157E+02 -0.65239045864E+02 -0.49418861806E+02  0.88995669039E+02  0.00000000000E+00 0.  1.
         21    1    1    2  505  504 -0.17782974111E+03  0.88568057412E+01 -0.11215028000E+03  0.21042705419E+03  0.00000000000E+00 0.  1.
         -1    1    1    2    0  503  0.37861557607E+02  0.61028840736E+01 -0.44871786550E+02  0.59027281546E+02  0.00000000000E+00 0.  1.
<scales pt_clust_3="31.38180" pt_clust_4="74.01355" pt_clust_5="160.64712" pt_clust_6="31.38180"></scales>
<clustering>
<clus scale="   31.382">  3  6 -1 -1</clus>
<clus scale="   74.014">  2  4  1 -1</clus>
<clus scale="  160.647">  2  5  1 -1</clus>
<clus scale="  169.698">  1  3  2 -1</clus>
</clustering>
</event>
<event>
 6    0  0.1361744E+002  0.3090101E+03  0.7546771E-02  0.1080821E+00
          1   -1    0    0  504    0 -0.00000000000E+00  0.00000000000E+00  0.30424368824E+03  0.30424368824E+03  0.00000000000E+00 0.  1.
         21   -1    0    0  505  502  0.00000000000E+00 -0.00000000000E+00 -0.63195813316E+03  0.63195813316E+03  0.00000000000E+00 0. -1.
         21    1    1    2  503  502 -0.32706256114E+02 -0.12975538432E+01 -0.17653186415E+02  0.37188947627E+02  0.00000000000E+00 0. -1.
         21    1    1    2  504  503  0.11305053890E+03 -0.77849088005E+02  0.10178309649E+02  0.13763903093E+03  0.00000000000E+00 0. -1.
         21    1    1    2  505  501 -0.34653877136E+02  0.33313025259E+03 -0.36944448057E+03  0.49866409597E+03  0.00000000000E+00 0. -1.
          1    1    1    2  501    0 -0.45690405648E+02 -0.25398361074E+03  0.49204912413E+02  0.26270974687E+03  0.00000000000E+00 0.  1.
<scales pt_clust_3="32.73198" pt_clust_4="134.51593" pt_clust_5="309.01005" pt_clust_6="14000.00000"></scales>
<clustering>
<clus scale="   32.732">  2  3  1 -1</clus>
<clus scale="  134.516">  1  4  2 -1</clus>
<clus scale="  309.010">  2  5  1 -1</clus>
<clus scale="   32.732">  2  3  1 -1</clus>
</clustering>
</event>
<event>
 6    0  0.1361744E+002  0.1509719E+03  0.7546771E-02  0.1199284E+00
         21   -1    0    0  501  502  0.00000000000E+00  0.00000000000E+00  0.94370958980E+02  0.94370958980E+02  0.00000000000E+00 0.  1.
          2   -1    0    0  503    0 -0.00000000000E+00 -0.00000000000E+00 -0.12305512500E+04  0.12305512500E+04  0.00000000000E+00 0.  1.
         21    1    1    2  503  504 -0.65610419034E+01  0.31562081425E+02 -0.82435022163E+02  0.88514095678E+02  0.00000000000E+00 0. -1.
         21    1    1    2  504  505 -0.67506689889E+02  0.92433111269E+01  0.26093480617E+02  0.72962056654E+02  0.00000000000E+00 0.  1.
         21    1    1    2  505  502 -0.75218051119E+02 -0.23894609305E+02 -0.60018839815E+01  0.79150048511E+02  0.00000000000E+00 0.  1.
          2    1    1    2  501    0  0.14928578291E+03 -0.16910783247E+02 -0.10738368655E+04  0.10842960081E+04  0.00000000000E+00 0.  1.
<scales pt_clust_3="32.23682" pt_clust_4="43.17918" pt_clust_5="43.17918" pt_clust_6="143.67712"></scales>
<clustering>
<clus scale="   32.237">  2  3  1 -1</clus>
<clus scale="   43.179">  4  5 -1 -1</clus>
<clus scale="  143.677">  2  6  1 -1</clus>
<clus scale="  150.972">  1  3  2 -1</clus>
</clustering>
</event>
<event>
 6    0  0.1361744E+002  0.1040224E+03  0.7546771E-02  0.1272058E+00
         21   -1    0    0  505  502  0.00000000000E+00  0.00000000000E+00  0.19337641605E+03  0.19337641605E+03  0.00000000000E+00 0.  1.
          2   -1    0    0  503    0 -0.00000000000E+00 -0.00000000000E+00 -0.34313733249E+03  0.34313733249E+03  0.00000000000E+00 0.  1.
         21    1    1    2  503  502 -0.20078761731E+02 -0.30186216595E+02 -0.42686794886E+02  0.56004703398E+02  0.00000000000E+00 0.  1.
         21    1    1    2  504  501  0.30643110785E+01  0.12718797217E+03  0.11461033821E+03  0.17123580201E+03  0.00000000000E+00 0.  1.
         21    1    1    2  505  504  0.37990703123E+02 -0.27763607985E+02  0.24238059146E+02  0.52930095062E+02  0.00000000000E+00 0.  1.
          2    1    1    2  501    0 -0.20976252470E+02 -0.69238147587E+02 -0.24592251891E+03  0.25634314806E+03  0.00000000000E+00 0.  1.
<scales pt_clust_3="36.25416" pt_clust_4="104.02241" pt_clust_5="47.16563" pt_clust_6="14000.00000"></scales>
<clustering>
<clus scale="   36.254">  2  3  1 -1</clus>
<clus scale="   47.166">  1  5  2 -1</clus>
<clus scale="  104.022">  1  4  2 -1</clus>
<clus scale="   47.166">  1  3  2 -1</clus>
</clustering>
</event>
<event>
 6    0  0.1521626E+002  0.1492692E+03  0.7546771E-02  0.1201374E+00
         -1   -1    0    0    0  501 -0.00000000000E+00  0.00000000000E+00  0.27945250329E+03  0.27945250329E+03  0.00000000000E+00 0.  1.
         21   -1    0    0  504  502  0.00000000000E+00 -0.00000000000E+00 -0.44143177340E+03  0.44143177340E+03  0.00000000000E+00 0. -1.
         21    1    1    2  503  502 -0.47810028703E+02 -0.10601971797E+03 -0.33959963282E+03  0.35896224043E+03  0.00000000000E+00 0. -1.
         21    1    1    2  504  501  0.80551656781E+01  0.31603532491E+02  0.80176041358E+01  0.33584980811E+02  0.00000000000E+00 0.  1.
         21    1    1    2  505  503 -0.31328642833E+02 -0.91040946963E+01 -0.63127365282E+02  0.71059360041E+02  0.00000000000E+00 0. -1.
         -1    1    1    2    0  505  0.71083505858E+02  0.83520280172E+02  0.23273012385E+03  0.25727769541E+03  0.00000000000E+00 0.  1.
<scales pt_clust_3="30.02232" pt_clust_4="32.61394" pt_clust_5="30.02232" pt_clust_6="138.08755"></scales>
<clustering>
<clus scale="   30.022">  3  5 -1 -1</clus>
<clus scale="   32.614">  1  4  2 -1</clus>
<clus scale="  138.088">  1  6  2 -1</clus>
<clus scale="  149.269">  2  3  1 -1</clus>
</clustering>
</event>
<event>
 6    0  0.1361744E+002  0.1062784E+03  0.7546771E-02  0.1267621E+00
         21   -1    0    0  503  502  0.00000000000E+00  0.00000000000E+00  0.58353487582E+03  0.58353487582E+03  0.00000000000E+00 0. -1.
          3   -1    0    0  504    0 -0.00000000000E+00 -0.00000000000E+00 -0.52849456014E+02  0.52849456014E+02  0.00000000000E+00 0.  1.
         21    1    1    2  503  505  0.15822281044E+02  0.48300645846E+02  0.24988934942E+03  0.25500585076E+03  0.00000000000E+00 0. -1.
         21    1    1    2  504  502  0.33561868270E+02  0.11329640320E+02  0.14206942120E+02  0.38165389503E+02  0.00000000000E+00 0. -1.
         21    1    1    2  505  501 -0.12843370052E+02  0.51320327804E+02  0.20388060614E+03  0.21063245182E+03  0.00000000000E+00 0. -1.
          3    1    1    2  501    0 -0.36540779263E+02 -0.11095061397E+03  0.62708522122E+02  0.13258063975E+03  0.00000000000E+00 0.  1.
<scales pt_clust_3="30.66308" pt_clust_4="35.42259" pt_clust_5="30.66308" pt_clust_6="101.56994"></scales>
<clustering>
<clus scale="   30.663">  3  5 -1 -1</clus>
<clus scale="   35.423">  2  4  1 -1</clus>
<clus scale="  101.570">  2  6  1 -1</clus>
<clus scale="  106.278">  1  3  2 -1</clus>
</clustering>
</event>
<event>
 6    0  0.1361744E+002  0.8335210E+02  0.7546771E-02  0.1319799E+00
         21   -1    0    0  501  502  0.00000000000E+00  0.00000000000E+00  0.46515144819E+02  0.46515144819E+02  0.00000000000E+00 0. -1.
          2   -1    0    0  504    0 -0.00000000000E+00 -0.00000000000E+00 -0.12993799137E+04  0.12993799137E+04  0.00000000000E+00 0. -1.
         21    1    1    2  503  505 -0.68230391930E+02  0.21760543911E+02 -0.13043407941E+03  0.14880173630E+03  0.00000000000E+00 0. -1.
         21    1    1    2  504  503 -0.32869167397E+02 -0.32926514237E+02 -0.32288481970E+03  0.32621947259E+03  0.00000000000E+00 0. -1.
         21    1    1    2  505  502  0.21460978282E+02  0.60844081085E+02  0.13148483966E+01  0.64531423494E+02  0.00000000000E+00 0. -1.
          2    1    1    2  501    0  0.79638581045E+02 -0.49678110759E+02 -0.80086071814E+03  0.80634242611E+03  0.00000000000E+00 0. -1.
<scales pt_clust_3="83.35210" pt_clust_4="46.52459" pt_clust_5="63.16003" pt_clust_6="14000.00000"></scales>
<clustering>
<clus scale="   46.525">  2  4  1 -1</clus>
<clus scale="   63.160">  1  5  2 -1</clus>
<clus scale="   83.352">  1  3  2 -1</clus>
<clus scale="   63.160">  1  3  2 -1</clus>
</clustering>
</event>
<event>
 6    0  0.1361744E+002  0.8053974E+02  0.7546771E-02  0.1327527E+00
         21   -1    0    0  503  502  0.00000000000E+00  0.00000000000E+00  0.54529531206E+02  0.54529531206E+02  0.00000000000E+00 0.  1.
          3   -1    0    0  505    0 -0.00000000000E+00 -0.00000000000E+00 -0.13800552922E+04  0.13800552922E+04  0.00000000000E+00 0.  1.
         21    1    1    2  503  501 -0.96116255794E+02 -0.56673482853E+02 -0.27404573503E+02  0.11489660106E+03  0.00000000000E+00 0.  1.
         21    1    1    2  504  502  0.34036371690E+02  0.22983154989E+02 -0.76830322828E+02  0.87118301848E+02  0.00000000000E+00 0. -1.
         21    1    1    2  505  504 -0.28198992773E+02 -0.39474333237E+02 -0.44370921399E+03  0.44635330486E+03  0.00000000000E+00 0.  1.
          3    1    1    2  501    0  0.90278876877E+02  0.73164661100E+02 -0.77758165063E+03  0.78621661559E+03  0.00000000000E+00 0.  1.
<scales pt_clust_3="14000.00000" pt_clust_4="41.06945" pt_clust_5="47.48320" pt_clust_6="80.53974"></scales>
<clustering>
<clus scale="   41.069">  1  4  2 -1</clus>
<clus scale="   47.483">  2  5  1 -1</clus>
<clus scale="   80.540">  2  6  1 -1</clus>
<clus scale="   41.069">  1  3  2 -1</clus>
</clustering>
</event>
<event>
 6    0  0.1361744E+002  0.2948046E+03  0.7546771E-02  0.1087867E+00
          2   -1    0    0  502    0 -0.00000000000E+00  0.00000000000E+00  0.84822438174E+03  0.84822438174E+03  0.00000000000E+00 0. -1.
         21   -1    0    0  503  502  0.00000000000E+00 -0.00000000000E+00 -0.27949657430E+03  0.27949657430E+03  0.00000000000E+00 0.  1.
         21    1    1    2  503  505  0.52872104702E+02  0.18647776881E+02 -0.87443479960E+01  0.56742071342E+02  0.00000000000E+00 0.  1.
         21    1    1    2  504  501  0.44452652852E+02 -0.20709966004E+03 -0.67320786841E+02  0.22225749903E+03  0.00000000000E+00 0.  1.
         21    1    1    2  505  504 -0.47859983073E+02 -0.81493019798E+02 -0.46220744853E+02  0.10520478844E+03  0.00000000000E+00 0. -1.
          2    1    1    2  501    0 -0.49464774481E+02  0.26994490296E+03  0.69101368713E+03  0.74351659723E+03  0.00000000000E+00 0. -1.
<scales pt_clust_3="56.06424" pt_clust_4="65.68121" pt_clust_5="65.68121" pt_clust_6="275.44001"></scales>
<clustering>
<clus scale="   56.064">  2  3  1 -1</clus>
<clus scale="   65.681">  4  5 -1 -1</clus>
<clus scale="  275.440">  1  6  2 -1</clus>
<clus scale="   56.064">  2  3  1 -1</clus>
</clustering>
</event>
<event>
 6    0  0.1361744E+002  0.2863679E+03  0.7546771E-02  0.1092261E+00
         21   -1    0    0  503  502  0.00000000000E+00  0.00000000000E+00  0.78243118280E+02  0.78243118280E+02  0.00000000000E+00 0.  1.
          1   -1    0    0  505    0 -0.00000000000E+00 -0.00000000000E+00 -0.42500889941E+04  0.42500889941E+04  0.00000000000E+00 0.  1.
         21    1    1    2  503  504  0.60710080058E+02 -0.67272037131E+02 -0.48693746685E+02  0.10287041249E+03  0.00000000000E+00 0.  1.
         21    1    1    2  504  501  0.21184116285E+03 -0.65641620003E+02 -0.26757598178E+03  0.34753763333E+03  0.00000000000E+00 0.  1.
         21    1    1    2  505  502 -0.17554777906E+03 -0.29913940698E+02 -0.27859520731E+04  0.27916376592E+04  0.00000000000E+00 0.  1.
          1    1    1    2  501    0 -0.97003463850E+02  0.16282759783E+03 -0.10696240743E+04  0.10862864074E+04  0.00000000000E+00 0.  1.
<scales pt_clust_3="66.70675" pt_clust_4="66.70675" pt_clust_5="178.07826" pt_clust_6="266.67570"></scales>
<clustering>
<clus scale="   66.707">  3  4 -1 -1</clus>
<clus scale="  178.078">  2  5  1 -1</clus>
<clus scale="  266.676">  2  6  1 -1</clus>
<clus scale="  286.368">  1  3  2 -1</clus>
</clustering>
</event>
<event>
 6    0  0.1361744E+002  0.1956102E+03  0.7546771E-02  0.1153496E+00
         21   -1    0    0  505  502  0.00000000000E+00  0.00000000000E+00  0.70131315843E+02  0.70131315843E+02  0.00000000000E+00 0.  1.
          2   -1    0    0  504    0 -0.00000000000E+00 -0.00000000000E+00 -0.96342610135E+03  0.96342610135E+03  0.00000000000E+00 0.  1.
         21    1    1    2  503  502  0.14080705606E+02  0.34037836895E+02  0.25119720434E+01  0.36920869633E+02  0.00000000000E+00 0.  1.
         21    1    1    2  504  503 -0.17862353670E+02  0.14138239976E+03 -0.12638818905E+03  0.19047840028E+03  0.00000000000E+00 0.  1.
         21    1    1    2  505  501  0.32271360650E+02  0.47651052290E+01 -0.29163840618E+02  0.43757017101E+02  0.00000000000E+00 0.  1.
          2    1    1    2  501    0 -0.28489712586E+02 -0.18018534188E+03 -0.74025472788E+03  0.76240113018E+03  0.00000000000E+00 0.  1.
<scales pt_clust_3="40.83767" pt_clust_4="40.83767" pt_clust_5="32.62127" pt_clust_6="180.78939"></scales>
<clustering>
<clus scale="   32.621">  1  5  2 -1</clus>
<clus scale="   40.838">  3  4 -1 -1</clus>
<clus scale="  180.789">  2  6  1 -1</clus>
<clus scale="   32.621">  1  3  2 -1</clus>
</clustering>
</event>
<event>
 6    0  0.1361744E+002  0.7047453E+02  0.7546771E-02  0.1358487E+00
         21   -1    0    0  501  502  0.00000000000E+00  0.00000000000E+00  0.14197916336E+04  0.14197916336E+04  0.00000000000E+00 0. -1.
          2   -1    0    0  503    0 -0.00000000000E+00 -0.00000000000E+00 -0.11326850707E+04  0.11326850707E+04  0.00000000000E+00 0.  1.
         21    1    1    2  503  505  0.44325464236E+02  0.44110028063E+02 -0.10606879253E+04  0.10625296779E+04  0.00000000000E+00 0.  1.
         21    1    1    2  504  502  0.35605482197E+02  0.59597695388E+02  0.13112150953E+04  0.13130516600E+04  0.00000000000E+00 0. -1.
         21    1    1    2  505  504 -0.61572911589E+02 -0.77559278270E+02  0.76950524286E+02  0.12541151572E+03  0.00000000000E+00 0.  1.
          2    1    1    2  501    0 -0.18358034844E+02 -0.26148445180E+02 -0.40371131386E+02  0.51483850653E+02  0.00000000000E+00 0.  1.
<scales pt_clust_3="32.26876" pt_clust_4="70.47453" pt_clust_5="14000.00000" pt_clust_6="31.94931"></scales>
<clustering>
<clus scale="   31.949">  2  6  1 -1</clus>
<clus scale="   32.269">  2  3  1 -1</clus>
<clus scale="   70.475">  1  4  2 -1</clus>
<clus scale="   70.475">  1  3  2 -1</clus>
</clustering>
</event>
<event>
 6    0  0.1361744E+002  0.1607384E+03  0.7546771E-02  0.1187866E+00
          2   -1    0    0  504    0 -0.00000000000E+00  0.00000000000E+00  0.13180556980E+04  0.13180556980E+04  0.00000000000E+00 0. -1.
         21   -1    0    0  505  502  0.00000000000E+00 -0.00000000000E+00 -0.11437371754E+03  0.11437371754E+03  0.00000000000E+00 0.  1.
         21    1    1    2  503  501 -0.92897607790E+02 -0.22706906136E+02 -0.28209762832E+02  0.99706368093E+02  0.00000000000E+00 0.  1.
         21    1    1    2  504  502  0.33428044338E+02  0.51741088511E+02  0.25501893885E+03  0.26235326101E+03  0.00000000000E+00 0.  1.
         21    1    1    2  505  503 -0.64115978791E+02  0.19351413928E+02 -0.15843267928E+02  0.68821109378E+02  0.00000000000E+00 0.  1.
          2    1    1    2  501    0  0.12358554224E+03 -0.48385596303E+02  0.99271607238E+03  0.10015486771E+04  0.00000000000E+00 0. -1.
<scales pt_clust_3="35.46805" pt_clust_4="61.60012" pt_clust_5="35.46805" pt_clust_6="155.05003"></scales>
<clustering>
<clus scale="   35.468">  3  5 -1 -1</clus>
<clus scale="   61.600">  1  4  2 -1</clus>
<clus scale="  155.050">  1  6  2 -1</clus>
<clus scale="  160.738">  2  3  1 -1</clus>
</clustering>
</event>
<event>
 6    0  0.1361744E+002  0.1399179E+03  0.7546771E-02  0.1213439E+00
         21   -1    0    0  503  502  0.00000000000E+00  0.00000000000E+00  0.31197358180E+03  0.31197358180E+03  0.00000000000E+00 0. -1.
         -3   -1    0    0    0  501 -0.00000000000E+00 -0.00000000000E+00 -0.26141400818E+03  0.26141400818E+03  0.00000000000E+00 0.  1.
         21    1    1    2  503  501  0.13280264630E+03  0.24981563287E+02  0.16267143962E+03  0.21147722959E+03  0.00000000000E+00 0. -1.
         21    1    1    2  504  502 -0.40443477832E+02  0.65560824236E+02  0.87972837525E+02  0.11693210302E+03  0.00000000000E+00 0. -1.
         21    1    1    2  505  504 -0.34767628023E+02 -0.12707511761E+01 -0.42431626149E+02  0.54871173348E+02  0.00000000000E+00 0.  1.
         -3    1    1    2    0  505 -0.57591540446E+02 -0.89271636347E+02 -0.15765307738E+03  0.19010708402E+03  0.00000000000E+00 0.  1.
<scales pt_clust_3="127.76818" pt_clust_4="77.03179" pt_clust_5="32.63563" pt_clust_6="32.63563"></scales>
<clustering>
<clus scale="   32.636">  5  6 -1 -1</clus>
<clus scale="   77.032">  1  4  2 -1</clus>
<clus scale="  127.768">  1  3  2 -1</clus>
<clus scale="   77.032">  1  3  2 -1</clus>
</clustering>
</event>
<event>
 6    0  0.1361744E+002  0.1454299E+03  0.7546771E-02  0.1206204E+00
          2   -1    0    0  505    0 -0.00000000000E+00  0.00000000000E+00  0.13951651764E+03  0.13951651764E+03  0.00000000000E+00 0. -1.
         21   -1    0    0  501  502  0.00000000000E+00 -0.00000000000E+00 -0.56996990803E+03  0.56996990803E+03  0.00000000000E+00 0. -1.
         21    1    1    2  503  502 -0.39043486556E+02 -0.21165993581E+02 -0.14152535408E+03  0.14833010137E+03  0.00000000000E+00 0. -1.
         21    1    1    2  504  503 -0.14627728326E+02 -0.10416640708E+03 -0.35225697344E+03  0.36762696601E+03  0.00000000000E+00 0. -1.
         21    1    1    2  505  504  0.72012404360E+01  0.53586292203E+02 -0.34095287603E+02  0.63920553913E+02  0.00000000000E+00 0. -1.
          2    1    1    2  501    0  0.46469974446E+02  0.71746108458E+02  0.97424224737E+02  0.12960880437E+03  0.00000000000E+00 0. -1.
<scales pt_clust_3="40.06495" pt_clust_4="40.06495" pt_clust_5="54.06800" pt_clust_6="131.71167"></scales>
<clustering>
<clus scale="   40.065">  3  4 -1 -1</clus>
<clus scale="   54.068">  1  5  2 -1</clus>
<clus scale="  131.712">  1  6  2 -1</clus>
<clus scale="  145.430">  2  3  1 -1</clus>
</clustering>
</event>
<event>
 6    0  0.1361744E+002  0.1909862E+03  0.7546771E-02  0.1157575E+00
         21   -1    0    0  501  502  0.00000000000E+00  0.00000000000E+00  0.26504037793E+03  0.26504037793E+03  0.00000000000E+00 0. -1.
          2   -1    0    0  504    0 -0.00000000000E+00 -0.00000000000E+00 -0.12006643818E+04  0.12006643818E+04  0.00000000000E+00 0.  1.
         21    1    1    2  503  505  0.99879028394E+01 -0.61235872090E+02  0.51787959108E+02  0.80818209225E+02  0.00000000000E+00 0.  1.
         21    1    1    2  504  503 -0.28623144983E+02 -0.19093949427E+02 -0.96816497338E+02  0.10274871041E+03  0.00000000000E+00 0.  1.
         21    1    1    2  505  502  0.72409480415E+02 -0.10385469589E+03  0.16571431899E+03  0.20854296015E+03  0.00000000000E+00 0. -1.
          2    1    1    2  501    0 -0.53774238271E+02  0.18418451741E+03 -0.10563097846E+04  0.10735948799E+04  0.00000000000E+00 0.  1.
<scales pt_clust_3="34.14066" pt_clust_4="34.40732" pt_clust_5="34.14066" pt_clust_6="184.65453"></scales>
<clustering>
<clus scale="   34.141">  3  5 -1 -1</clus>
<clus scale="   34.407">  2  4  1 -1</clus>
<clus scale="  184.655">  2  6  1 -1</clus>
<clus scale="  190.986">  1  3  2 -1</clus>
</clustering>
</event>
<event>
 6    0  0.1361744E+002  0.1712668E+03  0.7546771E-02  0.1176533E+00
          2   -1    0    0  503    0 -0.00000000000E+00  0.00000000000E+00  0.64394995531E+03  0.64394995531E+03  0.00000000000E+00 0. -1.
         21   -1    0    0  501  502  0.00000000000E+00 -0.00000000000E+00 -0.17017233629E+03  0.17017233629E+03  0.00000000000E+00 0.  1.
         21    1    1    2  503  504 -0.27958876513E+02 -0.33143022209E+02  0.37068771728E+02  0.57046056257E+02  0.00000000000E+00 0.  1.
         21    1    1    2  504  505  0.83039835462E+02 -0.58690985289E+02 -0.76242000741E+02  0.12709480204E+03  0.00000000000E+00 0.  1.
         21    1    1    2  505  502  0.62595116594E+02 -0.24589004949E+02 -0.21402533710E+02  0.70575039744E+02  0.00000000000E+00 0.  1.
          2    1    1    2  501    0 -0.11767607554E+03  0.11642301245E+03  0.53435338174E+03  0.55940639356E+03  0.00000000000E+00 0. -1.
<scales pt_clust_3="43.36080" pt_clust_4="30.36134" pt_clust_5="30.36134" pt_clust_6="167.14812"></scales>
<clustering>
<clus scale="   30.361">  4  5 -1 -1</clus>
<clus scale="   43.361">  1  3  2 -1</clus>
<clus scale="  167.148">  1  6  2 -1</clus>
<clus scale="  171.267">  2  3  1 -1</clus>
</clustering>
</event>
<event>
 6    0  0.1361744E+002  0.8960955E+02  0.7546771E-02  0.1303800E+00
          2   -1    0    0  505    0 -0.00000000000E+00  0.00000000000E+00  0.59058628403E+02  0.59058628403E+02  0.00000000000E+00 0.  1.
         21   -1    0    0  501  502  0.00000000000E+00 -0.00000000000E+00 -0.44200654087E+03  0.44200654087E+03  0.00000000000E+00 0.  1.
         21    1    1    2  503  504  0.26905134223E+02 -0.77634207652E+02 -0.93406530497E+02  0.12440151279E+03  0.00000000000E+00 0.  1.
         21    1    1    2  504  502 -0.84145884459E+02 -0.28467586138E+02 -0.13723900801E+03  0.16347929120E+03  0.00000000000E+00 0.  1.
         21    1    1    2  505  503  0.46374695278E+02  0.44863938404E+01 -0.54927842631E+02  0.72026439506E+02  0.00000000000E+00 0.  1.
          2    1    1    2  501    0  0.10866054958E+02  0.10161539995E+03 -0.97374531327E+02  0.14115792577E+03  0.00000000000E+00 0.  1.
<scales pt_clust_3="14000.00000" pt_clust_4="77.09594" pt_clust_5="46.59120" pt_clust_6="89.60955"></scales>
<clustering>
<clus scale="   46.591">  1  5  2 -1</clus>
<clus scale="   77.096">  2  4  1 -1</clus>
<clus scale="   89.610">  2  6  1 -1</clus>
<clus scale="   77.096">  2  3  1 -1</clus>
</clustering>
</event>
<event>
 6    0  0.1361744E+002  0.1217578E+03  0.7546771E-02  0.1240225E+00
         21   -1    0    0  503  502  0.00000000000E+00  0.00000000000E+00  0.16979497790E+04  0.16979497790E+04  0.00000000000E+00 0. -1.
          2   -1    0    0  504    0 -0.00000000000E+00 -0.00000000000E+00 -0.29460599203E+02  0.29460599203E+02  0.00000000000E+00 0. -1.
         21    1    1    2  503  505 -0.51796481995E+02 -0.41407691040E+02  0.61552160368E+03  0.61908344916E+03  0.00000000000E+00 0. -1.
         21    1    1    2  504  502 -0.32423142466E+02  0.18476248943E+02  0.18217625419E+02  0.41527265962E+02  0.00000000000E+00 0. -1.
         21    1    1    2  505  501 -0.25324585488E+02 -0.43687613310E+02  0.77974062174E+03  0.78137403295E+03  0.00000000000E+00 0. -1.
          2    1    1    2  501    0  0.10954420995E+03  0.66619055407E+02  0.25500932895E+03  0.28542563011E+03  0.00000000000E+00 0. -1.
<scales pt_clust_3="31.89128" pt_clust_4="37.31798" pt_clust_5="31.89128" pt_clust_6="116.14367"></scales>
<clustering>
<clus scale="   31.891">  3  5 -1 -1</clus>
<clus scale="   37.318">  2  4  1 -1</clus>
<clus scale="  116.144">  2  6  1 -1</clus>
<clus scale="  121.758">  1  3  2 -1</clus>
</clustering>
</event>
<event>
 6    0  0.1361744E+002  0.1298863E+03  0.7546771E-02  0.1227625E+00
          3   -1    0    0  503    0 -0.00000000000E+00  0.00000000000E+00  0.22793714917E+03  0.22793714917E+03  0.00000000000E+00 0.  1.
         21   -1    0    0  505  502  0.00000000000E+00 -0.00000000000E+00 -0.22798165979E+03  0.22798165979E+03  0.00000000000E+00 0.  1.
         21    1    1    2  503  502 -0.17749070915E+02  0.64999612416E+02 -0.80709777287E+02  0.10513822940E+03  0.00000000000E+00 0.  1.
         21    1    1    2  504  501  0.11660279755E+02 -0.46252980671E+02  0.50417361766E+02  0.69406128781E+02  0.00000000000E+00 0.  1.
         21    1    1    2  505  504  0.65862622537E+02  0.47605117922E+02 -0.96603827973E+02  0.12623958127E+03  0.00000000000E+00 0.  1.
          3    1    1    2  501    0 -0.59773831377E+02 -0.66351749667E+02  0.12685173288E+03  0.15513486950E+03  0.00000000000E+00 0.  1.
<scales pt_clust_3="67.37937" pt_clust_4="46.21983" pt_clust_5="113.44977" pt_clust_6="46.21983"></scales>
<clustering>
<clus scale="   46.220">  4  6 -1 -1</clus>
<clus scale="   67.379">  2  3  1 -1</clus>
<clus scale="  113.450">  2  5  1 -1</clus>
<clus scale="   67.379">  2  3  1 -1</clus>
</clustering>
</event>
<event>
 6    0  0.1361744E+002  0.1559229E+03  0.7546771E-02  0.1193378E+00
          2   -1    0    0  505    0 -0.00000000000E+00  0.00000000000E+00  0.41866555062E+04  0.41866555062E+04  0.00000000000E+00 0. -1.
         21   -1    0    0  503  502  0.00000000000E+00 -0.00000000000E+00 -0.10349769042E+02  0.10349769042E+02  0.00000000000E+00 0.  1.
         21    1    1    2  503  501 -0.44156963423E+02  0.12421832134E+02  0.35745532739E+03  0.36038652918E+03  0.00000000000E+00 0.  1.
         21    1    1    2  504  502  0.96433689088E+02 -0.10017142670E+03  0.79710643994E+03  0.80914303292E+03  0.00000000000E+00 0.  1.
         21    1    1    2  505  504  0.44861261503E+02  0.35894191252E+00  0.40617527102E+03  0.40864533817E+03  0.00000000000E+00 0.  1.
          2    1    1    2  501    0 -0.97137987168E+02  0.87390652658E+02  0.26155686988E+04  0.26188303750E+04  0.00000000000E+00 0. -1.
<scales pt_clust_3="45.87090" pt_clust_4="40.94019" pt_clust_5="40.94019" pt_clust_6="138.26465"></scales>
<clustering>
<clus scale="   40.940">  4  5 -1 -1</clus>
<clus scale="   45.871">  2  3  1 -1</clus>
<clus scale="  138.265">  1  6  2 -1</clus>
<clus scale="   45.871">  2  3  1 -1</clus>
</clustering>
</event>
<event>
 6    0  0.1361744E+002  0.1158515E+03  0.7546771E-02  0.1250102E+00
          1   -1    0    0  503    0 -0.00000000000E+00  0.00000000000E+00  0.18030966787E+03  0.18030966787E+03  0.00000000000E+00 0.  1.
         21   -1    0    0  505  502  0.00000000000E+00 -0.00000000000E+00 -0.51634126337E+03  0.51634126337E+03  0.00000000000E+00 0.  1.
         21    1    1    2  503  504  0.40340678135E+02  0.29719564395E+02  0.12325030634E+02  0.51599701552E+02  0.00000000000E+00 0. -1.
         21    1    1    2  504  502 -0.61642181907E+02 -0.37249373041E+02 -0.39625979306E+03  0.40275190624E+03  0.00000000000E+00 0.  1.
         21    1    1    2  505  501 -0.16941777217E+02 -0.62575543605E+02 -0.72856268015E+02  0.97523116551E+02  0.00000000000E+00 0.  1.
          1    1    1    2  501    0  0.38243280990E+02  0.70105352252E+02  0.12075943494E+03  0.14477620689E+03  0.00000000000E+00 0.  1.
<scales pt_clust_3="50.10612" pt_clust_4="115.85148" pt_clust_5="61.62147" pt_clust_6="14000.00000"></scales>
<clustering>
<clus scale="   50.106">  1  3  2 -1</clus>
<clus scale="   61.621">  2  5  1 -1</clus>
<clus scale="  115.851">  2  4  1 -1</clus>
<clus scale="   61.621">  2  3  1 -1</clus>
</clustering>
</event>
<event>
 6    0  0.1361744E+002  0.1580522E+03  0.7546771E-02  0.1190914E+00
          1   -1    0    0  503    0 -0.00000000000E+00  0.00000000000E+00  0.25780226245E+04  0.25780226245E+04  0.00000000000E+00 0.  1.
         21   -1    0    0  505  502  0.00000000000E+00 -0.00000000000E+00 -0.58583608311E+02  0.58583608311E+02  0.00000000000E+00 0. -1.
         21    1    1    2  503  502 -0.34528118677E+02  0.11643907586E+02  0.64780030969E+02  0.74325123448E+02  0.00000000000E+00 0.  1.
         21    1    1    2  504  501 -0.35202031178E+02  0.21808098258E+02  0.46483673062E+03  0.46667757851E+03  0.00000000000E+00 0.  1.
         21    1    1    2  505  504  0.96825857654E+02 -0.14322163392E+03  0.94713820644E+02  0.19712531789E+03  0.00000000000E+00 0. -1.
          1    1    1    2  501    0 -0.27095707800E+02  0.10976962808E+03  0.18951084340E+04  0.18984782130E+04  0.00000000000E+00 0.  1.
<scales pt_clust_3="36.43860" pt_clust_4="35.42812" pt_clust_5="146.81097" pt_clust_6="35.42812"></scales>
<clustering>
<clus scale="   35.428">  4  6 -1 -1</clus>
<clus scale="   36.439">  2  3  1 -1</clus>
<clus scale="  146.811">  2  5  1 -1</clus>
<clus scale="   36.439">  2  3  1 -1</clus>
</clustering>
</event>
<event>
 6    0  0.1361744E+002  0.9630201E+02  0.7546771E-02  0.1288270E+00
          2   -1    0    0  503    0 -0.00000000000E+00  0.00000000000E+00  0.12471040149E+04  0.12471040149E+04  0.00000000000E+00 0.  1.
         21   -1    0    0  501  502  0.00000000000E+00 -0.00000000000E+00 -0.29607683601E+02  0.29607683601E+02  0.00000000000E+00 0. -1.
         21    1    1    2  503  504 -0.33641666436E+02 -0.14585346056E+02  0.30603744410E+03  0.30822623385E+03  0.00000000000E+00 0.  1.
         21    1    1    2  504  505 -0.23657614687E+02  0.10384630988E+03  0.12508690702E+03  0.16428777531E+03  0.00000000000E+00 0. -1.
         21    1    1    2  505  502  0.39773964984E+02 -0.55079573436E+01  0.56431679193E+02  0.69259225387E+02  0.00000000000E+00 0. -1.
          2    1    1    2  501    0  0.17525316138E+02 -0.83753006482E+02  0.72994030095E+03  0.73493846392E+03  0.00000000000E+00 0.  1.
<scales pt_clust_3="36.66734" pt_clust_4="96.30201" pt_clust_5="38.08065" pt_clust_6="14000.00000"></scales>
<clustering>
<clus scale="   36.667">  1  3  2 -1</clus>
<clus scale="   38.081">  2  5  1 -1</clus>
<clus scale="   96.302">  2  4  1 -1</clus>
<clus scale="   38.081">  2  3  1 -1</clus>
</clustering>
</event>
<event>
 6    0  0.1361744E+002  0.8309944E+02  0.7546771E-02  0.1320479E+00
         21   -1    0    0  505  502  0.00000000000E+00  0.00000000000E+00  0.60418621178E+02  0.60418621178E+02  0.00000000000E+00 0.  1.
          2   -1    0    0  504    0 -0.00000000000E+00 -0.00000000000E+00 -0.14588435961E+04  0.14588435961E+04  0.00000000000E+00 0.  1.
         21    1    1    2  503  502 -0.14964387373E+02 -0.43353212497E+02 -0.72844234937E+02  0.86079710077E+02  0.00000000000E+00 0.  1.
         21    1    1    2  504  503  0.24372518193E+02 -0.64422338536E+02 -0.36162575616E+02  0.77794532074E+02  0.00000000000E+00 0.  1.
         21    1    1    2  505  501 -0.86390642298E+02  0.72746385666E+02 -0.69646671232E+02  0.13268774818E+03  0.00000000000E+00 0.  1.
          2    1    1    2  501    0  0.76982511478E+02  0.35029165367E+02 -0.12197714931E+04  0.12227002269E+04  0.00000000000E+00 0.  1.
<scales pt_clust_3="45.86321" pt_clust_4="83.29533" pt_clust_5="83.09944" pt_clust_6="14000.00000"></scales>
<clustering>
<clus scale="   45.863">  1  3  2 -1</clus>
<clus scale="   83.295">  1  4  2 -1</clus>
<clus scale="   83.099">  1  5  2 -1</clus>
<clus scale="   45.863">  1  3  2 -1</clus>
</clustering>
</event>
<event>
 6    0  0.1361744E+002  0.3000570E+03  0.7546771E-02  0.1085212E+00
          1   -1    0    0  505    0 -0.00000000000E+00  0.00000000000E+00  0.41338003184E+03  0.41338003184E+03  0.00000000000E+00 0.  1.
         21   -1    0    0  503  502  0.00000000000E+00 -0.00000000000E+00 -0.54342322973E+03  0.54342322973E+03  0.00000000000E+00 0.  1.
         21    1    1    2  503  504 -0.66240649666E+02 -0.41479590748E+02 -0.33960793848E+02  0.85215700640E+02  0.00000000000E+00 0. -1.
         21    1    1    2  504  501 -0.17112624894E+03 -0.12858986350E+03 -0.37272387694E+03  0.42981697792E+03  0.00000000000E+00 0.  1.
         21    1    1    2  505  502  0.28244692176E+02  0.90932686857E+02  0.16816531801E+03  0.19325136573E+03  0.00000000000E+00 0.  1.
          1    1    1    2  501    0  0.20912220643E+03  0.79136767393E+02  0.10847615489E+03  0.24851921728E+03  0.00000000000E+00 0.  1.
<scales pt_clust_3="73.01110" pt_clust_4="73.01110" pt_clust_5="95.21826" pt_clust_6="274.65370"></scales>
<clustering>
<clus scale="   73.011">  3  4 -1 -1</clus>
<clus scale="   95.218">  1  5  2 -1</clus>
<clus scale="  274.654">  1  6  2 -1</clus>
<clus scale="  300.057">  2  3  1 -1</clus>
</clustering>
</event>
<event>
 6    0  0.1361744E+002  0.1736851E+03  0.7546771E-02  0.1174058E+00
          1   -1    0    0  503    0 -0.00000000000E+00  0.00000000000E+00  0.92647448741E+03  0.92647448741E+03  0.00000000000E+00 0.  1.
         21   -1    0    0  505  502  0.00000000000E+00 -0.00000000000E+00 -0.19563877152E+03  0.19563877152E+03  0.00000000000E+00 0. -1.
         21    1    1    2  503  504 -0.50529575566E+02  0.28282203620E+02  0.15221810974E+03  0.16286028976E+03  0.00000000000E+00 0.  1.
         21    1    1    2  504  502  0.80187825684E+02  0.19215736701E+03 -0.50954307509E+02  0.21436156964E+03  0.00000000000E+00 0. -1.
         21    1    1    2  505  501  0.39546367535E+02 -0.14457499629E+03  0.52592337855E+02  0.15884520370E+03  0.00000000000E+00 0.  1.
          1    1    1    2  501    0 -0.69204617652E+02 -0.75864574340E+02  0.57697957581E+03  0.58604619583E+03  0.00000000000E+00 0.  1.
<scales pt_clust_3="57.90614" pt_clust_4="173.68510" pt_clust_5="14000.00000" pt_clust_6="120.44190"></scales>
<clustering>
<clus scale="   57.906">  1  3  2 -1</clus>
<clus scale="  120.442">  1  6  2 -1</clus>
<clus scale="  173.685">  2  4  1 -1</clus>
<clus scale="  173.685">  2  3  1 -1</clus>
</clustering>
</event>
<event>
 6    0  0.1361744E+002  0.1872976E+03  0.7546771E-02  0.1160922E+00
         21   -1    0    0  504  502  0.00000000000E+00  0.00000000000E+00  0.34746266348E+03  0.34746266348E+03  0.00000000000E+00 0. -1.
          2   -1    0    0  505    0 -0.00000000000E+00 -0.00000000000E+00 -0.40543340763E+03  0.40543340763E+03  0.00000000000E+00 0.  1.
         21    1    1    2  503  502 -0.66364162971E+02 -0.19735079014E+03  0.13720376501E+03  0.24935197940E+03  0.00000000000E+00 0. -1.
         21    1    1    2  504  501 -0.76951035914E+02  0.46239585231E+02  0.88943399978E+02  0.12637440235E+03  0.00000000000E+00 0.  1.
         21    1    1    2  505  503  0.38870311870E+02  0.77321339107E+02 -0.28099355650E+02  0.90989364291E+02  0.00000000000E+00 0.  1.
          2    1    1    2  501    0  0.10444488702E+03  0.73789865800E+02 -0.25601855349E+03  0.28618032506E+03  0.00000000000E+00 0.  1.
<scales pt_clust_3="14000.00000" pt_clust_4="90.24804" pt_clust_5="86.54184" pt_clust_6="187.29763"></scales>
<clustering>
<clus scale="   86.542">  2  5  1 -1</clus>
<clus scale="   90.248">  1  4  2 -1</clus>
<clus scale="  187.298">  2  6  1 -1</clus>
<clus scale="   90.248">  1  3  2 -1</clus>
</clustering>
</event>
<event>
 6    0  0.1361744E+002  0.2575022E+03  0.7546771E-02  0.1108653E+00
          2   -1    0    0  503    0 -0.00000000000E+00  0.00000000000E+00  0.58478184181E+03  0.58478184181E+03  0.00000000000E+00 0.  1.
         21   -1    0    0  501  502  0.00000000000E+00 -0.00000000000E+00 -0.53599748554E+03  0.53599748554E+03  0.00000000000E+00 0. -1.
         21    1    1    2  503  504 -0.11957939632E+02  0.28727994473E+02  0.34842575743E+02  0.46715041165E+02  0.00000000000E+00 0.  1.
         21    1    1    2  504  505 -0.18731368747E+03 -0.39125795079E+02 -0.41594699870E+03  0.45785276136E+03  0.00000000000E+00 0. -1.
         21    1    1    2  505  502 -0.69876594434E+02 -0.16353289494E+02 -0.33859508384E+02  0.79351337953E+02  0.00000000000E+00 0.  1.
          2    1    1    2  501    0  0.26914822154E+03  0.26751090100E+02  0.46374828762E+03  0.53686018687E+03  0.00000000000E+00 0.  1.
<scales pt_clust_3="31.11736" pt_clust_4="257.50220" pt_clust_5="71.98923" pt_clust_6="14000.00000"></scales>
<clustering>
<clus scale="   31.117">  1  3  2 -1</clus>
<clus scale="   71.989">  2  5  1 -1</clus>
<clus scale="  257.502">  2  4  1 -1</clus>
<clus scale="   71.989">  2  3  1 -1</clus>
</clustering>
</event>
<event>
 6    0  0.1361744E+002  0.2224143E+03  0.7546771E-02  0.1132096E+00
          2   -1    0    0  505    0 -0.00000000000E+00  0.00000000000E+00  0.21303743122E+04  0.21303743122E+04  0.00000000000E+00 0. -1.
         21   -1    0    0  504  502  0.00000000000E+00 -0.00000000000E+00 -0.23454845936E+02  0.23454845936E+02  0.00000000000E+00 0. -1.
         21    1    1    2  503  502 -0.84593584174E+02 -0.33669776942E+02  0.65861773539E+03  0.66488122980E+03  0.00000000000E+00 0. -1.
         21    1    1    2  504  501  0.17866912963E+03  0.31848356895E+02  0.62959754962E+03  0.65523282138E+03  0.00000000000E+00 0. -1.
         21    1    1    2  505  503 -0.11641093470E+03 -0.28370184283E+02  0.60909771018E+03  0.62077080603E+03  0.00000000000E+00 0. -1.
          2    1    1    2  501    0  0.22335389240E+02  0.30191604330E+02  0.20960647106E+03  0.21294430092E+03  0.00000000000E+00 0. -1.
<scales pt_clust_3="34.28543" pt_clust_4="32.85477" pt_clust_5="214.00632" pt_clust_6="32.85477"></scales>
<clustering>
<clus scale="   32.855">  4  6 -1 -1</clus>
<clus scale="   34.285">  3  5 -1 -1</clus>
<clus scale="  214.006">  1  3  2 -1</clus>
<clus scale="  222.414">  2  3  1 -1</clus>
</clustering>
</event>
<event>
 6    0  0.1361744E+002  0.9879494E+02  0.7546771E-02  0.1282851E+00
         -2   -1    0    0    0  501 -0.00000000000E+00  0.00000000000E+00  0.30449108623E+03  0.30449108623E+03  0.00000000000E+00 0.  1.
         21   -1    0    0  503  502  0.00000000000E+00 -0.00000000000E+00 -0.16738374186E+04  0.16738374186E+04  0.00000000000E+00 0.  1.
         21    1    1    2  503  504  0.59162219929E+02  0.97382152287E+01 -0.58409771898E+03  0.58716705155E+03  0.00000000000E+00 0.  1.
         21    1    1    2  504  505 -0.14452109767E+02  0.79833627898E+02 -0.10687208839E+04  0.10717959690E+04  0.00000000000E+00 0.  1.
         21    1    1    2  505  501 -0.48346813630E+02 -0.22019410092E+02  0.39535346241E+02  0.66221691396E+02  0.00000000000E+00 0.  1.
         -2    1    1    2    0  502  0.36367034688E+01 -0.67552433035E+02  0.24393692428E+03  0.25314379283E+03  0.00000000000E+00 0.  1.
<scales pt_clust_3="59.64561" pt_clust_4="98.79494" pt_clust_5="53.12503" pt_clust_6="14000.00000"></scales>
<clustering>
<clus scale="   53.125">  1  5  2 -1</clus>
<clus scale="   59.646">  2  3  1 -1</clus>
<clus scale="   98.795">  2  4  1 -1</clus>
<clus scale="   59.646">  2  3  1 -1</clus>
</clustering>
</event>
<event>
 6    0  0.1361744E+002  0.1074932E+03  0.7546771E-02  0.1265284E+00
         21   -1    0    0  505  502  0.00000000000E+00  0.00000000000E+00  0.16421563307E+04  0.16421563307E+04  0.00000000000E+00 0. -1.
          2   -1    0    0  504    0 -0.00000000000E+00 -0.00000000000E+00 -0.14975530138E+02  0.14975530138E+02  0.00000000000E+00 0. -1.
         21    1    1    2  503  501 -0.26534617730E+02  0.73039263651E+02  0.45368386983E+03  0.46029107499E+03  0.00000000000E+00 0. -1.
         21    1    1    2  504  502  0.61101680361E+02 -0.32616828043E+02  0.15667043802E+03  0.17129769107E+03  0.00000000000E+00 0. -1.
         21    1    1    2  505  503 -0.86712348115E+01  0.37309667596E+02  0.56868127669E+03  0.56996982031E+03  0.00000000000E+00 0.  1.
          2    1    1    2  501    0 -0.25895827819E+02 -0.77732103204E+02  0.44814521598E+03  0.45557327443E+03  0.00000000000E+00 0. -1.
<scales pt_clust_3="37.08852" pt_clust_4="69.26235" pt_clust_5="37.08852" pt_clust_6="93.61682"></scales>
<clustering>
<clus scale="   37.089">  3  5 -1 -1</clus>
<clus scale="   69.262">  2  4  1 -1</clus>
<clus scale="   93.617">  2  6  1 -1</clus>
<clus scale="  107.493">  1  3  2 -1</clus>
</clustering>
</event>
<event>
 6    0  0.1361744E+002  0.1811492E+03  0.7546771E-02  0.1166696E+00
         21   -1    0    0  505  502  0.00000000000E+00  0.00000000000E+00  0.66134256223E+03  0.66134256223E+03  0.00000000000E+00 0. -1.
         -1   -1    0    0    0  501 -0.00000000000E+00 -0.00000000000E+00 -0.55840276561E+03  0.55840276561E+03  0.00000000000E+00 0. -1.
         21    1    1    2  503  501 -0.71201086774E+02  0.11656756710E+03  0.57550281737E+03  0.59149056228E+03  0.00000000000E+00 0. -1.
         21    1    1    2  504  502  0.27414124311E+02 -0.43817112112E+02 -0.79789693614E+02  0.95067706045E+02  0.00000000000E+00 0.  1.
         21    1    1    2  505  503 -0.43518005289E+02  0.62457968656E+01  0.54874787848E+02  0.70314074723E+02  0.00000000000E+00 0. -1.
         -1    1    1    2    0  504  0.87304967752E+02 -0.78996251857E+02 -0.44764811499E+03  0.46287298480E+03  0.00000000000E+00 0. -1.
<scales pt_clust_3="167.18683" pt_clust_4="46.13621" pt_clust_5="43.96393" pt_clust_6="46.13621"></scales>
<clustering>
<clus scale="   43.964">  1  5  2 -1</clus>
<clus scale="   46.136">  4  6 -1 -1</clus>
<clus scale="  167.187">  1  3  2 -1</clus>
<clus scale="   43.964">  1  3  2 -1</clus>
</clustering>
</event>
<event>
 6    0  0.1361744E+002  0.1373730E+03  0.7546771E-02  0.1216908E+00
          2   -1    0    0  505    0 -0.00000000000E+00  0.00000000000E+00  0.11357864612E+04  0.11357864612E+04  0.00000000000E+00 0. -1.
         21   -1    0    0  501  502  0.00000000000E+00 -0.00000000000E+00 -0.19006141770E+03  0.19006141770E+03  0.00000000000E+00 0.  1.
         21    1    1    2  503  502  0.10681086451E+01 -0.69876412485E+02 -0.18567193989E+02  0.72309021363E+02  0.00000000000E+00 0.  1.
         21    1    1    2  504  503 -0.57923839151E+02 -0.74584343110E+02 -0.11988575804E+03  0.15261254981E+03  0.00000000000E+00 0.  1.
         21    1    1    2  505  504  0.50227357411E+02  0.72419985414E+02  0.28100532497E+03  0.29450201083E+03  0.00000000000E+00 0. -1.
          2    1    1    2  501    0  0.66283730951E+01  0.72040770181E+02  0.80317267059E+03  0.80642429693E+03  0.00000000000E+00 0. -1.
<scales pt_clust_3="69.88458" pt_clust_4="14000.00000" pt_clust_5="137.37301" pt_clust_6="71.56398"></scales>
<clustering>
<clus scale="   69.885">  2  3  1 -1</clus>
<clus scale="   71.564">  1  6  2 -1</clus>
<clus scale="  137.373">  1  5  2 -1</clus>
<clus scale="   69.885">  2  3  1 -1</clus>
</clustering>
</event>
<event>
 6    0  0.1361744E+002  0.1208727E+03  0.7546771E-02  0.1241664E+00
         -1   -1    0    0    0  501 -0.00000000000E+00  0.00000000000E+00  0.29724573232E+03  0.29724573232E+03  0.00000000000E+00 0. -1.
         21   -1    0    0  505  502  0.00000000000E+00 -0.00000000000E+00 -0.18346718926E+03  0.18346718926E+03  0.00000000000E+00 0. -1.
         21    1    1    2  503  504  0.30752277668E+02 -0.94679626053E+01  0.28679321571E+02  0.43102765380E+02  0.00000000000E+00 0.  1.
         21    1    1    2  504  502 -0.60917327904E+02  0.65178072882E+02 -0.48024087070E+02  0.10131838413E+03  0.00000000000E+00 0. -1.
         21    1    1    2  505  501 -0.42616613277E+02 -0.14082369968E+02 -0.88558887651E+02  0.99283258675E+02  0.00000000000E+00 0. -1.
         -1    1    1    2    0  503  0.72781663513E+02 -0.41627740308E+02  0.22168219620E+03  0.23700851339E+03  0.00000000000E+00 0. -1.
<scales pt_clust_3="30.67172" pt_clust_4="110.26699" pt_clust_5="44.88306" pt_clust_6="30.67172"></scales>
<clustering>
<clus scale="   30.672">  3  6 -1 -1</clus>
<clus scale="   44.883">  2  5  1 -1</clus>
<clus scale="  110.267">  2  4  1 -1</clus>
<clus scale="   44.883">  2  3  1 -1</clus>
</clustering>
</event>
<event>
 6    0  0.1361744E+002  0.1569748E+03  0.7546771E-02  0.1192155E+00
          4   -1    0    0  504    0 -0.00000000000E+00  0.00000000000E+00  0.13516025923E+04  0.13516025923E+04  0.00000000000E+00 0. -1.
         21   -1    0    0  503  502  0.00000000000E+00 -0.00000000000E+00 -0.34252576058E+02  0.34252576058E+02  0.00000000000E+00 0. -1.
         21    1    1    2  503  501 -0.11041982358E+03 -0.22023376229E+02  0.37585177648E+03  0.39235459016E+03  0.00000000000E+00 0.  1.
         21    1    1    2  504  505  0.31706717213E+02  0.27079077655E+02  0.12024788223E+03  0.12727193542E+03  0.00000000000E+00 0. -1.
         21    1    1    2  505  502  0.13744263092E+03  0.27500442778E+02  0.21748190709E+03  0.25873757180E+03  0.00000000000E+00 0. -1.
          4    1    1    2  501    0 -0.58729524544E+02 -0.32556144204E+02  0.60376845047E+03  0.60749107102E+03  0.00000000000E+00 0. -1.
<scales pt_clust_3="145.90949" pt_clust_4="31.57523" pt_clust_5="31.57523" pt_clust_6="67.14953"></scales>
<clustering>
<clus scale="   31.575">  4  5 -1 -1</clus>
<clus scale="   67.150">  1  6  2 -1</clus>
<clus scale="  145.909">  1  3  2 -1</clus>
<clus scale="  156.975">  2  3  1 -1</clus>
</clustering>
</event>
<event>
 6    0  0.1361744E+002  0.9827365E+02  0.7546771E-02  0.1283969E+00
         21   -1    0    0  501  502  0.00000000000E+00  0.00000000000E+00  0.27590435341E+03  0.27590435341E+03  0.00000000000E+00 0.  1.
          1   -1    0    0  505    0 -0.00000000000E+00 -0.00000000000E+00 -0.61433701311E+03  0.61433701311E+03  0.00000000000E+00 0.  1.
         21    1    1    2  503  502 -0.60171351438E+02  0.89970658314E+02  0.23367756608E+03  0.25752769906E+03  0.00000000000E+00 0.  1.
         21    1    1    2  504  503  0.43744918847E+02 -0.45379281225E+02 -0.20214431596E+02  0.66193053519E+02  0.00000000000E+00 0. -1.
         21    1    1    2  505  504 -0.29069509130E+02 -0.87390962134E+01 -0.34749430253E+02  0.46140340989E+02  0.00000000000E+00 0.  1.
          1    1    1    2  501    0  0.45495941722E+02 -0.35852280876E+02 -0.51714636393E+03  0.52038027296E+03  0.00000000000E+00 0.  1.
<scales pt_clust_3="98.27365" pt_clust_4="14000.00000" pt_clust_5="30.35471" pt_clust_6="47.78696"></scales>
<clustering>
<clus scale="   30.355">  2  5  1 -1</clus>
<clus scale="   47.787">  2  6  1 -1</clus>
<clus scale="   98.274">  1  3  2 -1</clus>
<clus scale="   98.274">  1  3  2 -1</clus>
</clustering>
</event>
<event>
 6    0  0.1361744E+002  0.1014161E+03  0.7546771E-02  0.1277346E+00
         -1   -1    0    0    0  501 -0.00000000000E+00  0.00000000000E+00  0.39722515878E+03  0.39722515878E+03  0.00000000000E+00 0. -1.
         21   -1    0    0  505  502  0.00000000000E+00 -0.00000000000E+00 -0.39842614687E+03  0.39842614687E+03  0.00000000000E+00 0. -1.
         21    1    1    2  503  501  0.56519593473E+02  0.25611197829E+02  0.36136802560E+01  0.62156709900E+02  0.00000000000E+00 0. -1.
         21    1    1    2  504  502 -0.15211413354E+03 -0.17900089379E+01 -0.18136984261E+03  0.23672121485E+03  0.00000000000E+00 0. -1.
         21    1    1    2  505  503  0.77101452986E+02  0.32525154012E+02 -0.14628671619E+03  0.16852988765E+03  0.00000000000E+00 0. -1.
         -1    1    1    2    0  504  0.18493087082E+02 -0.56346342903E+02  0.32284189045E+03  0.32824349325E+03  0.00000000000E+00 0. -1.
<scales pt_clust_3="65.00396" pt_clust_4="101.41614" pt_clust_5="14000.00000" pt_clust_6="59.30350"></scales>
<clustering>
<clus scale="   59.303">  1  6  2 -1</clus>
<clus scale="   65.004">  1  3  2 -1</clus>
<clus scale="  101.416">  1  4  2 -1</clus>
<clus scale="  101.416">  2  3  1 -1</clus>
</clustering>
</event>
<event>
 6    0  0.1361744E+002  0.7315803E+02  0.7546771E-02  0.1349672E+00
          2   -1    0    0  505    0 -0.00000000000E+00  0.00000000000E+00  0.35070326767E+03  0.35070326767E+03  0.00000000000E+00 0.  1.
         21   -1    0    0  501  502  0.00000000000E+00 -0.00000000000E+00 -0.10190983373E+03  0.10190983373E+03  0.00000000000E+00 0. -1.
         21    1    1    2  503  502 -0.29174187090E+02 -0.19740419918E+02 -0.24303714227E+02  0.42795886440E+02  0.00000000000E+00 0. -1.
         21    1    1    2  504  503 -0.59296411021E+02  0.41819739587E+02 -0.18345445301E+02  0.74843238455E+02  0.00000000000E+00 0. -1.
         21    1    1    2  505  504  0.31949584438E+02 -0.67084925379E+02  0.22450370191E+03  0.23648060244E+03  0.00000000000E+00 0. -1.
          2    1    1    2  501    0  0.56521013673E+02  0.45005605709E+02  0.66938891561E+02  0.98493374068E+02  0.00000000000E+00 0.  1.
<scales pt_clust_3="35.22524" pt_clust_4="73.15803" pt_clust_5="14000.00000" pt_clust_6="64.14816"></scales>
<clustering>
<clus scale="   35.225">  2  3  1 -1</clus>
<clus scale="   64.148">  2  6  1 -1</clus>
<clus scale="   73.158">  2  4  1 -1</clus>
<clus scale="   35.225">  2  3  1 -1</clus>
</clustering>
</event>
<event>
 6    0  0.1361744E+002  0.9371455E+02  0.7546771E-02  0.1294098E+00
          4   -1    0    0  504    0 -0.00000000000E+00  0.00000000000E+00  0.87660637480E+03  0.87660637480E+03  0.00000000000E+00 0. -1.
         21   -1    0    0  505  502  0.00000000000E+00 -0.00000000000E+00 -0.62057687420E+02  0.62057687420E+02  0.00000000000E+00 0. -1.
         21    1    1    2  503  502 -0.42664634389E+02  0.22377409449E+02  0.64660559873E+02  0.80635026410E+02  0.00000000000E+00 0.  1.
         21    1    1    2  504  503 -0.22101506220E+02 -0.51981932995E+02  0.12233653441E+03  0.13474726560E+03  0.00000000000E+00 0. -1.
         21    1    1    2  505  501  0.12348547492E+03  0.33630701567E+02  0.41881405718E+02  0.13466157117E+03  0.00000000000E+00 0. -1.
          4    1    1    2  501    0 -0.58719334316E+02 -0.40261780208E+01  0.58567018738E+03  0.58862019904E+03  0.00000000000E+00 0. -1.
<scales pt_clust_3="48.17696" pt_clust_4="56.30817" pt_clust_5="14000.00000" pt_clust_6="93.71455"></scales>
<clustering>
<clus scale="   48.177">  2  3  1 -1</clus>
<clus scale="   56.308">  1  4  2 -1</clus>
<clus scale="   93.715">  1  6  2 -1</clus>
<clus scale="   48.177">  2  3  1 -1</clus>
</clustering>
</event>
<event>
 6    0  0.1361744E+002  0.1320307E+03  0.7546771E-02  0.1224473E+00
         21   -1    0    0  503  502  0.00000000000E+00  0.00000000000E+00  0.70432545376E+02  0.70432545376E+02  0.00000000000E+00 0. -1.
          2   -1    0    0  504    0 -0.00000000000E+00 -0.00000000000E+00 -0.18219413313E+04  0.18219413313E+04  0.00000000000E+00 0.  1.
         21    1    1    2  503  501  0.31406763709E+02 -0.55228235608E+01 -0.47533718092E+02  0.57239328633E+02  0.00000000000E+00 0. -1.
         21    1    1    2  504  505  0.20771216921E+01  0.30101672394E+02 -0.57709986863E+03  0.57788812367E+03  0.00000000000E+00 0.  1.
         21    1    1    2  505  502  0.49210661691E+02 -0.10334012522E+03  0.97731848148E+01  0.11487552327E+03  0.00000000000E+00 0. -1.
          2    1    1    2  501    0 -0.82694547092E+02  0.78761276391E+02 -0.11366483840E+04  0.11423709011E+04  0.00000000000E+00 0.  1.
<scales pt_clust_3="31.78043" pt_clust_4="30.17325" pt_clust_5="14000.00000" pt_clust_6="132.03069"></scales>
<clustering>
<clus scale="   30.173">  2  4  1 -1</clus>
<clus scale="   31.780">  1  3  2 -1</clus>
<clus scale="  132.031">  2  6  1 -1</clus>
<clus scale="   31.780">  1  3  2 -1</clus>
</clustering>
</event>
<event>
 6    0  0.1361744E+002  0.1804545E+03  0.7546771E-02  0.1167364E+00
         21   -1    0    0  504  502  0.00000000000E+00  0.00000000000E+00  0.33175870419E+02  0.33175870419E+02  0.00000000000E+00 0.  1.
          2   -1    0    0  503    0 -0.00000000000E+00 -0.00000000000E+00 -0.26589103701E+04  0.26589103701E+04  0.00000000000E+00 0. -1.
         21    1    1    2  503  505 -0.15288518769E+03  0.45427012114E+02 -0.20654761615E+03  0.26095863998E+03  0.00000000000E+00 0.  1.
         21    1    1    2  504  501  0.64135059626E+02 -0.44399560232E+02 -0.11750677062E+04  0.11776539139E+04  0.00000000000E+00 0. -1.
         21    1    1    2  505  502 -0.77785876752E+01  0.33822850176E+02 -0.12720455894E+03  0.13185405354E+03  0.00000000000E+00 0.  1.
          2    1    1    2  501    0  0.96528715739E+02 -0.34850302057E+02 -0.11169146184E+04  0.11216196331E+04  0.00000000000E+00 0. -1.
<scales pt_clust_3="176.58245" pt_clust_4="32.41578" pt_clust_5="34.70579" pt_clust_6="32.41578"></scales>
<clustering>
<clus scale="   32.416">  4  6 -1 -1</clus>
<clus scale="   34.706">  1  5  2 -1</clus>
<clus scale="  176.582">  1  3  2 -1</clus>
<clus scale="   34.706">  1  3  2 -1</clus>
</clustering>
</event>
<event>
 6    0  0.1361744E+002  0.1261799E+03  0.7546771E-02  0.1233237E+00
         21   -1    0    0  501  502  0.00000000000E+00  0.00000000000E+00  0.10996514916E+04  0.10996514916E+04  0.00000000000E+00 0. -1.
          2   -1    0    0  505    0 -0.00000000000E+00 -0.00000000000E+00 -0.73539181242E+03  0.73539181242E+03  0.00000000000E+00 0.  1.
         21    1    1    2  503  504  0.30307341310E+02  0.54240123678E+02  0.89753329305E+03  0.89968135364E+03  0.00000000000E+00 0. -1.
         21    1    1    2  504  502  0.28390536604E+02 -0.32716271216E+02  0.13979025124E+03  0.14634784355E+03  0.00000000000E+00 0. -1.
         21    1    1    2  505  503  0.68890278501E+02 -0.54081598488E+02  0.14657281491E+02  0.88800482362E+02  0.00000000000E+00 0. -1.
          2    1    1    2  501    0 -0.12758815642E+03  0.32557746025E+02 -0.68772114658E+03  0.70021362450E+03  0.00000000000E+00 0.  1.
<scales pt_clust_3="61.63577" pt_clust_4="43.31717" pt_clust_5="14000.00000" pt_clust_6="126.17985"></scales>
<clustering>
<clus scale="   43.317">  1  4  2 -1</clus>
<clus scale="   61.636">  1  3  2 -1</clus>
<clus scale="  126.180">  2  6  1 -1</clus>
<clus scale="   43.317">  1  3  2 -1</clus>
</clustering>
</event>
<event>
 6    0  0.1361744E+002  0.1424324E+03  0.7546771E-02  0.1210093E+00
         21   -1    0    0  504  502  0.00000000000E+00  0.00000000000E+00  0.38592673704E+03  0.38592673704E+03  0.00000000000E+00 0. -1.
          2   -1    0    0  505    0 -0.00000000000E+00 -0.00000000000E+00 -0.35838816380E+03  0.35838816380E+03  0.00000000000E+00 0.  1.
         21    1    1    2  503  502 -0.42538121599E+02 -0.87616744633E+01  0.15128202456E+03  0.15739285144E+03  0.00000000000E+00 0. -1.
         21    1    1    2  504  501 -0.24905043300E+02 -0.12635286068E+03  0.18165717082E+03  0.22267607481E+03  0.00000000000E+00 0. -1.
         21    1    1    2  505  503 -0.25732334112E+02  0.66801599844E+02 -0.61545001426E+02  0.94405476330E+02  0.00000000000E+00 0. -1.
          2    1    1    2  501    0  0.93175499011E+02  0.68312935300E+02 -0.24385562072E+03  0.26984049826E+03  0.00000000000E+00 0.  1.
<scales pt_clust_3="43.43108" pt_clust_4="14000.00000" pt_clust_5="72.15516" pt_clust_6="142.43242"></scales>
<clustering>
<clus scale="   43.431">  1  3  2 -1</clus>
<clus scale="   72.155">  2  5  1 -1</clus>
<clus scale="  142.432">  2  6  1 -1</clus>
<clus scale="   43.431">  1  3  2 -1</clus>
</clustering>
</event>
<event>
 6    0  0.1361744E+002  0.1753603E+03  0.7546771E-02  0.1172370E+00
          1   -1    0    0  503    0 -0.00000000000E+00  0.00000000000E+00  0.31060354548E+03  0.31060354548E+03  0.00000000000E+00 0. -1.
         21   -1    0    0  504  502  0.00000000000E+00 -0.00000000000E+00 -0.15918183350E+03  0.15918183350E+03  0.00000000000E+00 0.  1.
         21    1    1    2  503  505  0.10325392497E+02  0.48061527678E+02  0.67651847076E+01  0.49621486244E+02  0.00000000000E+00 0.  1.
         21    1    1    2  504  501 -0.88906503649E+01 -0.78639296478E+02  0.80630069535E+02  0.11297960315E+03  0.00000000000E+00 0. -1.
         21    1    1    2  505  502  0.88934676903E-01  0.11547539274E+03 -0.79658239622E+02  0.14028545676E+03  0.00000000000E+00 0.  1.
          1    1    1    2  501    0 -0.15236768089E+01 -0.84897623944E+02  0.14368469736E+03  0.16689883283E+03  0.00000000000E+00 0. -1.
<scales pt_clust_3="40.73802" pt_clust_4="32.90993" pt_clust_5="40.73802" pt_clust_6="167.37630"></scales>
<clustering>
<clus scale="   32.910">  4  6 -1 -1</clus>
<clus scale="   40.738">  3  5 -1 -1</clus>
<clus scale="  167.376">  1  4  2 -1</clus>
<clus scale="  175.360">  2  3  1 -1</clus>
</clustering>
</event>
<event>
 6    0  0.1361744E+002  0.1448545E+03  0.7546771E-02  0.1206942E+00
          2   -1    0    0  503    0 -0.00000000000E+00  0.00000000000E+00  0.15373316865E+04  0.15373316865E+04  0.00000000000E+00 0.  1.
         21   -1    0    0  501  502  0.00000000000E+00 -0.00000000000E+00 -0.67356878578E+02  0.67356878578E+02  0.00000000000E+00 0. -1.
         21    1    1    2  503  504 -0.96450651952E+02  0.19743566685E+02  0.13151661591E+04  0.13188459208E+04  0.00000000000E+00 0.  1.
         21    1    1    2  504  505  0.84705817264E+02 -0.14498294036E+02  0.41272549737E+02  0.95334670346E+02  0.00000000000E+00 0. -1.
         21    1    1    2  505  502  0.47942454328E+02  0.17525192306E+02 -0.16480048748E+02  0.53639568409E+02  0.00000000000E+00 0. -1.
          2    1    1    2  501    0 -0.36197619640E+02 -0.22770464955E+02  0.13001614784E+03  0.13686840556E+03  0.00000000000E+00 0.  1.
<scales pt_clust_3="130.41812" pt_clust_4="48.75842" pt_clust_5="48.75842" pt_clust_6="42.76402"></scales>
<clustering>
<clus scale="   42.764">  1  6  2 -1</clus>
<clus scale="   48.758">  4  5 -1 -1</clus>
<clus scale="  130.418">  1  3  2 -1</clus>
<clus scale="  144.854">  2  3  1 -1</clus>
</clustering>
</event>
<event>
 6    0  0.1361744E+002  0.1201306E+03  0.7546771E-02  0.1242882E+00
         21   -1    0    0  504  502  0.00000000000E+00  0.00000000000E+00  0.19272446762E+03  0.19272446762E+03  0.00000000000E+00 0.  1.
          1   -1    0    0  505    0 -0.00000000000E+00 -0.00000000000E+00 -0.12596302656E+03  0.12596302656E+03  0.00000000000E+00 0.  1.
         21    1    1    2  503  501 -0.29811134227E+02  0.62432224117E+02  0.36757902832E+02  0.78343026191E+02  0.00000000000E+00 0.  1.
         21    1    1    2  504  503 -0.38981475080E+01  0.57721819975E+02  0.75548314792E+02  0.95155409321E+02  0.00000000000E+00 0.  1.
         21    1    1    2  505  502  0.19768068001E+02 -0.29514813701E+02 -0.39736780727E+02  0.53300210908E+02  0.00000000000E+00 0.  1.
          1    1    1    2  501    0  0.13941213734E+02 -0.90639230391E+02 -0.58079958425E+01  0.91888847756E+02  0.00000000000E+00 0.  1.
<scales pt_clust_3="41.56120" pt_clust_4="41.56120" pt_clust_5="35.52324" pt_clust_6="111.87336"></scales>
<clustering>
<clus scale="   35.523">  2  5  1 -1</clus>
<clus scale="   41.561">  3  4 -1 -1</clus>
<clus scale="  111.873">  2  6  1 -1</clus>
<clus scale="  120.131">  1  3  2 -1</clus>
</clustering>
</event>
<event>
 6    0  0.1361744E+002  0.1251878E+03  0.7546771E-02  0.1234776E+00
         21   -1    0    0  505  502  0.00000000000E+00  0.00000000000E+00  0.13036410284E+03  0.13036410284E+03  0.00000000000E+00 0. -1.
          2   -1    0    0  504    0 -0.00000000000E+00 -0.00000000000E+00 -0.10533123335E+04  0.10533123335E+04  0.00000000000E+00 0. -1.
         21    1    1    2  503  501  0.16608738511E+02 -0.95941244610E+02 -0.15704690787E+03  0.18478177368E+03  0.00000000000E+00 0. -1.
         21    1    1    2  504  502  0.33424894966E+02  0.52735345369E+01  0.79495029241E+01  0.34759579496E+02  0.00000000000E+00 0. -1.
         21    1    1    2  505  503  0.41796974083E+02 -0.16670208695E+02  0.83699109152E+02  0.95028541888E+02  0.00000000000E+00 0. -1.
          2    1    1    2  501    0 -0.91830607560E+02  0.10733791877E+03 -0.85754993484E+03  0.86910654124E+03  0.00000000000E+00 0. -1.
<scales pt_clust_3="14000.00000" pt_clust_4="33.83835" pt_clust_5="70.29094" pt_clust_6="125.18779"></scales>
<clustering>
<clus scale="   33.838">  1  4  2 -1</clus>
<clus scale="   70.291">  1  5  2 -1</clus>
<clus scale="  125.188">  2  6  1 -1</clus>
<clus scale="   33.838">  1  3  2 -1</clus>
</clustering>
</event>
<event>
 6    0  0.1361744E+002  0.1620101E+03  0.7546771E-02  0.1186446E+00
         21   -1    0    0  504  502  0.00000000000E+00  0.00000000000E+00  0.11018908384E+04  0.11018908384E+04  0.00000000000E+00 0.  1.
          2   -1    0    0  505    0 -0.00000000000E+00 -0.00000000000E+00 -0.19311508598E+04  0.19311508598E+04  0.00000000000E+00 0.  1.
         21    1    1    2  503  502  0.88121518067E+02 -0.76326817655E+01  0.99715958708E+03  0.10010748733E+04  0.00000000000E+00 0.  1.
         21    1    1    2  504  501  0.74763628364E+02  0.36655112494E+01  0.82880415868E+02  0.11167900176E+03  0.00000000000E+00 0. -1.
         21    1    1    2  505  503 -0.35089859962E+02  0.50067414790E+02 -0.37139386912E+03  0.37639268101E+03  0.00000000000E+00 0.  1.
          2    1    1    2  501    0 -0.12779528647E+03 -0.46100244274E+02 -0.15379061552E+04  0.15438951422E+04  0.00000000000E+00 0.  1.
<scales pt_clust_3="162.01015" pt_clust_4="74.55356" pt_clust_5="61.13955" pt_clust_6="14000.00000"></scales>
<clustering>
<clus scale="   61.140">  2  5  1 -1</clus>
<clus scale="   74.554">  1  4  2 -1</clus>
<clus scale="  162.010">  1  3  2 -1</clus>
<clus scale="   74.554">  1  3  2 -1</clus>
</clustering>
</event>
<event>
 6    0  0.1361744E+002  0.1335373E+03  0.7546771E-02  0.1222299E+00
         21   -1    0    0  504  502  0.00000000000E+00  0.00000000000E+00  0.56237979298E+03  0.56237979298E+03  0.00000000000E+00 0.  1.
          1   -1    0    0  505    0 -0.00000000000E+00 -0.00000000000E+00 -0.75096930904E+03  0.75096930904E+03  0.00000000000E+00 0. -1.
         21    1    1    2  503  502  0.13410945291E+02 -0.46453261273E+02  0.21007928449E+03  0.21557148399E+03  0.00000000000E+00 0.  1.
         21    1    1    2  504  501 -0.10873071656E+03 -0.49339004178E+02  0.33002113722E+03  0.35095677378E+03  0.00000000000E+00 0.  1.
         21    1    1    2  505  503  0.20031246782E+02  0.35091864815E+02 -0.68069036455E+02  0.79158597434E+02  0.00000000000E+00 0.  1.
          1    1    1    2  501    0  0.75288524485E+02  0.60700400636E+02 -0.66062090131E+03  0.66766224681E+03  0.00000000000E+00 0. -1.
<scales pt_clust_3="48.23636" pt_clust_4="14000.00000" pt_clust_5="40.40656" pt_clust_6="133.53731"></scales>
<clustering>
<clus scale="   40.407">  2  5  1 -1</clus>
<clus scale="   48.236">  1  3  2 -1</clus>
<clus scale="  133.537">  2  6  1 -1</clus>
<clus scale="   48.236">  1  3  2 -1</clus>
</clustering>
</event>
<event>
 6    0  0.1361744E+002  0.8326603E+02  0.7546771E-02  0.1320030E+00
         -1   -1    0    0    0  501 -0.00000000000E+00  0.00000000000E+00  0.93776249656E+03  0.93776249656E+03  0.00000000000E+00 0. -1.
         21   -1    0    0  503  502  0.00000000000E+00 -0.00000000000E+00 -0.13925711366E+03  0.13925711366E+03  0.00000000000E+00 0.  1.
         21    1    1    2  503  505  0.63205630877E+01  0.31454531583E+02 -0.14443929208E+02  0.35184714946E+02  0.00000000000E+00 0. -1.
         21    1    1    2  504  502  0.43860216532E+02  0.37760944364E+02 -0.95356584770E+02  0.11154589088E+03  0.00000000000E+00 0.  1.
         21    1    1    2  505  501  0.49348628909E+02 -0.18619029465E+02  0.89343553792E+02  0.10375078813E+03  0.00000000000E+00 0. -1.
         -1    1    1    2    0  504 -0.99529408529E+02 -0.50596446483E+02  0.81896234308E+03  0.82653821626E+03  0.00000000000E+00 0. -1.
<scales pt_clust_3="32.08328" pt_clust_4="14000.00000" pt_clust_5="52.45543" pt_clust_6="83.26603"></scales>
<clustering>
<clus scale="   32.083">  2  3  1 -1</clus>
<clus scale="   52.455">  1  5  2 -1</clus>
<clus scale="   83.266">  1  6  2 -1</clus>
<clus scale="   32.083">  2  3  1 -1</clus>
</clustering>
</event>
<event>
 6    0  0.1361744E+002  0.9270263E+02  0.7546771E-02  0.1296436E+00
         21   -1    0    0  504  502  0.00000000000E+00  0.00000000000E+00  0.31045378670E+03  0.31045378670E+03  0.00000000000E+00 0.  1.
         -2   -1    0    0    0  501 -0.00000000000E+00 -0.00000000000E+00 -0.83375210694E+03  0.83375210694E+03  0.00000000000E+00 0.  1.
         21    1    1    2  503  505 -0.55706914359E+02 -0.94722687061E+00  0.13862933780E+03  0.14940632800E+03  0.00000000000E+00 0.  1.
         21    1    1    2  504  501 -0.11533395078E+00  0.65964171940E+02 -0.19742499414E+03  0.20815358174E+03  0.00000000000E+00 0. -1.
         21    1    1    2  505  502 -0.25313878612E+02  0.21293052641E+02  0.15368826834E+03  0.15720772998E+03  0.00000000000E+00 0.  1.
         -2    1    1    2    0  503  0.81136126922E+02 -0.86309997710E+02 -0.61819093224E+03  0.62943825392E+03  0.00000000000E+00 0.  1.
<scales pt_clust_3="30.66919" pt_clust_4="65.96427" pt_clust_5="30.66919" pt_clust_6="83.72276"></scales>
<clustering>
<clus scale="   30.669">  3  5 -1 -1</clus>
<clus scale="   65.964">  2  4  1 -1</clus>
<clus scale="   83.723">  2  6  1 -1</clus>
<clus scale="   92.703">  1  3  2 -1</clus>
</clustering>
</event>
<event>
 6    0  0.1361744E+002  0.2433446E+03  0.7546771E-02  0.1117585E+00
         21   -1    0    0  503  502  0.00000000000E+00  0.00000000000E+00  0.19255953268E+04  0.19255953268E+04  0.00000000000E+00 0. -1.
          2   -1    0    0  504    0 -0.00000000000E+00 -0.00000000000E+00 -0.89051326392E+03  0.89051326392E+03  0.00000000000E+00 0. -1.
         21    1    1    2  503  505  0.17156485713E+03  0.12806886845E+02  0.17097594787E+04  0.17183934333E+04  0.00000000000E+00 0. -1.
         21    1    1    2  504  502  0.62110869466E+02  0.10239183073E+02  0.18954579667E+03  0.19972533643E+03  0.00000000000E+00 0. -1.
         21    1    1    2  505  501 -0.14158370071E+03 -0.21141342381E+02 -0.40330519220E+03  0.42795791699E+03  0.00000000000E+00 0. -1.
          2    1    1    2  501    0 -0.92092025881E+02 -0.19047275378E+01 -0.46091802037E+03  0.47003190394E+03  0.00000000000E+00 0. -1.
<scales pt_clust_3="234.19674" pt_clust_4="62.94919" pt_clust_5="53.01787" pt_clust_6="53.01787"></scales>
<clustering>
<clus scale="   53.018">  5  6 -1 -1</clus>
<clus scale="   62.949">  1  4  2 -1</clus>
<clus scale="  234.197">  1  3  2 -1</clus>
<clus scale="   62.949">  1  3  2 -1</clus>
</clustering>
</event>
<event>
 6    0  0.1361744E+002  0.1962117E+03  0.7546771E-02  0.1152975E+00
         -1   -1    0    0    0  501 -0.00000000000E+00  0.00000000000E+00  0.13127651657E+03  0.13127651657E+03  0.00000000000E+00 0. -1.
         21   -1    0    0  505  502  0.00000000000E+00 -0.00000000000E+00 -0.10210274107E+04  0.10210274107E+04  0.00000000000E+00 0.  1.
         21    1    1    2  503  501  0.20358931080E+02 -0.32865098851E+02 -0.29681184170E+01  0.38773838140E+02  0.00000000000E+00 0.  1.
         21    1    1    2  504  503  0.53167110515E+02  0.10502159071E+02 -0.19377012696E+03  0.20120611096E+03  0.00000000000E+00 0.  1.
         21    1    1    2  505  504  0.80441144172E+02  0.11490277392E+03 -0.71745011526E+03  0.73103221066E+03  0.00000000000E+00 0.  1.
         -1    1    1    2    0  502 -0.15396718577E+03 -0.92539834141E+02  0.24437466514E+02  0.18129176751E+03  0.00000000000E+00 0. -1.
<scales pt_clust_3="38.66007" pt_clust_4="45.02046" pt_clust_5="45.02046" pt_clust_6="182.56675"></scales>
<clustering>
<clus scale="   38.660">  1  3  2 -1</clus>
<clus scale="   45.020">  4  5 -1 -1</clus>
<clus scale="  182.567">  1  6  2 -1</clus>
<clus scale="  196.212">  2  3  1 -1</clus>
</clustering>
</event>
<event>
 6    0  0.1361744E+002  0.1958335E+03  0.7546771E-02  0.1153303E+00
          1   -1    0    0  503    0 -0.00000000000E+00  0.00000000000E+00  0.14661743761E+04  0.14661743761E+04  0.00000000000E+00 0.  1.
         21   -1    0    0  504  502  0.00000000000E+00 -0.00000000000E+00 -0.31880264366E+03  0.31880264366E+03  0.00000000000E+00 0. -1.
         21    1    1    2  503  502 -0.11098308273E+03 -0.15875648759E+03  0.64152566872E+03  0.67013136819E+03  0.00000000000E+00 0. -1.
         21    1    1    2  504  505  0.12903380075E+02  0.12373821370E+03 -0.23668012763E+03  0.26738572430E+03  0.00000000000E+00 0. -1.
         21    1    1    2  505  501  0.11442381736E+02  0.56274448893E+02 -0.33393259975E+02  0.66429297074E+02  0.00000000000E+00 0. -1.
          1    1    1    2  501    0  0.86637320921E+02 -0.21256174998E+02  0.77591945132E+03  0.78103063019E+03  0.00000000000E+00 0.  1.
<scales pt_clust_3="181.26006" pt_clust_4="50.36559" pt_clust_5="50.36559" pt_clust_6="89.20678"></scales>
<clustering>
<clus scale="   50.366">  4  5 -1 -1</clus>
<clus scale="   89.207">  1  6  2 -1</clus>
<clus scale="  181.260">  1  3  2 -1</clus>
<clus scale="  195.834">  2  3  1 -1</clus>
</clustering>
</event>
<event>
 6    0  0.1361744E+002  0.8149156E+02  0.7546771E-02  0.1324871E+00
          3   -1    0    0  503    0 -0.00000000000E+00  0.00000000000E+00  0.11908805533E+04  0.11908805533E+04  0.00000000000E+00 0. -1.
         21   -1    0    0  505  502  0.00000000000E+00 -0.00000000000E+00 -0.91011333757E+02  0.91011333757E+02  0.00000000000E+00 0. -1.
         21    1    1    2  503  504 -0.47311756643E+02 -0.23034561774E+02  0.56243942843E+03  0.56489565763E+03  0.00000000000E+00 0.  1.
         21    1    1    2  504  502  0.28759127799E+02 -0.25230923778E+02 -0.11715866373E+02  0.40011854135E+02  0.00000000000E+00 0. -1.
         21    1    1    2  505  501 -0.90323103387E+02  0.69371175113E+02 -0.28836205969E+01  0.11392514301E+03  0.00000000000E+00 0. -1.
          3    1    1    2  501    0  0.10887573223E+03 -0.21105689562E+02  0.55202927811E+03  0.56305923231E+03  0.00000000000E+00 0. -1.
<scales pt_clust_3="52.34621" pt_clust_4="38.25816" pt_clust_5="81.49156" pt_clust_6="14000.00000"></scales>
<clustering>
<clus scale="   38.258">  2  4  1 -1</clus>
<clus scale="   52.346">  1  3  2 -1</clus>
<clus scale="   81.492">  2  5  1 -1</clus>
<clus scale="   38.258">  2  3  1 -1</clus>
</clustering>
</event>
<event>
 6    0  0.1361744E+002  0.6866507E+02  0.7546771E-02  0.1364692E+00
         21   -1    0    0  504  502  0.00000000000E+00  0.00000000000E+00  0.44903846151E+03  0.44903846151E+03  0.00000000000E+00 0. -1.
          2   -1    0    0  505    0 -0.00000000000E+00 -0.00000000000E+00 -0.36391237828E+03  0.36391237828E+03  0.00000000000E+00 0. -1.
         21    1    1    2  503  501  0.29018678692E+02  0.85193253506E+02 -0.19852247625E+03  0.21797052033E+03  0.00000000000E+00 0.  1.
         21    1    1    2  504  503  0.37135204327E+02 -0.21552533536E+02  0.15949550269E+02  0.45803092210E+02  0.00000000000E+00 0.  1.
         21    1    1    2  505  502 -0.80769112439E+02 -0.29392746005E+02  0.40134268287E+03  0.41044309245E+03  0.00000000000E+00 0. -1.
          2    1    1    2  501    0  0.14615229419E+02 -0.34247973965E+02 -0.13364367366E+03  0.13873413481E+03  0.00000000000E+00 0. -1.
<scales pt_clust_3="14000.00000" pt_clust_4="44.91557" pt_clust_5="68.66507" pt_clust_6="37.23612"></scales>
<clustering>
<clus scale="   37.236">  2  6  1 -1</clus>
<clus scale="   44.916">  1  4  2 -1</clus>
<clus scale="   68.665">  1  5  2 -1</clus>
<clus scale="   44.916">  1  3  2 -1</clus>
</clustering>
</event>
<event>
 6    0  0.1361744E+002  0.8876200E+02  0.7546771E-02  0.1305878E+00
         21   -1    0    0  503  502  0.00000000000E+00  0.00000000000E+00  0.76146161750E+03  0.76146161750E+03  0.00000000000E+00 0. -1.
         -1   -1    0    0    0  501 -0.00000000000E+00 -0.00000000000E+00 -0.92061199150E+03  0.92061199150E+03  0.00000000000E+00 0.  1.
         21    1    1    2  503  505  0.10766780760E+01 -0.37269039805E+02  0.20963331922E+03  0.21292315302E+03  0.00000000000E+00 0.  1.
         21    1    1    2  504  502 -0.53019127697E+02 -0.35445613229E+02  0.53501871308E+03  0.53880649842E+03  0.00000000000E+00 0. -1.
         21    1    1    2  505  501 -0.39758574639E+02  0.82046398798E+01 -0.32899177690E+02  0.52253385207E+02  0.00000000000E+00 0.  1.
         -1    1    1    2    0  504  0.91701024261E+02  0.64510013154E+02 -0.87090322861E+03  0.87809057235E+03  0.00000000000E+00 0.  1.
<scales pt_clust_3="37.28459" pt_clust_4="88.76200" pt_clust_5="40.45031" pt_clust_6="14000.00000"></scales>
<clustering>
<clus scale="   37.285">  1  3  2 -1</clus>
<clus scale="   40.450">  2  5  1 -1</clus>
<clus scale="   88.762">  1  4  2 -1</clus>
<clus scale="   37.285">  1  3  2 -1</clus>
</clustering>
</event>
<event>
 6    0  0.1361744E+002  0.1877021E+03  0.7546771E-02  0.1160550E+00
          1   -1    0    0  505    0 -0.00000000000E+00  0.00000000000E+00  0.34130448968E+03  0.34130448968E+03  0.00000000000E+00 0. -1.
         21   -1    0    0  503  502  0.00000000000E+00 -0.00000000000E+00 -0.23830323428E+03  0.23830323428E+03  0.00000000000E+00 0. -1.
         21    1    1    2  503  504 -0.58990459987E+02  0.20804319015E+02 -0.78449965027E+01  0.63041557954E+02  0.00000000000E+00 0. -1.
         21    1    1    2  504  501 -0.25770069877E+02 -0.37911951817E+02  0.28377598347E+02  0.53913826427E+02  0.00000000000E+00 0. -1.
         21    1    1    2  505  502  0.79138330360E+02  0.15404579988E+03 -0.12529465549E+03  0.21375625017E+03  0.00000000000E+00 0. -1.
          1    1    1    2  501    0  0.56221995043E+01 -0.13693816708E+03  0.20776330905E+03  0.24889608940E+03  0.00000000000E+00 0. -1.
<scales pt_clust_3="62.55153" pt_clust_4="40.70135" pt_clust_5="174.00938" pt_clust_6="40.70135"></scales>
<clustering>
<clus scale="   40.701">  4  6 -1 -1</clus>
<clus scale="   62.552">  2  3  1 -1</clus>
<clus scale="  174.009">  2  5  1 -1</clus>
<clus scale="   62.552">  2  3  1 -1</clus>
</clustering>
</event>
<event>
 6    0  0.1361744E+002  0.1077594E+03  0.7546771E-02  0.1264776E+00
         21   -1    0    0  505  502  0.00000000000E+00  0.00000000000E+00  0.15106423125E+04  0.15106423125E+04  0.00000000000E+00 0.  1.
          2   -1    0    0  503    0 -0.00000000000E+00 -0.00000000000E+00 -0.15384997876E+03  0.15384997876E+03  0.00000000000E+00 0. -1.
         21    1    1    2  503  504  0.20542187034E+02 -0.29950791516E+02 -0.36964337022E+02  0.51820783205E+02  0.00000000000E+00 0. -1.
         21    1    1    2  504  502  0.50017722713E+02  0.22066816600E+02  0.68438210750E+03  0.68656215017E+03  0.00000000000E+00 0.  1.
         21    1    1    2  505  501 -0.61074354882E+01  0.78948626792E+02  0.79414598122E+03  0.79808397173E+03  0.00000000000E+00 0.  1.
          2    1    1    2  501    0 -0.64452474259E+02 -0.71064651876E+02 -0.84771417994E+02  0.12802538613E+03  0.00000000000E+00 0. -1.
<scales pt_clust_3="36.31847" pt_clust_4="54.73708" pt_clust_5="107.75936" pt_clust_6="14000.00000"></scales>
<clustering>
<clus scale="   36.318">  2  3  1 -1</clus>
<clus scale="   54.737">  1  4  2 -1</clus>
<clus scale="  107.759">  1  5  2 -1</clus>
<clus scale="   54.737">  1  3  2 -1</clus>
</clustering>
</event>
<event>
 6    0  0.1467873E+002  0.1962505E+03  0.7546771E-02  0.1152942E+00
         21   -1    0    0  501  502  0.00000000000E+00  0.00000000000E+00  0.92893179038E+02  0.92893179038E+02  0.00000000000E+00 0. -1.
          2   -1    0    0  503    0 -0.00000000000E+00 -0.00000000000E+00 -0.25220446431E+04  0.25220446431E+04  0.00000000000E+00 0.  1.
         21    1    1    2  503  505  0.28170800291E+02 -0.11020388638E+02 -0.10003065186E+03  0.10450442223E+03  0.00000000000E+00 0.  1.
         21    1    1    2  504  502 -0.91510262508E+02  0.32530316250E+02  0.11872255206E+02  0.97843242298E+02  0.00000000000E+00 0. -1.
         21    1    1    2  505  504 -0.94554026333E+02 -0.70128414383E+01 -0.34869812420E+02  0.10102251066E+03  0.00000000000E+00 0. -1.
          2    1    1    2  501    0  0.15789348855E+03 -0.14497086174E+02 -0.23061232550E+04  0.23115676470E+04  0.00000000000E+00 0.  1.
<scales pt_clust_3="30.24968" pt_clust_4="60.40933" pt_clust_5="60.40933" pt_clust_6="186.45807"></scales>
<clustering>
<clus scale="   30.250">  2  3  1 -1</clus>
<clus scale="   60.409">  4  5 -1 -1</clus>
<clus scale="  186.458">  2  6  1 -1</clus>
<clus scale="  196.250">  1  3  2 -1</clus>
</clustering>
</event>
<event>
 6    0  0.1361744E+002  0.1296409E+03  0.7546771E-02  0.1227989E+00
         21   -1    0    0  501  502  0.00000000000E+00  0.00000000000E+00  0.14871146710E+03  0.14871146710E+03  0.00000000000E+00 0.  1.
          2   -1    0    0  503    0 -0.00000000000E+00 -0.00000000000E+00 -0.12015510260E+04  0.12015510260E+04  0.00000000000E+00 0. -1.
         21    1    1    2  503  504 -0.32102337357E+02 -0.47699998140E+02 -0.13471302535E+03  0.14646995967E+03  0.00000000000E+00 0. -1.
         21    1    1    2  504  505  0.26127654885E+02 -0.10458069859E+03  0.87756582067E+02  0.13899998044E+03  0.00000000000E+00 0.  1.
         21    1    1    2  505  502 -0.56039433663E+02 -0.21017854106E+02 -0.21883474979E+02  0.63726405780E+02  0.00000000000E+00 0. -1.
          2    1    1    2  501    0  0.62014116135E+02  0.17329855084E+03 -0.98399964066E+03  0.10010661472E+04  0.00000000000E+00 0. -1.
<scales pt_clust_3="57.49652" pt_clust_4="129.64094" pt_clust_5="61.75443" pt_clust_6="14000.00000"></scales>
<clustering>
<clus scale="   57.497">  2  3  1 -1</clus>
<clus scale="   61.754">  1  5  2 -1</clus>
<clus scale="  129.641">  1  4  2 -1</clus>
<clus scale="   61.754">  1  3  2 -1</clus>
</clustering>
</event>
<event>
 6    0  0.1361744E+002  0.2413207E+03  0.7546771E-02  0.1118916E+00
         21   -1    0    0  505  502  0.00000000000E+00  0.00000000000E+00  0.11137265367E+04  0.11137265367E+04  0.00000000000E+00 0. -1.
          1   -1    0    0  503    0 -0.00000000000E+00 -0.00000000000E+00 -0.32870681660E+03  0.32870681660E+03  0.00000000000E+00 0. -1.
         21    1    1    2  503  502  0.25186767491E+03  0.19706169153E+03  0.89352664748E+03  0.94903135127E+03  0.00000000000E+00 0. -1.
         21    1    1    2  504  501 -0.19886234369E+03 -0.60379762092E+02 -0.12445781744E+03  0.24224305094E+03  0.00000000000E+00 0. -1.
         21    1    1    2  505  504 -0.50411635161E+02 -0.63662555492E+02  0.10705874322E+03  0.13437197785E+03  0.00000000000E+00 0. -1.
          1    1    1    2  501    0 -0.25936960627E+01 -0.73019373945E+02 -0.91107853111E+02  0.11678697329E+03  0.00000000000E+00 0. -1.
<scales pt_clust_3="14000.00000" pt_clust_4="241.32066" pt_clust_5="84.82193" pt_clust_6="73.06542"></scales>
<clustering>
<clus scale="   73.065">  2  6  1 -1</clus>
<clus scale="   84.822">  1  5  2 -1</clus>
<clus scale="  241.321">  2  4  1 -1</clus>
<clus scale="   84.822">  1  3  2 -1</clus>
</clustering>
</event>
<event>
 6    0  0.1361744E+002  0.1000826E+03  0.7546771E-02  0.1280122E+00
         21   -1    0    0  504  502  0.00000000000E+00  0.00000000000E+00  0.20692733291E+04  0.20692733291E+04  0.00000000000E+00 0.  1.
         -4   -1    0    0    0  501 -0.00000000000E+00 -0.00000000000E+00 -0.25062000180E+02  0.25062000180E+02  0.00000000000E+00 0. -1.
         21    1    1    2  503  505 -0.73752207597E+02 -0.13547454625E+02  0.11974726003E+03  0.14128810260E+03  0.00000000000E+00 0. -1.
         21    1    1    2  504  501  0.24340761446E+02 -0.34422218717E+02  0.39841764501E+03  0.40064196194E+03  0.00000000000E+00 0.  1.
         21    1    1    2  505  502  0.83752920436E+02 -0.48475804581E+01  0.14551315773E+04  0.14575479265E+04  0.00000000000E+00 0.  1.
         -4    1    1    2    0  503 -0.34341474285E+02  0.52817253800E+02  0.70914846536E+02  0.94857338220E+02  0.00000000000E+00 0. -1.
<scales pt_clust_3="100.08261" pt_clust_4="42.15877" pt_clust_5="14000.00000" pt_clust_6="60.90888"></scales>
<clustering>
<clus scale="   42.159">  1  4  2 -1</clus>
<clus scale="   60.909">  2  6  1 -1</clus>
<clus scale="  100.083">  2  3  1 -1</clus>
<clus scale="   42.159">  1  3  2 -1</clus>
</clustering>
</event>
<event>
 6    0  0.1361744E+002  0.8152227E+02  0.7546771E-02  0.1324786E+00
         21   -1    0    0  501  502  0.00000000000E+00  0.00000000000E+00  0.58122271370E+02  0.58122271370E+02  0.00000000000E+00 0.  1.
          2   -1    0    0  504    0 -0.00000000000E+00 -0.00000000000E+00 -0.25422953683E+04  0.25422953683E+04  0.00000000000E+00 0.  1.
         21    1    1    2  503  502  0.30659793045E+02 -0.24964403631E+02 -0.45133234374E+01  0.39794653494E+02  0.00000000000E+00 0.  1.
         21    1    1    2  504  505 -0.49292306362E+02  0.11168532941E+02 -0.50648844377E+03  0.50900394032E+03  0.00000000000E+00 0. -1.
         21    1    1    2  505  503 -0.47014364432E+02 -0.55950675009E+02  0.29859363214E+01  0.73141946328E+02  0.00000000000E+00 0.  1.
          2    1    1    2  501    0  0.65646877748E+02  0.69746545699E+02 -0.19761572661E+04  0.19784770996E+04  0.00000000000E+00 0.  1.
<scales pt_clust_3="39.53789" pt_clust_4="49.44432" pt_clust_5="14000.00000" pt_clust_6="81.52227"></scales>
<clustering>
<clus scale="   39.538">  1  3  2 -1</clus>
<clus scale="   49.444">  2  4  1 -1</clus>
<clus scale="   81.522">  2  6  1 -1</clus>
<clus scale="   39.538">  1  3  2 -1</clus>
</clustering>
</event>
<event>
 6    0  0.1361744E+002  0.3183223E+03  0.7546771E-02  0.1076424E+00
         21   -1    0    0  504  502  0.00000000000E+00  0.00000000000E+00  0.13158289024E+03  0.13158289024E+03  0.00000000000E+00 0.  1.
          1   -1    0    0  503    0 -0.00000000000E+00 -0.00000000000E+00 -0.13390145584E+04  0.13390145584E+04  0.00000000000E+00 0. -1.
         21    1    1    2  503  505 -0.64401328467E+02  0.13923582463E+03 -0.16968967647E+03  0.22875474261E+03  0.00000000000E+00 0.  1.
         21    1    1    2  504  501  0.23669401914E+02 -0.47957702239E+02 -0.56814274558E+02  0.78025916109E+02  0.00000000000E+00 0. -1.
         21    1    1    2  505  502 -0.22599883033E+02  0.18387309639E+03 -0.51257355450E+02  0.19221703040E+03  0.00000000000E+00 0.  1.
          1    1    1    2  501    0  0.63331809586E+02 -0.27515121877E+03 -0.92967036168E+03  0.97159975951E+03  0.00000000000E+00 0. -1.
<scales pt_clust_3="121.51635" pt_clust_4="53.48067" pt_clust_5="121.51635" pt_clust_6="291.37264"></scales>
<clustering>
<clus scale="   53.481">  1  4  2 -1</clus>
<clus scale="  121.516">  3  5 -1 -1</clus>
<clus scale="  291.373">  2  6  1 -1</clus>
<clus scale="   53.481">  1  3  2 -1</clus>
</clustering>
</event>
<event>
 6    0  0.1361744E+002  0.1104516E+03  0.7546771E-02  0.1259736E+00
         21   -1    0    0  505  502  0.00000000000E+00  0.00000000000E+00  0.86022595003E+02  0.86022595003E+02  0.00000000000E+00 0. -1.
         -2   -1    0    0    0  501 -0.00000000000E+00 -0.00000000000E+00 -0.50115865761E+03  0.50115865761E+03  0.00000000000E+00 0. -1.
         21    1    1    2  503  502 -0.47404150396E+02  0.47688757105E+02  0.18973330468E+02  0.69866718100E+02  0.00000000000E+00 0. -1.
         21    1    1    2  504  503 -0.35098828865E+01  0.49104088079E+02  0.75995197248E+01  0.49812482813E+02  0.00000000000E+00 0. -1.
         21    1    1    2  505  501  0.65833015871E+02 -0.12877732766E+02 -0.21890597361E+03  0.22895337355E+03  0.00000000000E+00 0. -1.
         -2    1    1    2    0  504 -0.14918982589E+02 -0.83915112419E+02 -0.22280293919E+03  0.23854867815E+03  0.00000000000E+00 0. -1.
<scales pt_clust_3="34.81864" pt_clust_4="34.81864" pt_clust_5="67.08071" pt_clust_6="102.68232"></scales>
<clustering>
<clus scale="   34.819">  3  4 -1 -1</clus>
<clus scale="   67.081">  2  5  1 -1</clus>
<clus scale="  102.682">  2  6  1 -1</clus>
<clus scale="  110.452">  1  3  2 -1</clus>
</clustering>
</event>
<event>
 6    0  0.1361744E+002  0.1841924E+03  0.7546771E-02  0.1163806E+00
          2   -1    0    0  504    0 -0.00000000000E+00  0.00000000000E+00  0.16280372913E+04  0.16280372913E+04  0.00000000000E+00 0.  1.
         21   -1    0    0  503  502  0.00000000000E+00 -0.00000000000E+00 -0.11963405344E+03  0.11963405344E+03  0.00000000000E+00 0.  1.
         21    1    1    2  503  501 -0.37826561704E+02 -0.79274052471E+02  0.59415606654E+03  0.60061356592E+03  0.00000000000E+00 0.  1.
         21    1    1    2  504  505  0.13156083828E+03  0.95894013243E+02  0.72958145602E+02  0.17840069213E+03  0.00000000000E+00 0.  1.
         21    1    1    2  505  502 -0.15310110367E+02  0.38277259454E+02 -0.54182631517E+02  0.68083078874E+02  0.00000000000E+00 0.  1.
          2    1    1    2  501    0 -0.78424166204E+02 -0.54897220227E+02  0.89547165726E+03  0.90057400783E+03  0.00000000000E+00 0.  1.
<scales pt_clust_3="52.60986" pt_clust_4="175.69754" pt_clust_5="41.22558" pt_clust_6="52.60986"></scales>
<clustering>
<clus scale="   41.226">  2  5  1 -1</clus>
<clus scale="   52.610">  3  6 -1 -1</clus>
<clus scale="  175.698">  2  4  1 -1</clus>
<clus scale="   41.226">  2  3  1 -1</clus>
</clustering>
</event>
<event>
 6    0  0.1361744E+002  0.1358756E+03  0.7546771E-02  0.1218989E+00
         21   -1    0    0  505  502  0.00000000000E+00  0.00000000000E+00  0.91991180944E+02  0.91991180944E+02  0.00000000000E+00 0. -1.
          2   -1    0    0  503    0 -0.00000000000E+00 -0.00000000000E+00 -0.24632776969E+04  0.24632776969E+04  0.00000000000E+00 0. -1.
         21    1    1    2  503  504 -0.38229068076E+02 -0.16523220689E+03 -0.92173373822E+03  0.93720660903E+03  0.00000000000E+00 0. -1.
         21    1    1    2  504  502  0.29780688369E+02  0.29064307326E+02  0.42679254471E+02  0.59608238711E+02  0.00000000000E+00 0. -1.
         21    1    1    2  505  501  0.56086636623E+02  0.14191954363E+02  0.25852445048E+01  0.57912052851E+02  0.00000000000E+00 0. -1.
          2    1    1    2  501    0 -0.47638256915E+02  0.12197594520E+03 -0.14948172767E+04  0.15005419772E+04  0.00000000000E+00 0. -1.
<scales pt_clust_3="135.87556" pt_clust_4="41.61278" pt_clust_5="85.91519" pt_clust_6="14000.00000"></scales>
<clustering>
<clus scale="   41.613">  1  4  2 -1</clus>
<clus scale="   85.915">  1  5  2 -1</clus>
<clus scale="  135.876">  1  3  2 -1</clus>
<clus scale="   41.613">  1  3  2 -1</clus>
</clustering>
</event>
<event>
 6    0  0.1361744E+002  0.1188471E+03  0.7546771E-02  0.1245011E+00
         -1   -1    0    0    0  501 -0.00000000000E+00  0.00000000000E+00  0.52920365154E+03  0.52920365154E+03  0.00000000000E+00 0.  1.
         21   -1    0    0  503  502  0.00000000000E+00 -0.00000000000E+00 -0.11030680558E+03  0.11030680558E+03  0.00000000000E+00 0.  1.
         21    1    1    2  503  505 -0.34365890562E+02  0.51307354987E+02 -0.51506688721E+02  0.80413917283E+02  0.00000000000E+00 0.  1.
         21    1    1    2  504  502 -0.34365498532E+02 -0.13145175088E+02  0.25430049434E+02  0.44726619944E+02  0.00000000000E+00 0.  1.
         21    1    1    2  505  501 -0.10394786834E+02  0.44318029067E+02 -0.88512495867E+01  0.46373310351E+02  0.00000000000E+00 0.  1.
         -1    1    1    2    0  504  0.79126175928E+02 -0.82480208965E+02  0.45382473484E+03  0.46799660954E+03  0.00000000000E+00 0.  1.
<scales pt_clust_3="30.76729" pt_clust_4="36.79379" pt_clust_5="30.76729" pt_clust_6="113.31572"></scales>
<clustering>
<clus scale="   30.767">  3  5 -1 -1</clus>
<clus scale="   36.794">  2  4  1 -1</clus>
<clus scale="  113.316">  1  6  2 -1</clus>
<clus scale="   36.794">  2  3  1 -1</clus>
</clustering>
</event>
<event>
 6    0  0.1361744E+002  0.2113508E+03  0.7546771E-02  0.1140501E+00
         -3   -1    0    0    0  501 -0.00000000000E+00  0.00000000000E+00  0.22152300970E+03  0.22152300970E+03  0.00000000000E+00 0.  1.
         21   -1    0    0  504  502  0.00000000000E+00 -0.00000000000E+00 -0.14646508657E+04  0.14646508657E+04  0.00000000000E+00 0. -1.
         21    1    1    2  503  501  0.30589699973E+02  0.13160900497E+02 -0.16896066319E+02  0.37341881358E+02  0.00000000000E+00 0. -1.
         21    1    1    2  504  505 -0.17526267073E+02 -0.10353342919E+03 -0.53259550258E+03  0.54284833090E+03  0.00000000000E+00 0.  1.
         21    1    1    2  505  503  0.13089594011E+02 -0.99254398373E+02 -0.85180615628E+03  0.85766922584E+03  0.00000000000E+00 0. -1.
         -3    1    1    2    0  502 -0.26153026912E+02  0.18962692707E+03  0.15816986915E+03  0.24831443734E+03  0.00000000000E+00 0.  1.
<scales pt_clust_3="33.30074" pt_clust_4="59.79219" pt_clust_5="59.79219" pt_clust_6="202.31237"></scales>
<clustering>
<clus scale="   33.301">  1  3  2 -1</clus>
<clus scale="   59.792">  4  5 -1 -1</clus>
<clus scale="  202.312">  1  6  2 -1</clus>
<clus scale="  211.351">  2  3  1 -1</clus>
</clustering>
</event>
<event>
 6    0  0.1361744E+002  0.1816980E+03  0.7546771E-02  0.1166170E+00
         21   -1    0    0  504  502  0.00000000000E+00  0.00000000000E+00  0.13582459347E+04  0.13582459347E+04  0.00000000000E+00 0.  1.
          1   -1    0    0  505    0 -0.00000000000E+00 -0.00000000000E+00 -0.27011170742E+02  0.27011170742E+02  0.00000000000E+00 0.  1.
         21    1    1    2  503  502  0.11024534043E+03  0.24211993369E+02  0.71199012527E+03  0.72088153964E+03  0.00000000000E+00 0.  1.
         21    1    1    2  504  501 -0.56912294432E+02  0.18006604360E+02  0.13456435594E+03  0.14721009798E+03  0.00000000000E+00 0.  1.
         21    1    1    2  505  503  0.45066675615E+02  0.29904570647E+02  0.20537633305E+03  0.21237873428E+03  0.00000000000E+00 0.  1.
          1    1    1    2  501    0 -0.98399721614E+02 -0.72123168377E+02  0.27930394974E+03  0.30478673359E+03  0.00000000000E+00 0.  1.
<scales pt_clust_3="171.50370" pt_clust_4="54.01805" pt_clust_5="33.65025" pt_clust_6="54.01805"></scales>
<clustering>
<clus scale="   33.650">  3  5 -1 -1</clus>
<clus scale="   54.018">  4  6 -1 -1</clus>
<clus scale="  171.504">  1  3  2 -1</clus>
<clus scale="  171.504">  1  3  2 -1</clus>
</clustering>
</event>
<event>
 6    0  0.1361744E+002  0.1116706E+03  0.7546771E-02  0.1257507E+00
          1   -1    0    0  505    0 -0.00000000000E+00  0.00000000000E+00  0.24760895968E+03  0.24760895968E+03  0.00000000000E+00 0.  1.
         21   -1    0    0  501  502  0.00000000000E+00 -0.00000000000E+00 -0.29571858836E+04  0.29571858836E+04  0.00000000000E+00 0.  1.
         21    1    1    2  503  504  0.42618871346E+02  0.28042755790E+02 -0.17183753900E+04  0.17191325560E+04  0.00000000000E+00 0.  1.
         21    1    1    2  504  502  0.57415457310E+02 -0.26252280729E+01 -0.11919518501E+04  0.11933367670E+04  0.00000000000E+00 0.  1.
         21    1    1    2  505  503  0.86967750361E+01 -0.45451046856E+02 -0.16034657465E+02  0.48974909866E+02  0.00000000000E+00 0. -1.
          1    1    1    2  501    0 -0.10873110369E+03  0.20033519139E+02  0.21678497359E+03  0.24335061039E+03  0.00000000000E+00 0.  1.
<scales pt_clust_3="40.19321" pt_clust_4="40.19321" pt_clust_5="46.27560" pt_clust_6="103.20039"></scales>
<clustering>
<clus scale="   40.193">  3  4 -1 -1</clus>
<clus scale="   46.276">  1  5  2 -1</clus>
<clus scale="  103.200">  1  6  2 -1</clus>
<clus scale="  111.671">  2  3  1 -1</clus>
</clustering>
</event>
<event>
 6    0  0.1361744E+002  0.1092979E+03  0.7546771E-02  0.1261876E+00
          3   -1    0    0  505    0 -0.00000000000E+00  0.00000000000E+00  0.39887100192E+03  0.39887100192E+03  0.00000000000E+00 0.  1.
         21   -1    0    0  501  502  0.00000000000E+00 -0.00000000000E+00 -0.78034320609E+02  0.78034320609E+02  0.00000000000E+00 0. -1.
         21    1    1    2  503  504  0.67029130056E+02 -0.66548823568E+02  0.23554825891E+02  0.97347213710E+02  0.00000000000E+00 0. -1.
         21    1    1    2  504  502  0.59519975625E+02  0.29224879429E+02  0.24629346689E+02  0.70734191127E+02  0.00000000000E+00 0.  1.
         21    1    1    2  505  503 -0.16124278512E+02  0.25715270798E+02  0.33817973272E+02  0.45441421919E+02  0.00000000000E+00 0.  1.
          3    1    1    2  501    0 -0.11042482717E+03  0.11608673341E+02  0.23883453545E+03  0.26338249577E+03  0.00000000000E+00 0.  1.
<scales pt_clust_3="109.29793" pt_clust_4="66.01276" pt_clust_5="30.35239" pt_clust_6="14000.00000"></scales>
<clustering>
<clus scale="   30.352">  1  5  2 -1</clus>
<clus scale="   66.013">  2  4  1 -1</clus>
<clus scale="  109.298">  2  3  1 -1</clus>
<clus scale="   66.013">  2  3  1 -1</clus>
</clustering>
</event>
<event>
 6    0  0.1361744E+002  0.1163956E+03  0.7546771E-02  0.1249165E+00
          1   -1    0    0  505    0 -0.00000000000E+00  0.00000000000E+00  0.23191864352E+04  0.23191864352E+04  0.00000000000E+00 0. -1.
         21   -1    0    0  503  502  0.00000000000E+00 -0.00000000000E+00 -0.14513383492E+03  0.14513383492E+03  0.00000000000E+00 0.  1.
         21    1    1    2  503  504 -0.60997858330E+02 -0.86230595363E+02 -0.11544137311E+03  0.15647097150E+03  0.00000000000E+00 0.  1.
         21    1    1    2  504  501  0.25138073082E+02  0.70501996189E+02  0.78775235352E+03  0.79130033784E+03  0.00000000000E+00 0. -1.
         21    1    1    2  505  502  0.24231834810E+02 -0.52504682684E+02  0.12135727651E+03  0.13443032427E+03  0.00000000000E+00 0.  1.
          1    1    1    2  501    0  0.11627950437E+02  0.68233281859E+02  0.13803843434E+04  0.13821186365E+04  0.00000000000E+00 0. -1.
<scales pt_clust_3="105.89544" pt_clust_4="46.45901" pt_clust_5="57.82667" pt_clust_6="46.45901"></scales>
<clustering>
<clus scale="   46.459">  4  6 -1 -1</clus>
<clus scale="   57.827">  1  5  2 -1</clus>
<clus scale="  105.895">  2  3  1 -1</clus>
<clus scale="  105.895">  2  3  1 -1</clus>
</clustering>
</event>
<event>
 6    0  0.1361744E+002  0.1527319E+03  0.7546771E-02  0.1197156E+00
          2   -1    0    0  503    0 -0.00000000000E+00  0.00000000000E+00  0.15290735532E+04  0.15290735532E+04  0.00000000000E+00 0.  1.
         21   -1    0    0  504  502  0.00000000000E+00 -0.00000000000E+00 -0.36870128147E+03  0.36870128147E+03  0.00000000000E+00 0.  1.
         21    1    1    2  503  502  0.26696470368E+02 -0.20725691330E+02  0.10316016804E+03  0.10855540558E+03  0.00000000000E+00 0. -1.
         21    1    1    2  504  505  0.11141298964E+02  0.62417269671E+02 -0.16676430888E+03  0.17841070263E+03  0.00000000000E+00 0.  1.
         21    1    1    2  505  501 -0.21517835695E+02  0.85896422699E+02 -0.18018502594E+03  0.20076816545E+03  0.00000000000E+00 0.  1.
          2    1    1    2  501    0 -0.16319933637E+02 -0.12758800104E+03  0.14041614386E+04  0.14100405610E+04  0.00000000000E+00 0.  1.
<scales pt_clust_3="33.79728" pt_clust_4="30.48767" pt_clust_5="30.48767" pt_clust_6="148.42132"></scales>
<clustering>
<clus scale="   30.488">  4  5 -1 -1</clus>
<clus scale="   33.797">  1  3  2 -1</clus>
<clus scale="  148.421">  1  6  2 -1</clus>
<clus scale="  152.732">  2  3  1 -1</clus>
</clustering>
</event>
<event>
 6    0  0.1361744E+002  0.1028913E+03  0.7546771E-02  0.1274331E+00
          2   -1    0    0  504    0 -0.00000000000E+00  0.00000000000E+00  0.22156895638E+04  0.22156895638E+04  0.00000000000E+00 0.  1.
         21   -1    0    0  505  502  0.00000000000E+00 -0.00000000000E+00 -0.56855272411E+02  0.56855272411E+02  0.00000000000E+00 0.  1.
         21    1    1    2  503  501 -0.41229528677E+02  0.58124026988E+02  0.31706420647E+02  0.77997266994E+02  0.00000000000E+00 0.  1.
         21    1    1    2  504  502 -0.10403017632E+02  0.79747379782E+02  0.58234107393E+03  0.58786817718E+03  0.00000000000E+00 0. -1.
         21    1    1    2  505  503 -0.51582544791E+02 -0.32333961031E+01 -0.91860793013E+00  0.51691949257E+02  0.00000000000E+00 0.  1.
          2    1    1    2  501    0  0.10321509110E+03 -0.13463801067E+03  0.15457054047E+04  0.15549874428E+04  0.00000000000E+00 0.  1.
<scales pt_clust_3="14000.00000" pt_clust_4="80.87125" pt_clust_5="51.68379" pt_clust_6="102.89126"></scales>
<clustering>
<clus scale="   51.684">  2  5  1 -1</clus>
<clus scale="   80.871">  1  4  2 -1</clus>
<clus scale="  102.891">  1  6  2 -1</clus>
<clus scale="   51.684">  2  3  1 -1</clus>
</clustering>
</event>
<event>
 6    0  0.1682195E+002  0.1920604E+03  0.7546771E-02  0.1156616E+00
         21   -1    0    0  501  502  0.00000000000E+00  0.00000000000E+00  0.10023882182E+04  0.10023882182E+04  0.00000000000E+00 0. -1.
          1   -1    0    0  503    0 -0.00000000000E+00 -0.00000000000E+00 -0.81299852904E+03  0.81299852904E+03  0.00000000000E+00 0. -1.
         21    1    1    2  503  505  0.31884985292E+02 -0.13075150799E+02 -0.18939746352E+02  0.39323349900E+02  0.00000000000E+00 0. -1.
         21    1    1    2  504  502 -0.97719901108E+02 -0.21676044194E+02  0.57633336712E+03  0.58496083632E+03  0.00000000000E+00 0. -1.
         21    1    1    2  505  504 -0.90548315505E+02  0.42927374926E+01  0.39826223552E+03  0.40844856871E+03  0.00000000000E+00 0. -1.
          1    1    1    2  501    0  0.15638323132E+03  0.30458457501E+02 -0.76626616717E+03  0.78265399228E+03  0.00000000000E+00 0. -1.
<scales pt_clust_3="34.46174" pt_clust_4="34.02808" pt_clust_5="34.02808" pt_clust_6="188.70254"></scales>
<clustering>
<clus scale="   34.028">  4  5 -1 -1</clus>
<clus scale="   34.462">  2  3  1 -1</clus>
<clus scale="  188.703">  2  6  1 -1</clus>
<clus scale="  192.060">  1  3  2 -1</clus>
</clustering>
</event>
<event>
 6    0  0.1361744E+002  0.1330504E+03  0.7546771E-02  0.1222998E+00
         21   -1    0    0  501  502  0.00000000000E+00  0.00000000000E+00  0.96250629344E+03  0.96250629344E+03  0.00000000000E+00 0. -1.
         -1   -1    0    0    0  501 -0.00000000000E+00 -0.00000000000E+00 -0.26650955421E+03  0.26650955421E+03  0.00000000000E+00 0.  1.
         21    1    1    2  503  505  0.47329234917E+01 -0.71354622466E+02 -0.38227635317E+02  0.81087821613E+02  0.00000000000E+00 0.  1.
         21    1    1    2  504  502  0.24820457801E+02  0.42304103160E+02  0.38082059314E+03  0.38396616573E+03  0.00000000000E+00 0. -1.
         21    1    1    2  505  504 -0.45463247742E+01  0.87783037088E+02  0.55014542409E+03  0.55712343185E+03  0.00000000000E+00 0. -1.
         -1    1    1    2    0  503 -0.25007056518E+02 -0.58732517782E+02 -0.19674164268E+03  0.20683842845E+03  0.00000000000E+00 0.  1.
<scales pt_clust_3="126.82351" pt_clust_4="30.04901" pt_clust_5="30.04901" pt_clust_6="63.83464"></scales>
<clustering>
<clus scale="   30.049">  4  5 -1 -1</clus>
<clus scale="   63.835">  2  6  1 -1</clus>
<clus scale="  126.824">  2  3  1 -1</clus>
<clus scale="  133.050">  1  3  2 -1</clus>
</clustering>
</event>
<event>
 6    0  0.1361744E+002  0.9311237E+02  0.7546771E-02  0.1295485E+00
          1   -1    0    0  505    0 -0.00000000000E+00  0.00000000000E+00  0.26153223136E+04  0.26153223136E+04  0.00000000000E+00 0.  1.
         21   -1    0    0  503  502  0.00000000000E+00 -0.00000000000E+00 -0.15668547469E+03  0.15668547469E+03  0.00000000000E+00 0. -1.
         21    1    1    2  503  504  0.22647728162E+02  0.20702541613E+02  0.37330007962E+01  0.30910356114E+02  0.00000000000E+00 0.  1.
         21    1    1    2  504  501 -0.31004083934E+02 -0.57747671530E+02  0.12594798960E+03  0.14198219210E+03  0.00000000000E+00 0.  1.
         21    1    1    2  505  502  0.83329723453E+02 -0.18340346029E+02 -0.12063035888E+03  0.14775619983E+03  0.00000000000E+00 0. -1.
          1    1    1    2  501    0 -0.74973367681E+02  0.55385475946E+02  0.24495862074E+04  0.24513590403E+04  0.00000000000E+00 0.  1.
<scales pt_clust_3="30.68411" pt_clust_4="63.92466" pt_clust_5="14000.00000" pt_clust_6="93.11237"></scales>
<clustering>
<clus scale="   30.684">  2  3  1 -1</clus>
<clus scale="   63.925">  2  4  1 -1</clus>
<clus scale="   93.112">  1  6  2 -1</clus>
<clus scale="   30.684">  2  3  1 -1</clus>
</clustering>
</event>
<event>
 6    0  0.1361744E+002  0.8191372E+02  0.7546771E-02  0.1323707E+00
          3   -1    0    0  503    0 -0.00000000000E+00  0.00000000000E+00  0.37123253793E+03  0.37123253793E+03  0.00000000000E+00 0.  1.
         21   -1    0    0  505  502  0.00000000000E+00 -0.00000000000E+00 -0.19436253485E+03  0.19436253485E+03  0.00000000000E+00 0.  1.
         21    1    1    2  503  504  0.20388355757E+02 -0.66544978696E+02  0.21033451479E+03  0.22155028177E+03  0.00000000000E+00 0.  1.
         21    1    1    2  504  502 -0.10767631030E+02  0.41177808467E+02 -0.33982243422E+02  0.54464177733E+02  0.00000000000E+00 0.  1.
         21    1    1    2  505  501  0.71244776675E+02  0.23738042696E+02 -0.12171130930E+03  0.14301383040E+03  0.00000000000E+00 0.  1.
          3    1    1    2  501    0 -0.80865501403E+02  0.16291275333E+01  0.12222904102E+03  0.14656678288E+03  0.00000000000E+00 0.  1.
<scales pt_clust_3="68.00992" pt_clust_4="42.56235" pt_clust_5="14000.00000" pt_clust_6="81.91372"></scales>
<clustering>
<clus scale="   42.562">  2  4  1 -1</clus>
<clus scale="   68.010">  1  3  2 -1</clus>
<clus scale="   81.914">  1  6  2 -1</clus>
<clus scale="   42.562">  2  3  1 -1</clus>
</clustering>
</event>
<event>
 6    0  0.2673687E+002  0.8506725E+02  0.7546771E-02  0.1315257E+00
          2   -1    0    0  504    0 -0.00000000000E+00  0.00000000000E+00  0.20636648099E+04  0.20636648099E+04  0.00000000000E+00 0. -1.
         21   -1    0    0  505  502  0.00000000000E+00 -0.00000000000E+00 -0.14944771686E+04  0.14944771686E+04  0.00000000000E+00 0. -1.
         21    1    1    2  503  502 -0.20165884633E+02  0.28043844065E+02 -0.76270344643E+02  0.83727448098E+02  0.00000000000E+00 0.  1.
         21    1    1    2  504  503  0.78892410531E+02 -0.38366848376E+02  0.15626918813E+03  0.17920961652E+03  0.00000000000E+00 0.  1.
         21    1    1    2  505  501  0.19669340511E+02  0.49563319530E+02 -0.14014853078E+04  0.14024993667E+04  0.00000000000E+00 0. -1.
          2    1    1    2  501    0 -0.78395866408E+02 -0.39240315220E+02  0.18906741057E+04  0.18927055471E+04  0.00000000000E+00 0. -1.
<scales pt_clust_3="34.54157" pt_clust_4="14000.00000" pt_clust_5="77.36027" pt_clust_6="85.06725"></scales>
<clustering>
<clus scale="   34.542">  2  3  1 -1</clus>
<clus scale="   77.360">  2  5  1 -1</clus>
<clus scale="   85.067">  1  6  2 -1</clus>
<clus scale="   34.542">  2  3  1 -1</clus>
</clustering>
</event>
<event>
 6    0  0.1361744E+002  0.1085665E+03  0.7546771E-02  0.1263248E+00
         21   -1    0    0  505  502  0.00000000000E+00  0.00000000000E+00  0.32267986414E+02  0.32267986414E+02  0.00000000000E+00 0.  1.
          1   -1    0    0  504    0 -0.00000000000E+00 -0.00000000000E+00 -0.15859473844E+04  0.15859473844E+04  0.00000000000E+00 0.  1.
         21    1    1    2  503  501  0.81669208452E+01  0.33223807542E+02 -0.24286910890E+03  0.24526704638E+03  0.00000000000E+00 0. -1.
         21    1    1    2  504  502  0.28970752100E+02  0.44787063467E+02 -0.28997466607E+02  0.60712754845E+02  0.00000000000E+00 0.  1.
         21    1    1    2  505  503 -0.78915448282E+02 -0.12330722716E+03 -0.36372165472E+03  0.39207877060E+03  0.00000000000E+00 0.  1.
          1    1    1    2  501    0  0.41777775337E+02  0.45296356151E+02 -0.91809116780E+03  0.92015679902E+03  0.00000000000E+00 0.  1.
<scales pt_clust_3="30.93927" pt_clust_4="53.34028" pt_clust_5="100.31253" pt_clust_6="30.93927"></scales>
<clustering>
<clus scale="   30.939">  3  6 -1 -1</clus>
<clus scale="   53.340">  1  4  2 -1</clus>
<clus scale="  100.313">  1  5  2 -1</clus>
<clus scale="   53.340">  1  3  2 -1</clus>
</clustering>
</event>
<event>
 6    0  0.1361744E+002  0.2618986E+03  0.7546771E-02  0.1106008E+00
         21   -1    0    0  501  502  0.00000000000E+00  0.00000000000E+00  0.98835757360E+03  0.98835757360E+03  0.00000000000E+00 0. -1.
          1   -1    0    0  503    0 -0.00000000000E+00 -0.00000000000E+00 -0.65024421942E+03  0.65024421942E+03  0.00000000000E+00 0. -1.
         21    1    1    2  503  505 -0.66852262613E+02 -0.26897820630E+02 -0.13731585065E+03  0.15507533850E+03  0.00000000000E+00 0.  1.
         21    1    1    2  504  502  0.10344348749E+03 -0.15685405002E+03  0.83269513795E+03  0.85363044749E+03  0.00000000000E+00 0. -1.
         21    1    1    2  505  504  0.26230893727E+02 -0.50581732776E+02  0.98378652938E+02  0.11368786580E+03  0.00000000000E+00 0. -1.
          1    1    1    2  501    0 -0.62822118607E+02  0.23433360343E+03 -0.45564458605E+03  0.51620814123E+03  0.00000000000E+00 0. -1.
<scales pt_clust_3="72.06051" pt_clust_4="52.12976" pt_clust_5="52.12976" pt_clust_6="244.19175"></scales>
<clustering>
<clus scale="   52.130">  4  5 -1 -1</clus>
<clus scale="   72.061">  2  3  1 -1</clus>
<clus scale="  244.192">  2  6  1 -1</clus>
<clus scale="  261.899">  1  3  2 -1</clus>
</clustering>
</event>
<event>
 6    0  0.1361744E+002  0.6815744E+02  0.7546771E-02  0.1366473E+00
         21   -1    0    0  503  502  0.00000000000E+00  0.00000000000E+00  0.12554222522E+04  0.12554222522E+04  0.00000000000E+00 0.  1.
          2   -1    0    0  504    0 -0.00000000000E+00 -0.00000000000E+00 -0.15226889683E+03  0.15226889683E+03  0.00000000000E+00 0.  1.
         21    1    1    2  503  501  0.82436158962E+01  0.50552100600E+02  0.10290275599E+04  0.10303015049E+04  0.00000000000E+00 0.  1.
         21    1    1    2  504  505  0.43160016765E+02  0.37757989801E+00 -0.93302226171E+02  0.10280192130E+03  0.00000000000E+00 0.  1.
         21    1    1    2  505  502  0.49057887515E+02 -0.82642941943E+01  0.15729212671E+03  0.16497208252E+03  0.00000000000E+00 0. -1.
          2    1    1    2  501    0 -0.10046152018E+03 -0.42665386303E+02  0.10135894929E+02  0.10961564026E+03  0.00000000000E+00 0.  1.
<scales pt_clust_3="51.30826" pt_clust_4="43.16167" pt_clust_5="68.15744" pt_clust_6="14000.00000"></scales>
<clustering>
<clus scale="   43.162">  2  4  1 -1</clus>
<clus scale="   51.308">  1  3  2 -1</clus>
<clus scale="   68.157">  1  5  2 -1</clus>
<clus scale="   51.308">  1  3  2 -1</clus>
</clustering>
</event>
<event>
 6    0  0.1361744E+002  0.9448421E+02  0.7546771E-02  0.1292342E+00
          2   -1    0    0  504    0 -0.00000000000E+00  0.00000000000E+00  0.22579693843E+04  0.22579693843E+04  0.00000000000E+00 0. -1.
         21   -1    0    0  505  502  0.00000000000E+00 -0.00000000000E+00 -0.82700790265E+02  0.82700790265E+02  0.00000000000E+00 0. -1.
         21    1    1    2  503  502  0.90366531239E+01  0.43014625532E+02  0.90613143875E+02  0.10071077873E+03  0.00000000000E+00 0. -1.
         21    1    1    2  504  503 -0.13933675481E+02 -0.37317698844E+02  0.25565582066E+03  0.25874051982E+03  0.00000000000E+00 0. -1.
         21    1    1    2  505  501  0.85333267353E+02 -0.54851108512E+02 -0.40585109214E+02  0.10925914933E+03  0.00000000000E+00 0. -1.
          2    1    1    2  501    0 -0.80436244996E+02  0.49154181824E+02  0.18695847387E+04  0.18719597267E+04  0.00000000000E+00 0. -1.
<scales pt_clust_3="42.07146" pt_clust_4="39.83413" pt_clust_5="14000.00000" pt_clust_6="94.48421"></scales>
<clustering>
<clus scale="   39.834">  1  4  2 -1</clus>
<clus scale="   42.071">  2  3  1 -1</clus>
<clus scale="   94.484">  1  6  2 -1</clus>
<clus scale="   42.071">  2  3  1 -1</clus>
</clustering>
</event>
<event>
 6    0  0.1361744E+002  0.1540439E+03  0.7546771E-02  0.1195590E+00
          2   -1    0    0  505    0 -0.00000000000E+00  0.00000000000E+00  0.25853628821E+03  0.25853628821E+03  0.00000000000E+00 0.  1.
         21   -1    0    0  503  502  0.00000000000E+00 -0.00000000000E+00 -0.25683549286E+03  0.25683549286E+03  0.00000000000E+00 0. -1.
         21    1    1    2  503  501  0.42743077581E+02  0.97543548331E+01 -0.20567449125E+01  0.43890184767E+02  0.00000000000E+00 0. -1.
         21    1    1    2  504  502 -0.11604523448E+03  0.98247835910E+01 -0.12462955774E+03  0.17057417589E+03  0.00000000000E+00 0. -1.
         21    1    1    2  505  504 -0.57897767741E+02  0.34253101621E+02 -0.41937666942E+02  0.79272910812E+02  0.00000000000E+00 0. -1.
          2    1    1    2  501    0  0.13119992464E+03 -0.53832240046E+02  0.17032476494E+03  0.22163450961E+03  0.00000000000E+00 0.  1.
<scales pt_clust_3="43.84197" pt_clust_4="37.84798" pt_clust_5="37.84798" pt_clust_6="145.77254"></scales>
<clustering>
<clus scale="   37.848">  4  5 -1 -1</clus>
<clus scale="   43.842">  2  3  1 -1</clus>
<clus scale="  145.773">  1  6  2 -1</clus>
<clus scale="   43.842">  2  3  1 -1</clus>
</clustering>
</event>
<event>
 6    0  0.1361744E+002  0.1361762E+03  0.7546771E-02  0.1218569E+00
          1   -1    0    0  503    0 -0.00000000000E+00  0.00000000000E+00  0.16483363113E+04  0.16483363113E+04  0.00000000000E+00 0.  1.
         21   -1    0    0  504  502  0.00000000000E+00 -0.00000000000E+00 -0.20604977542E+02  0.20604977542E+02  0.00000000000E+00 0.  1.
         21    1    1    2  503  505 -0.72763218264E+02  0.49682353191E+01  0.16995679289E+03  0.18494453424E+03  0.00000000000E+00 0.  1.
         21    1    1    2  504  501  0.56280998359E+02 -0.44354177276E+02  0.58331146175E+03  0.58769643969E+03  0.00000000000E+00 0. -1.
         21    1    1    2  505  502 -0.40052200427E+02  0.43829973558E+02  0.79029860569E+02  0.98848187655E+02  0.00000000000E+00 0.  1.
          1    1    1    2  501    0  0.56534420332E+02 -0.44440316005E+01  0.79543321854E+03  0.79745212725E+03  0.00000000000E+00 0.  1.
<scales pt_clust_3="52.88387" pt_clust_4="45.28282" pt_clust_5="52.88387" pt_clust_6="133.04007"></scales>
<clustering>
<clus scale="   45.283">  4  6 -1 -1</clus>
<clus scale="   52.884">  3  5 -1 -1</clus>
<clus scale="  133.040">  1  4  2 -1</clus>
<clus scale="  136.176">  2  3  1 -1</clus>
</clustering>
</event>
<event>
 6    0  0.1361744E+002  0.9913022E+02  0.7546771E-02  0.1282136E+00
         21   -1    0    0  503  502  0.00000000000E+00  0.00000000000E+00  0.57495839972E+03  0.57495839972E+03  0.00000000000E+00 0.  1.
         -3   -1    0    0    0  501 -0.00000000000E+00 -0.00000000000E+00 -0.10656855578E+04  0.10656855578E+04  0.00000000000E+00 0. -1.
         21    1    1    2  503  505  0.83046023092E+01 -0.32848163904E+02  0.38497699003E+03  0.38646507105E+03  0.00000000000E+00 0.  1.
         21    1    1    2  504  501  0.61842300192E+02 -0.10066888389E+02 -0.13923722913E+03  0.15268535722E+03  0.00000000000E+00 0.  1.
         21    1    1    2  505  504 -0.29871610718E+01 -0.67877632490E+02  0.17142784216E+03  0.18440119629E+03  0.00000000000E+00 0.  1.
         -3    1    1    2    0  502 -0.67159741429E+02  0.11079268478E+03 -0.90789476112E+03  0.91709233294E+03  0.00000000000E+00 0. -1.
<scales pt_clust_3="33.88168" pt_clust_4="63.14474" pt_clust_5="14000.00000" pt_clust_6="99.13022"></scales>
<clustering>
<clus scale="   33.882">  1  3  2 -1</clus>
<clus scale="   63.145">  2  4  1 -1</clus>
<clus scale="   99.130">  2  6  1 -1</clus>
<clus scale="   33.882">  1  3  2 -1</clus>
</clustering>
</event>
<event>
 6    0  0.1361744E+002  0.2254910E+03  0.7546771E-02  0.1129854E+00
         21   -1    0    0  503  502  0.00000000000E+00  0.00000000000E+00  0.55509360387E+03  0.55509360387E+03  0.00000000000E+00 0.  1.
         -1   -1    0    0    0  501 -0.00000000000E+00 -0.00000000000E+00 -0.30558722817E+03  0.30558722817E+03  0.00000000000E+00 0.  1.
         21    1    1    2  503  501 -0.37719669163E+02 -0.52257377105E+02  0.39712682676E+02  0.75701413917E+02  0.00000000000E+00 0.  1.
         21    1    1    2  504  502  0.68429199063E+02 -0.48345810397E+00  0.73419903442E+02  0.10036568755E+03  0.00000000000E+00 0.  1.
         21    1    1    2  505  504  0.18281395634E+03  0.61772110656E+02  0.33902444416E+03  0.39009525763E+03  0.00000000000E+00 0.  1.
         -1    1    1    2    0  505 -0.21352348624E+03 -0.90312754474E+01 -0.20265065458E+03  0.29451847295E+03  0.00000000000E+00 0.  1.
<scales pt_clust_3="64.44848" pt_clust_4="35.54193" pt_clust_5="35.54193" pt_clust_6="217.44890"></scales>
<clustering>
<clus scale="   35.542">  4  5 -1 -1</clus>
<clus scale="   64.448">  1  3  2 -1</clus>
<clus scale="  217.449">  2  6  1 -1</clus>
<clus scale="   64.448">  1  3  2 -1</clus>
</clustering>
</event>
<event>
 6    0  0.1361744E+002  0.1807217E+03  0.7546771E-02  0.1167106E+00
         21   -1    0    0  503  502  0.00000000000E+00  0.00000000000E+00  0.11820126830E+03  0.11820126830E+03  0.00000000000E+00 0.  1.
          2   -1    0    0  502    0 -0.00000000000E+00 -0.00000000000E+00 -0.17313590191E+04  0.17313590191E+04  0.00000000000E+00 0.  1.
         21    1    1    2  503  504  0.80119619459E+02  0.36429092821E+02  0.34408414918E+02  0.94499583296E+02  0.00000000000E+00 0.  1.
         21    1    1    2  504  505  0.85078326019E+02  0.13419186817E+02  0.10864234066E+02  0.86812601129E+02  0.00000000000E+00 0. -1.
         21    1    1    2  505  501 -0.60935098138E+02 -0.63675230022E+00 -0.40978830878E+03  0.41429452042E+03  0.00000000000E+00 0.  1.
          2    1    1    2  501    0 -0.10426284734E+03 -0.49211527337E+02 -0.12486420910E+04  0.12539535825E+04  0.00000000000E+00 0.  1.
<scales pt_clust_3="175.56906" pt_clust_4="32.04433" pt_clust_5="39.05049" pt_clust_6="39.05049"></scales>
<clustering>
<clus scale="   32.044">  3  4 -1 -1</clus>
<clus scale="   39.050">  5  6 -1 -1</clus>
<clus scale="  175.569">  1  3  2 -1</clus>
<clus scale="  175.569">  1  3  2 -1</clus>
</clustering>
</event>
<event>
 6    0  0.1361744E+002  0.2263349E+03  0.7546771E-02  0.1129246E+00
         21   -1    0    0  504  502  0.00000000000E+00  0.00000000000E+00  0.60664099032E+02  0.60664099032E+02  0.00000000000E+00 0. -1.
          2   -1    0    0  505    0 -0.00000000000E+00 -0.00000000000E+00 -0.40214941952E+04  0.40214941952E+04  0.00000000000E+00 0.  1.
         21    1    1    2  503  501 -0.24773148324E+02  0.38444828679E+02 -0.55281736926E+03  0.55470600996E+03  0.00000000000E+00 0. -1.
         21    1    1    2  504  503  0.71902502026E+02  0.52561086872E+02 -0.16163997616E+03  0.18455383915E+03  0.00000000000E+00 0.  1.
         21    1    1    2  505  502  0.13496374226E+03 -0.97296252669E+02 -0.10606799401E+03  0.19731242196E+03  0.00000000000E+00 0. -1.
          2    1    1    2  501    0 -0.18209309596E+03  0.62903371185E+01 -0.31403047567E+04  0.31455860231E+04  0.00000000000E+00 0.  1.
<scales pt_clust_3="45.41076" pt_clust_4="89.06536" pt_clust_5="207.39405" pt_clust_6="45.41076"></scales>
<clustering>
<clus scale="   45.411">  3  6 -1 -1</clus>
<clus scale="   89.065">  1  4  2 -1</clus>
<clus scale="  207.394">  1  5  2 -1</clus>
<clus scale="   89.065">  1  3  2 -1</clus>
</clustering>
</event>
<event>
 6    0  0.1361744E+002  0.8356007E+02  0.7546771E-02  0.1319242E+00
         -1   -1    0    0    0  501 -0.00000000000E+00  0.00000000000E+00  0.62809879695E+03  0.62809879695E+03  0.00000000000E+00 0.  1.
         21   -1    0    0  505  502  0.00000000000E+00 -0.00000000000E+00 -0.84433947520E+02  0.84433947520E+02  0.00000000000E+00 0. -1.
         21    1    1    2  503  502 -0.14577115472E+02 -0.48424796336E+02 -0.28404415867E+02  0.58002276131E+02  0.00000000000E+00 0. -1.
         21    1    1    2  504  501 -0.94341219209E+01  0.51844797829E+02  0.16157270915E+03  0.16994889250E+03  0.00000000000E+00 0. -1.
         21    1    1    2  505  504 -0.68229151538E+02  0.49947549682E+02  0.30443916711E+02  0.89871057096E+02  0.00000000000E+00 0.  1.
         -1    1    1    2    0  503  0.92240388931E+02 -0.53367551176E+02  0.38005263944E+03  0.39471051875E+03  0.00000000000E+00 0.  1.
<scales pt_clust_3="50.57127" pt_clust_4="48.17860" pt_clust_5="14000.00000" pt_clust_6="83.56007"></scales>
<clustering>
<clus scale="   50.571">  2  3  1 -1</clus>
<clus scale="   48.179">  1  4  2 -1</clus>
<clus scale="   83.560">  1  6  2 -1</clus>
<clus scale="   50.571">  2  3  1 -1</clus>
</clustering>
</event>
<event>
 6    0  0.1361744E+002  0.1183077E+03  0.7546771E-02  0.1245915E+00
         21   -1    0    0  501  502  0.00000000000E+00  0.00000000000E+00  0.44901015308E+03  0.44901015308E+03  0.00000000000E+00 0. -1.
          2   -1    0    0  503    0 -0.00000000000E+00 -0.00000000000E+00 -0.64102917039E+02  0.64102917039E+02  0.00000000000E+00 0. -1.
         21    1    1    2  503  505 -0.25029623844E+02  0.17971316684E+02  0.16191586678E+01  0.30855663466E+02  0.00000000000E+00 0. -1.
         21    1    1    2  504  502 -0.11963117799E+03 -0.26365153541E+02  0.11518847652E+03  0.16815208946E+03  0.00000000000E+00 0. -1.
         21    1    1    2  505  504  0.27316501757E+02  0.32237992307E+02  0.51555408680E+02  0.66659129760E+02  0.00000000000E+00 0. -1.
          2    1    1    2  501    0  0.11734430008E+03 -0.23844155450E+02  0.21654419218E+03  0.24744618743E+03  0.00000000000E+00 0. -1.
<scales pt_clust_3="30.81315" pt_clust_4="118.30768" pt_clust_5="42.13951" pt_clust_6="14000.00000"></scales>
<clustering>
<clus scale="   30.813">  2  3  1 -1</clus>
<clus scale="   42.140">  2  5  1 -1</clus>
<clus scale="  118.308">  2  4  1 -1</clus>
<clus scale="  118.308">  1  3  2 -1</clus>
</clustering>
</event>
<event>
 6    0  0.1361744E+002  0.1963950E+03  0.7546771E-02  0.1152817E+00
          3   -1    0    0  505    0 -0.00000000000E+00  0.00000000000E+00  0.21128832060E+03  0.21128832060E+03  0.00000000000E+00 0. -1.
         21   -1    0    0  504  502  0.00000000000E+00 -0.00000000000E+00 -0.64803776789E+03  0.64803776789E+03  0.00000000000E+00 0.  1.
         21    1    1    2  503  502  0.11086431617E+01 -0.13448277851E+03 -0.22381525550E+03  0.26111322333E+03  0.00000000000E+00 0.  1.
         21    1    1    2  504  501 -0.12652746271E+03 -0.71112049178E+02 -0.28292632604E+03  0.31798337744E+03  0.00000000000E+00 0.  1.
         21    1    1    2  505  503  0.19726788254E+01  0.80084074350E+02 -0.19926964144E+02  0.82549587075E+02  0.00000000000E+00 0. -1.
          3    1    1    2  501    0  0.12344614072E+03  0.12551075334E+03  0.89919098388E+02  0.19767990064E+03  0.00000000000E+00 0. -1.
<scales pt_clust_3="126.19140" pt_clust_4="196.39500" pt_clust_5="80.10837" pt_clust_6="14000.00000"></scales>
<clustering>
<clus scale="   80.108">  1  5  2 -1</clus>
<clus scale="  126.191">  2  3  1 -1</clus>
<clus scale="  196.395">  2  4  1 -1</clus>
<clus scale="  126.191">  2  3  1 -1</clus>
</clustering>
</event>
<event>
 6    0  0.1361744E+002  0.1921998E+03  0.7546771E-02  0.1156492E+00
         -1   -1    0    0    0  501 -0.00000000000E+00  0.00000000000E+00  0.90743322016E+03  0.90743322016E+03  0.00000000000E+00 0.  1.
         21   -1    0    0  505  502  0.00000000000E+00 -0.00000000000E+00 -0.80150391846E+02  0.80150391846E+02  0.00000000000E+00 0.  1.
         21    1    1    2  503  504  0.97061250608E+02 -0.99179469614E+02  0.45472125534E+03  0.47542494005E+03  0.00000000000E+00 0.  1.
         21    1    1    2  504  502 -0.75578939011E+02  0.14878948098E+03  0.54909644726E+02  0.17568595492E+03  0.00000000000E+00 0.  1.
         21    1    1    2  505  501 -0.14661732917E+02  0.28270590737E+02  0.73304402207E+02  0.79923263796E+02  0.00000000000E+00 0. -1.
         -1    1    1    2    0  503 -0.68205786799E+01 -0.77880602100E+02  0.24434752605E+03  0.25654945325E+03  0.00000000000E+00 0.  1.
<scales pt_clust_3="66.18636" pt_clust_4="171.30401" pt_clust_5="31.84639" pt_clust_6="66.18636"></scales>
<clustering>
<clus scale="   31.846">  1  5  2 -1</clus>
<clus scale="   66.186">  3  6 -1 -1</clus>
<clus scale="  171.304">  2  4  1 -1</clus>
<clus scale="  171.304">  2  3  1 -1</clus>
</clustering>
</event>
<event>
 6    0  0.1361744E+002  0.1495941E+03  0.7546771E-02  0.1200973E+00
         21   -1    0    0  503  502  0.00000000000E+00  0.00000000000E+00  0.21813350933E+02  0.21813350933E+02  0.00000000000E+00 0.  1.
          1   -1    0    0  504    0 -0.00000000000E+00 -0.00000000000E+00 -0.16764864224E+04  0.16764864224E+04  0.00000000000E+00 0.  1.
         21    1    1    2  503  505 -0.57093037187E+01  0.37696997594E+02 -0.49085502801E+02  0.62153409897E+02  0.00000000000E+00 0.  1.
         21    1    1    2  504  502  0.12540489994E+03  0.34239162000E+02 -0.39396520971E+03  0.41485816324E+03  0.00000000000E+00 0.  1.
         21    1    1    2  505  501 -0.15663592335E+02 -0.42373882377E+02 -0.36664094071E+03  0.36941368875E+03  0.00000000000E+00 0.  1.
          1    1    1    2  501    0 -0.10403200389E+03 -0.29562277218E+02 -0.84498141820E+03  0.85187451140E+03  0.00000000000E+00 0.  1.
<scales pt_clust_3="38.12689" pt_clust_4="135.51422" pt_clust_5="39.70540" pt_clust_6="39.70540"></scales>
<clustering>
<clus scale="   38.127">  1  3  2 -1</clus>
<clus scale="   39.705">  5  6 -1 -1</clus>
<clus scale="  135.514">  1  4  2 -1</clus>
<clus scale="   38.127">  1  3  2 -1</clus>
</clustering>
</event>
<event>
 6    0  0.1361744E+002  0.1028126E+03  0.7546771E-02  0.1274490E+00
         21   -1    0    0  505  502  0.00000000000E+00  0.00000000000E+00  0.53621022442E+02  0.53621022442E+02  0.00000000000E+00 0.  1.
          2   -1    0    0  503    0 -0.00000000000E+00 -0.00000000000E+00 -0.18992988258E+04  0.18992988258E+04  0.00000000000E+00 0.  1.
         21    1    1    2  503  504  0.19493865241E+02 -0.91545141439E+02 -0.57940873280E+03  0.58691992925E+03  0.00000000000E+00 0.  1.
         21    1    1    2  504  502 -0.26791758766E+02  0.22081134258E+02 -0.13186753970E+02  0.37138461306E+02  0.00000000000E+00 0.  1.
         21    1    1    2  505  501 -0.11721670396E+02 -0.40540882176E+02  0.22893590085E+02  0.48011219017E+02  0.00000000000E+00 0.  1.
          2    1    1    2  501    0  0.19019563921E+02  0.11000488936E+03 -0.12759759067E+04  0.12808502387E+04  0.00000000000E+00 0.  1.
<scales pt_clust_3="14000.00000" pt_clust_4="34.71851" pt_clust_5="40.80503" pt_clust_6="102.81263"></scales>
<clustering>
<clus scale="   34.719">  1  4  2 -1</clus>
<clus scale="   40.805">  1  5  2 -1</clus>
<clus scale="  102.813">  2  6  1 -1</clus>
<clus scale="   34.719">  1  3  2 -1</clus>
</clustering>
</event>
<event>
 6    0  0.1361744E+002  0.2074774E+03  0.7546771E-02  0.1143579E+00
         21   -1    0    0  503  502  0.00000000000E+00  0.00000000000E+00  0.80661686659E+03  0.80661686659E+03  0.00000000000E+00 0. -1.
          2   -1    0    0  504    0 -0.00000000000E+00 -0.00000000000E+00 -0.38449710723E+03  0.38449710723E+03  0.00000000000E+00 0.  1.
         21    1    1    2  503  501 -0.82396298873E+02  0.91059576121E+02 -0.11644408317E+03  0.16923421928E+03  0.00000000000E+00 0.  1.
         21    1    1    2  504  505  0.14364287831E+03 -0.31640571617E+02  0.44357904844E+03  0.46732940682E+03  0.00000000000E+00 0. -1.
         21    1    1    2  505  502  0.35140580679E+02 -0.51580632905E+02  0.31135684406E+03  0.31755079348E+03  0.00000000000E+00 0. -1.
          2    1    1    2  501    0 -0.96387160114E+02 -0.78383715993E+01 -0.21637204996E+03  0.23699955424E+03  0.00000000000E+00 0.  1.
<scales pt_clust_3="189.28137" pt_clust_4="55.34826" pt_clust_5="55.34826" pt_clust_6="96.70535"></scales>
<clustering>
<clus scale="   55.348">  4  5 -1 -1</clus>
<clus scale="   96.705">  2  6  1 -1</clus>
<clus scale="  189.281">  2  3  1 -1</clus>
<clus scale="  207.477">  1  3  2 -1</clus>
</clustering>
</event>
<event>
 6    0  0.1361744E+002  0.1186052E+03  0.7546771E-02  0.1245416E+00
         21   -1    0    0  504  502  0.00000000000E+00  0.00000000000E+00  0.15093971688E+03  0.15093971688E+03  0.00000000000E+00 0.  1.
         -4   -1    0    0    0  501 -0.00000000000E+00 -0.00000000000E+00 -0.14438160095E+04  0.14438160095E+04  0.00000000000E+00 0.  1.
         21    1    1    2  503  505 -0.93607409200E+02  0.17062745171E+02 -0.56656164372E+03  0.57449593599E+03  0.00000000000E+00 0.  1.
         21    1    1    2  504  501  0.55281349364E+02 -0.21835670109E+02 -0.30031551358E+02  0.66593679531E+02  0.00000000000E+00 0. -1.
         21    1    1    2  505  502  0.42303446950E+02 -0.58092439384E+02  0.11734597958E+03  0.13760229671E+03  0.00000000000E+00 0.  1.
         -4    1    1    2    0  503 -0.39773871140E+01  0.62865364321E+02 -0.81362907710E+03  0.81606381414E+03  0.00000000000E+00 0.  1.
<scales pt_clust_3="14000.00000" pt_clust_4="59.43756" pt_clust_5="118.60519" pt_clust_6="62.76099"></scales>
<clustering>
<clus scale="   59.438">  1  4  2 -1</clus>
<clus scale="   62.761">  2  6  1 -1</clus>
<clus scale="  118.605">  1  5  2 -1</clus>
<clus scale="   59.438">  1  3  2 -1</clus>
</clustering>
</event>
<event>
 6    0  0.1361744E+002  0.1262323E+03  0.7546771E-02  0.1233156E+00
         21   -1    0    0  503  502  0.00000000000E+00  0.00000000000E+00  0.19201705993E+03  0.19201705993E+03  0.00000000000E+00 0.  1.
          2   -1    0    0  504    0 -0.00000000000E+00 -0.00000000000E+00 -0.22139142148E+04  0.22139142148E+04  0.00000000000E+00 0. -1.
         21    1    1    2  503  505  0.13191809582E+02 -0.43554475723E+02  0.11031590564E+03  0.11933404893E+03  0.00000000000E+00 0.  1.
         21    1    1    2  504  502 -0.52027802059E+02  0.15717682031E+02 -0.33360196299E+02  0.63771783828E+02  0.00000000000E+00 0. -1.
         21    1    1    2  505  501 -0.80994984803E+02 -0.16155243455E+02  0.31690313041E+02  0.88461604071E+02  0.00000000000E+00 0.  1.
          2    1    1    2  501    0  0.11983097728E+03  0.43992037147E+02 -0.21305431773E+04  0.21343638379E+04  0.00000000000E+00 0. -1.
<scales pt_clust_3="45.50842" pt_clust_4="49.94194" pt_clust_5="14000.00000" pt_clust_6="126.23235"></scales>
<clustering>
<clus scale="   45.508">  1  3  2 -1</clus>
<clus scale="   49.942">  1  4  2 -1</clus>
<clus scale="  126.232">  2  6  1 -1</clus>
<clus scale="   45.508">  1  3  2 -1</clus>
</clustering>
</event>
<event>
 6    0  0.1361744E+002  0.7834725E+02  0.7546771E-02  0.1333808E+00
          2   -1    0    0  505    0 -0.00000000000E+00  0.00000000000E+00  0.30136486558E+04  0.30136486558E+04  0.00000000000E+00 0.  1.
         21   -1    0    0  503  502  0.00000000000E+00 -0.00000000000E+00 -0.14408480737E+02  0.14408480737E+02  0.00000000000E+00 0.  1.
         21    1    1    2  503  504 -0.14066803167E+02  0.60504187688E+02  0.11493926046E+03  0.13065092910E+03  0.00000000000E+00 0.  1.
         21    1    1    2  504  501 -0.14764807391E+02  0.55809324459E+02  0.33843827047E+03  0.34332658381E+03  0.00000000000E+00 0.  1.
         21    1    1    2  505  502 -0.24585454026E+02 -0.48412664836E+02  0.21959618562E+03  0.22620945030E+03  0.00000000000E+00 0.  1.
          2    1    1    2  501    0  0.53417064583E+02 -0.67900847311E+02  0.23262664585E+04  0.23278701733E+04  0.00000000000E+00 0.  1.
<scales pt_clust_3="40.97390" pt_clust_4="14000.00000" pt_clust_5="54.29761" pt_clust_6="78.34725"></scales>
<clustering>
<clus scale="   54.298">  2  5  1 -1</clus>
<clus scale="   40.974">  2  3  1 -1</clus>
<clus scale="   78.347">  1  6  2 -1</clus>
<clus scale="   54.298">  2  3  1 -1</clus>
</clustering>
</event>
<event>
 6    0  0.1361744E+002  0.1675614E+03  0.7546771E-02  0.1180415E+00
          2   -1    0    0  503    0 -0.00000000000E+00  0.00000000000E+00  0.28179900395E+04  0.28179900395E+04  0.00000000000E+00 0.  1.
         21   -1    0    0  505  502  0.00000000000E+00 -0.00000000000E+00 -0.16324698274E+03  0.16324698274E+03  0.00000000000E+00 0.  1.
         21    1    1    2  503  504  0.49329758534E+02  0.71406554710E+02  0.93899533523E+03  0.94299764619E+03  0.00000000000E+00 0.  1.
         21    1    1    2  504  502 -0.24732143733E+02  0.22720711035E+02 -0.13288998494E+02  0.36117961246E+02  0.00000000000E+00 0. -1.
         21    1    1    2  505  501  0.12229186526E+02 -0.19193862819E+03 -0.66534339679E+02  0.20351119957E+03  0.00000000000E+00 0.  1.
          2    1    1    2  501    0 -0.36826801327E+02  0.97811362448E+02  0.17955710597E+04  0.17986102153E+04  0.00000000000E+00 0.  1.
<scales pt_clust_3="86.85724" pt_clust_4="33.58437" pt_clust_5="14000.00000" pt_clust_6="167.56144"></scales>
<clustering>
<clus scale="   33.584">  2  4  1 -1</clus>
<clus scale="   86.857">  1  3  2 -1</clus>
<clus scale="  167.561">  1  6  2 -1</clus>
<clus scale="   33.584">  2  3  1 -1</clus>
</clustering>
</event>
<event>
 6    0  0.1361744E+002  0.7578329E+02  0.7546771E-02  0.1341462E+00
         21   -1    0    0  504  502  0.00000000000E+00  0.00000000000E+00  0.18007995655E+03  0.18007995655E+03  0.00000000000E+00 0. -1.
          1   -1    0    0  505    0 -0.00000000000E+00 -0.00000000000E+00 -0.91648656407E+03  0.91648656407E+03  0.00000000000E+00 0. -1.
         21    1    1    2  503  502  0.65236218607E+02 -0.32788128673E+02  0.12257877757E+03  0.14267579441E+03  0.00000000000E+00 0. -1.
         21    1    1    2  504  501 -0.65509424233E+02  0.78984830205E+02 -0.34070126217E+02  0.10812428759E+03  0.00000000000E+00 0. -1.
         21    1    1    2  505  503 -0.64676522891E+02 -0.42583128634E+02 -0.16081254782E+03  0.17848543636E+03  0.00000000000E+00 0.  1.
          1    1    1    2  501    0  0.64949728517E+02 -0.36135728980E+01 -0.66410271106E+03  0.66728100226E+03  0.00000000000E+00 0. -1.
<scales pt_clust_3="14000.00000" pt_clust_4="75.78329" pt_clust_5="49.57509" pt_clust_6="65.05017"></scales>
<clustering>
<clus scale="   65.050">  2  6  1 -1</clus>
<clus scale="   49.575">  2  5  1 -1</clus>
<clus scale="   75.783">  2  4  1 -1</clus>
<clus scale="   75.783">  1  3  2 -1</clus>
</clustering>
</event>
<event>
 6    0  0.1361744E+002  0.6820637E+02  0.7546771E-02  0.1366301E+00
         21   -1    0    0  505  502  0.00000000000E+00  0.00000000000E+00  0.47459101748E+03  0.47459101748E+03  0.00000000000E+00 0.  1.
          1   -1    0    0  503    0 -0.00000000000E+00 -0.00000000000E+00 -0.88184391117E+02  0.88184391117E+02  0.00000000000E+00 0.  1.
         21    1    1    2  503  502 -0.56461189537E+02  0.22976135544E+01  0.18492928879E+03  0.19337007733E+03  0.00000000000E+00 0.  1.
         21    1    1    2  504  501 -0.43954174771E+01 -0.60222528811E+02 -0.75905741010E+00  0.60387489096E+02  0.00000000000E+00 0.  1.
         21    1    1    2  505  504  0.96718637186E+02  0.38413262070E+02  0.23477820886E+03  0.25680903574E+03  0.00000000000E+00 0.  1.
          1    1    1    2  501    0 -0.35862030172E+02  0.19511653187E+02 -0.32541813883E+02  0.52208806431E+02  0.00000000000E+00 0.  1.
<scales pt_clust_3="14000.00000" pt_clust_4="55.04959" pt_clust_5="68.20637" pt_clust_6="40.82634"></scales>
<clustering>
<clus scale="   40.826">  2  6  1 -1</clus>
<clus scale="   55.050">  2  4  1 -1</clus>
<clus scale="   68.206">  2  5  1 -1</clus>
<clus scale="   68.206">  1  3  2 -1</clus>
</clustering>
</event>
<event>
 6    0  0.1361744E+002  0.1590733E+03  0.7546771E-02  0.1189747E+00
         21   -1    0    0  505  502  0.00000000000E+00  0.00000000000E+00  0.45265166875E+03  0.45265166875E+03  0.00000000000E+00 0. -1.
          2   -1    0    0  504    0 -0.00000000000E+00 -0.00000000000E+00 -0.22089603499E+04  0.22089603499E+04  0.00000000000E+00 0.  1.
         21    1    1    2  503  502 -0.19197613602E+03 -0.89388691527E+02  0.20797207708E+03  0.29681233097E+03  0.00000000000E+00 0. -1.
         21    1    1    2  504  503  0.24935345672E+02 -0.37741133359E+02 -0.18632708664E+03  0.19173927043E+03  0.00000000000E+00 0.  1.
         21    1    1    2  505  501  0.55735310476E+02  0.95996276180E+01  0.19011357226E+03  0.19834754358E+03  0.00000000000E+00 0. -1.
          2    1    1    2  501    0  0.11130547987E+03  0.11753019727E+03 -0.19680672439E+04  0.19747128737E+04  0.00000000000E+00 0.  1.
<scales pt_clust_3="159.07328" pt_clust_4="45.23455" pt_clust_5="56.59306" pt_clust_6="14000.00000"></scales>
<clustering>
<clus scale="   45.235">  2  4  1 -1</clus>
<clus scale="   56.593">  1  5  2 -1</clus>
<clus scale="  159.073">  1  3  2 -1</clus>
<clus scale="   56.593">  1  3  2 -1</clus>
</clustering>
</event>
<event>
 6    0  0.1361744E+002  0.7562753E+02  0.7546771E-02  0.1341939E+00
         21   -1    0    0  505  502  0.00000000000E+00  0.00000000000E+00  0.12498427501E+03  0.12498427501E+03  0.00000000000E+00 0.  1.
          2   -1    0    0  504    0 -0.00000000000E+00 -0.00000000000E+00 -0.43625909605E+03  0.43625909605E+03  0.00000000000E+00 0.  1.
         21    1    1    2  503  502 -0.25254228969E+02 -0.83109310456E+02  0.47507215532E+02  0.99004389260E+02  0.00000000000E+00 0.  1.
         21    1    1    2  504  503 -0.15663980339E+02 -0.27509431042E+02 -0.48949467243E+02  0.58293905511E+02  0.00000000000E+00 0.  1.
         21    1    1    2  505  501  0.67897047943E+02  0.33525849945E+02  0.76648687339E+01  0.76110064687E+02  0.00000000000E+00 0.  1.
          2    1    1    2  501    0 -0.26978838635E+02  0.77092891553E+02 -0.31749743806E+03  0.32783501161E+03  0.00000000000E+00 0.  1.
<scales pt_clust_3="75.62753" pt_clust_4="31.65642" pt_clust_5="14000.00000" pt_clust_6="67.22897"></scales>
<clustering>
<clus scale="   31.656">  2  4  1 -1</clus>
<clus scale="   67.229">  2  6  1 -1</clus>
<clus scale="   75.628">  1  3  2 -1</clus>
<clus scale="   75.628">  1  3  2 -1</clus>
</clustering>
</event>
<event>
 6    0  0.1361744E+002  0.6692990E+02  0.7546771E-02  0.1370856E+00
         21   -1    0    0  503  502  0.00000000000E+00  0.00000000000E+00  0.14448891524E+03  0.14448891524E+03  0.00000000000E+00 0.  1.
         -1   -1    0    0    0  501 -0.00000000000E+00 -0.00000000000E+00 -0.31691900244E+03  0.31691900244E+03  0.00000000000E+00 0. -1.
         21    1    1    2  503  504  0.35713869181E+02  0.84121059730E+02  0.21775999639E+01  0.91414304590E+02  0.00000000000E+00 0.  1.
         21    1    1    2  504  501  0.64031974961E+02  0.43494966364E+01 -0.68393435575E+02  0.93790585712E+02  0.00000000000E+00 0.  1.
         21    1    1    2  505  502 -0.48194049188E+02 -0.26381240013E+02  0.66084872262E+02  0.85940948003E+02  0.00000000000E+00 0.  1.
         -1    1    1    2    0  505 -0.51551794953E+02 -0.62089316353E+02 -0.17229912386E+03  0.19026207938E+03  0.00000000000E+00 0. -1.
<scales pt_clust_3="14000.00000" pt_clust_4="55.09727" pt_clust_5="54.94212" pt_clust_6="66.92990"></scales>
<clustering>
<clus scale="   54.942">  1  5  2 -1</clus>
<clus scale="   55.097">  2  4  1 -1</clus>
<clus scale="   66.930">  2  6  1 -1</clus>
<clus scale="   54.942">  1  3  2 -1</clus>
</clustering>
</event>
<event>
 6    0  0.1361744E+002  0.1914707E+03  0.7546771E-02  0.1157141E+00
          2   -1    0    0  503    0 -0.00000000000E+00  0.00000000000E+00  0.32483702694E+04  0.32483702694E+04  0.00000000000E+00 0. -1.
         21   -1    0    0  505  502  0.00000000000E+00 -0.00000000000E+00 -0.30231747861E+02  0.30231747861E+02  0.00000000000E+00 0.  1.
         21    1    1    2  503  502 -0.22265053330E+02  0.14008635166E+03  0.18534383527E+03  0.23339292148E+03  0.00000000000E+00 0.  1.
         21    1    1    2  504  501 -0.11796513806E+02 -0.55996004816E+02  0.78228572664E+03  0.78437597388E+03  0.00000000000E+00 0. -1.
         21    1    1    2  505  504 -0.13484048091E+02  0.47820144066E+02  0.22237615745E+03  0.22785903786E+03  0.00000000000E+00 0.  1.
          2    1    1    2  501    0  0.47545615227E+02 -0.13191049091E+03  0.20281328022E+04  0.20329740840E+04  0.00000000000E+00 0. -1.
<scales pt_clust_3="185.03741" pt_clust_4="31.44100" pt_clust_5="49.68486" pt_clust_6="31.44100"></scales>
<clustering>
<clus scale="   31.441">  4  6 -1 -1</clus>
<clus scale="   49.685">  2  5  1 -1</clus>
<clus scale="  185.037">  2  3  1 -1</clus>
<clus scale="   49.685">  2  3  1 -1</clus>
</clustering>
</event>
<event>
 6    0  0.1361744E+002  0.1493295E+03  0.7546771E-02  0.1201299E+00
         21   -1    0    0  504  502  0.00000000000E+00  0.00000000000E+00  0.34005807352E+03  0.34005807352E+03  0.00000000000E+00 0.  1.
          2   -1    0    0  505    0 -0.00000000000E+00 -0.00000000000E+00 -0.15876681824E+04  0.15876681824E+04  0.00000000000E+00 0.  1.
         21    1    1    2  503  502  0.11131856823E+02  0.33736409052E+02 -0.29167379054E+01  0.35645068271E+02  0.00000000000E+00 0.  1.
         21    1    1    2  504  501 -0.73496622401E+02 -0.16975827669E+03  0.29228774678E+03  0.34590714495E+03  0.00000000000E+00 0.  1.
         21    1    1    2  505  503 -0.17201529313E+02  0.37553255580E+02 -0.33140706542E+03  0.33397123024E+03  0.00000000000E+00 0.  1.
          2    1    1    2  501    0  0.79566294891E+02  0.98468612063E+02 -0.12055740523E+04  0.12122028124E+04  0.00000000000E+00 0.  1.
<scales pt_clust_3="35.52553" pt_clust_4="14000.00000" pt_clust_5="41.40868" pt_clust_6="149.32950"></scales>
<clustering>
<clus scale="   35.526">  1  3  2 -1</clus>
<clus scale="   41.409">  2  5  1 -1</clus>
<clus scale="  149.330">  2  6  1 -1</clus>
<clus scale="   35.526">  1  3  2 -1</clus>
</clustering>
</event>
<event>
 6    0  0.1361744E+002  0.1847516E+03  0.7546771E-02  0.1163282E+00
         21   -1    0    0  505  502  0.00000000000E+00  0.00000000000E+00  0.46090159344E+03  0.46090159344E+03  0.00000000000E+00 0. -1.
          1   -1    0    0  504    0 -0.00000000000E+00 -0.00000000000E+00 -0.23749912293E+03  0.23749912293E+03  0.00000000000E+00 0. -1.
         21    1    1    2  503  501  0.14038419703E+03  0.12144223881E+02  0.20987261335E+03  0.25278789288E+03  0.00000000000E+00 0. -1.
         21    1    1    2  504  502 -0.51143174915E+02  0.74022043896E+02  0.16943196371E+02  0.91553040508E+02  0.00000000000E+00 0. -1.
         21    1    1    2  505  503  0.35163770891E+02 -0.15567077581E+02  0.14376698622E+03  0.14882127205E+03  0.00000000000E+00 0. -1.
          1    1    1    2  501    0 -0.12440479301E+03 -0.70599190196E+02 -0.14718032543E+03  0.20523851094E+03  0.00000000000E+00 0. -1.
<scales pt_clust_3="38.38959" pt_clust_4="89.97159" pt_clust_5="38.38959" pt_clust_6="169.50812"></scales>
<clustering>
<clus scale="   38.390">  3  5 -1 -1</clus>
<clus scale="   89.972">  2  4  1 -1</clus>
<clus scale="  169.508">  2  6  1 -1</clus>
<clus scale="  184.752">  1  3  2 -1</clus>
</clustering>
</event>
<event>
 6    0  0.1361744E+002  0.7858525E+02  0.7546771E-02  0.1333115E+00
         21   -1    0    0  504  502  0.00000000000E+00  0.00000000000E+00  0.12348728195E+02  0.12348728195E+02  0.00000000000E+00 0.  1.
          2   -1    0    0  503    0 -0.00000000000E+00 -0.00000000000E+00 -0.16787419218E+04  0.16787419218E+04  0.00000000000E+00 0.  1.
         21    1    1    2  503  505 -0.34699509156E+02 -0.29050186311E+02 -0.30499104776E+03  0.30833019391E+03  0.00000000000E+00 0.  1.
         21    1    1    2  504  501 -0.32712939103E+02  0.51275480409E+02 -0.26696026338E+03  0.27380119339E+03  0.00000000000E+00 0.  1.
         21    1    1    2  505  502  0.38541623685E+02  0.57219637110E+02 -0.22300936225E+03  0.23343675648E+03  0.00000000000E+00 0.  1.
          2    1    1    2  501    0  0.28870824574E+02 -0.79444931207E+02 -0.87143252022E+03  0.87552250622E+03  0.00000000000E+00 0.  1.
<scales pt_clust_3="45.25449" pt_clust_4="60.32535" pt_clust_5="14000.00000" pt_clust_6="78.58525"></scales>
<clustering>
<clus scale="   45.254">  2  3  1 -1</clus>
<clus scale="   60.325">  1  4  2 -1</clus>
<clus scale="   78.585">  2  6  1 -1</clus>
<clus scale="   60.325">  1  3  2 -1</clus>
</clustering>
</event>
<event>
 6    0  0.1361744E+002  0.1176301E+03  0.7546771E-02  0.1247059E+00
          2   -1    0    0  505    0 -0.00000000000E+00  0.00000000000E+00  0.14921627276E+04  0.14921627276E+04  0.00000000000E+00 0. -1.
         21   -1    0    0  503  502  0.00000000000E+00 -0.00000000000E+00 -0.40859305832E+02  0.40859305832E+02  0.00000000000E+00 0.  1.
         21    1    1    2  503  501  0.58448119566E+02  0.13511262734E+03  0.14069742711E+03  0.20363538677E+03  0.00000000000E+00 0.  1.
         21    1    1    2  504  502 -0.27040729350E+02 -0.17865819601E+02  0.40823643450E+02  0.52124451252E+02  0.00000000000E+00 0. -1.
         21    1    1    2  505  504  0.61432304023E+01 -0.48254056083E+02  0.26600155807E+03  0.27041268850E+03  0.00000000000E+00 0. -1.
          2    1    1    2  501    0 -0.37550620618E+02 -0.68992751662E+02  0.10037807932E+04  0.10068495069E+04  0.00000000000E+00 0. -1.
<scales pt_clust_3="117.63009" pt_clust_4="32.40970" pt_clust_5="49.57329" pt_clust_6="14000.00000"></scales>
<clustering>
<clus scale="   32.410">  2  4  1 -1</clus>
<clus scale="   49.573">  1  5  2 -1</clus>
<clus scale="  117.630">  2  3  1 -1</clus>
<clus scale="   32.410">  2  3  1 -1</clus>
</clustering>
</event>
<event>
 6    0  0.1361744E+002  0.7958920E+02  0.7546771E-02  0.1330221E+00
          2   -1    0    0  503    0 -0.00000000000E+00  0.00000000000E+00  0.38310329400E+04  0.38310329400E+04  0.00000000000E+00 0. -1.
         21   -1    0    0  504  502  0.00000000000E+00 -0.00000000000E+00 -0.34523282412E+02  0.34523282412E+02  0.00000000000E+00 0. -1.
         21    1    1    2  503  505 -0.40792697388E+02  0.33916610868E+02  0.53287865325E+03  0.53551287542E+03  0.00000000000E+00 0.  1.
         21    1    1    2  504  501  0.30190297446E+02  0.12892498541E+02  0.11447848521E+02  0.34766705543E+02  0.00000000000E+00 0. -1.
         21    1    1    2  505  502 -0.65094465083E+02 -0.82538657265E+02  0.11062465967E+03  0.15260319346E+03  0.00000000000E+00 0. -1.
          2    1    1    2  501    0  0.75696865024E+02  0.35729547856E+02  0.31415584962E+04  0.31426734480E+04  0.00000000000E+00 0. -1.
<scales pt_clust_3="52.21538" pt_clust_4="32.82789" pt_clust_5="14000.00000" pt_clust_6="79.58920"></scales>
<clustering>
<clus scale="   32.828">  2  4  1 -1</clus>
<clus scale="   52.215">  1  3  2 -1</clus>
<clus scale="   79.589">  1  6  2 -1</clus>
<clus scale="   32.828">  2  3  1 -1</clus>
</clustering>
</event>
<event>
 6    0  0.1361744E+002  0.1293399E+03  0.7546771E-02  0.1228439E+00
          4   -1    0    0  505    0 -0.00000000000E+00  0.00000000000E+00  0.22063958500E+04  0.22063958500E+04  0.00000000000E+00 0. -1.
         21   -1    0    0  501  502  0.00000000000E+00 -0.00000000000E+00 -0.45363217641E+02  0.45363217641E+02  0.00000000000E+00 0. -1.
         21    1    1    2  503  502 -0.22507779261E+02  0.63765198638E+02  0.23405121494E+02  0.71556973083E+02  0.00000000000E+00 0. -1.
         21    1    1    2  504  503  0.20431452239E+02  0.59216417651E+02  0.37366773914E+02  0.72940415085E+02  0.00000000000E+00 0. -1.
         21    1    1    2  505  504 -0.40862721494E+02 -0.35189048434E+02  0.33634089226E+03  0.34063650266E+03  0.00000000000E+00 0. -1.
          4    1    1    2  501    0  0.42939048517E+02 -0.87792567855E+02  0.17639198447E+04  0.17666251768E+04  0.00000000000E+00 0. -1.
<scales pt_clust_3="43.65765" pt_clust_4="43.65765" pt_clust_5="53.92616" pt_clust_6="121.12523"></scales>
<clustering>
<clus scale="   43.658">  3  4 -1 -1</clus>
<clus scale="   53.926">  1  5  2 -1</clus>
<clus scale="  121.125">  1  6  2 -1</clus>
<clus scale="  129.340">  2  3  1 -1</clus>
</clustering>
</event>
<event>
 6    0  0.1361744E+002  0.2236143E+03  0.7546771E-02  0.1131217E+00
          1   -1    0    0  504    0 -0.00000000000E+00  0.00000000000E+00  0.12239317314E+04  0.12239317314E+04  0.00000000000E+00 0.  1.
         21   -1    0    0  503  502  0.00000000000E+00 -0.00000000000E+00 -0.22310414372E+03  0.22310414372E+03  0.00000000000E+00 0.  1.
         21    1    1    2  503  501 -0.11220063535E+02  0.18484046578E+03 -0.61138405890E+02  0.19501228754E+03  0.00000000000E+00 0.  1.
         21    1    1    2  504  505 -0.71873907206E+02 -0.22415815216E+02  0.21349204833E+03  0.22637840446E+03  0.00000000000E+00 0. -1.
         21    1    1    2  505  502  0.51365111570E+02  0.45460486862E+02 -0.61232993311E+02  0.91948409568E+02  0.00000000000E+00 0.  1.
          1    1    1    2  501    0  0.31728859171E+02 -0.20788513743E+03  0.90970693856E+03  0.93369677355E+03  0.00000000000E+00 0.  1.
<scales pt_clust_3="223.61428" pt_clust_4="72.54717" pt_clust_5="68.59323" pt_clust_6="14000.00000"></scales>
<clustering>
<clus scale="   68.593">  2  5  1 -1</clus>
<clus scale="   72.547">  1  4  2 -1</clus>
<clus scale="  223.614">  2  3  1 -1</clus>
<clus scale="   68.593">  2  3  1 -1</clus>
</clustering>
</event>
<event>
 6    0  0.1361744E+002  0.1291977E+03  0.7546771E-02  0.1228651E+00
         21   -1    0    0  504  502  0.00000000000E+00  0.00000000000E+00  0.11957614064E+03  0.11957614064E+03  0.00000000000E+00 0.  1.
          2   -1    0    0  505    0 -0.00000000000E+00 -0.00000000000E+00 -0.73523537396E+03  0.73523537396E+03  0.00000000000E+00 0.  1.
         21    1    1    2  503  502  0.41067051862E+01  0.31922317720E+02  0.33952994784E+02  0.46783600234E+02  0.00000000000E+00 0.  1.
         21    1    1    2  504  501  0.73022186689E+02  0.17650247153E+02  0.29418519032E+02  0.80679738692E+02  0.00000000000E+00 0.  1.
         21    1    1    2  505  503  0.56639680949E+02 -0.23714166331E+02 -0.38472343004E+02  0.72460584589E+02  0.00000000000E+00 0.  1.
          2    1    1    2  501    0 -0.13376857282E+03 -0.25858398542E+02 -0.64055840413E+03  0.65488759109E+03  0.00000000000E+00 0.  1.
<scales pt_clust_3="32.18539" pt_clust_4="129.19771" pt_clust_5="59.94226" pt_clust_6="14000.00000"></scales>
<clustering>
<clus scale="   32.185">  1  3  2 -1</clus>
<clus scale="   59.942">  1  5  2 -1</clus>
<clus scale="  129.198">  1  4  2 -1</clus>
<clus scale="   32.185">  1  3  2 -1</clus>
</clustering>
</event>
<event>
 6    0  0.1361744E+002  0.4323588E+03  0.7546771E-02  0.1033117E+00
         21   -1    0    0  505  502  0.00000000000E+00  0.00000000000E+00  0.14548991277E+03  0.14548991277E+03  0.00000000000E+00 0. -1.
         -3   -1    0    0    0  501 -0.00000000000E+00 -0.00000000000E+00 -0.18358821416E+04  0.18358821416E+04  0.00000000000E+00 0. -1.
         21    1    1    2  503  501 -0.16116194834E+03 -0.10371845199E+03 -0.17947936120E+03  0.26257100368E+03  0.00000000000E+00 0. -1.
         21    1    1    2  504  502  0.12198391321E+03  0.14169332888E+03 -0.66068856645E+03  0.68663415030E+03  0.00000000000E+00 0. -1.
         21    1    1    2  505  503 -0.67660157829E+02 -0.22138314576E+03 -0.99423246782E+02  0.25193923114E+03  0.00000000000E+00 0. -1.
         -3    1    1    2    0  504  0.10683819296E+03  0.18340826888E+03 -0.75080105440E+03  0.78022766924E+03  0.00000000000E+00 0. -1.
<scales pt_clust_3="154.63742" pt_clust_4="34.22833" pt_clust_5="154.63742" pt_clust_6="399.22506"></scales>
<clustering>
<clus scale="   34.228">  4  6 -1 -1</clus>
<clus scale="  154.637">  3  5 -1 -1</clus>
<clus scale="  399.225">  2  4  1 -1</clus>
<clus scale="  432.359">  1  3  2 -1</clus>
</clustering>
</event>
<event>
 6    0  0.1361744E+002  0.1516824E+03  0.7546771E-02  0.1198421E+00
          2   -1    0    0  504    0 -0.00000000000E+00  0.00000000000E+00  0.73836210445E+03  0.73836210445E+03  0.00000000000E+00 0. -1.
         21   -1    0    0  505  502  0.00000000000E+00 -0.00000000000E+00 -0.33964187864E+03  0.33964187864E+03  0.00000000000E+00 0. -1.
         21    1    1    2  503  502 -0.30911495982E+02  0.22792048236E+02 -0.16282297550E+03  0.16729112169E+03  0.00000000000E+00 0.  1.
         21    1    1    2  504  503  0.18387807245E+03  0.10867487657E+03  0.31764201396E+02  0.21594059094E+03  0.00000000000E+00 0. -1.
         21    1    1    2  505  501 -0.10874361984E+03 -0.48893024446E+02 -0.33429548451E+02  0.12382745012E+03  0.00000000000E+00 0. -1.
          2    1    1    2  501    0 -0.44222956631E+02 -0.82573900362E+02  0.56320854836E+03  0.57094482033E+03  0.00000000000E+00 0. -1.
<scales pt_clust_3="38.40570" pt_clust_4="14000.00000" pt_clust_5="151.68243" pt_clust_6="93.55224"></scales>
<clustering>
<clus scale="   38.406">  2  3  1 -1</clus>
<clus scale="   93.552">  1  6  2 -1</clus>
<clus scale="  151.682">  2  5  1 -1</clus>
<clus scale="   38.406">  2  3  1 -1</clus>
</clustering>
</event>
<event>
 6    0  0.1361744E+002  0.1503194E+03  0.7546771E-02  0.1200081E+00
          2   -1    0    0  503    0 -0.00000000000E+00  0.00000000000E+00  0.48221704394E+03  0.48221704394E+03  0.00000000000E+00 0. -1.
         21   -1    0    0  501  502  0.00000000000E+00 -0.00000000000E+00 -0.10756082029E+03  0.10756082029E+03  0.00000000000E+00 0. -1.
         21    1    1    2  503  504 -0.38585328286E+02 -0.19802013356E+02  0.81076364997E+02  0.91947399381E+02  0.00000000000E+00 0. -1.
         21    1    1    2  504  505 -0.37418445123E+02 -0.98589974932E+02  0.19808366939E+03  0.22440424076E+03  0.00000000000E+00 0. -1.
         21    1    1    2  505  502 -0.69056870626E+02  0.46342768780E+02 -0.41349996376E+01  0.83268252178E+02  0.00000000000E+00 0. -1.
          2    1    1    2  501    0  0.14506064403E+03  0.72049219509E+02  0.99631188895E+02  0.19015797191E+03  0.00000000000E+00 0. -1.
<scales pt_clust_3="31.12029" pt_clust_4="31.12029" pt_clust_5="83.16552" pt_clust_6="142.27126"></scales>
<clustering>
<clus scale="   31.120">  3  4 -1 -1</clus>
<clus scale="   83.166">  2  5  1 -1</clus>
<clus scale="  142.271">  2  6  1 -1</clus>
<clus scale="   83.166">  2  3  1 -1</clus>
</clustering>
</event>
<event>
 6    0  0.1361744E+002  0.1001393E+03  0.7546771E-02  0.1280003E+00
          1   -1    0    0  503    0 -0.00000000000E+00  0.00000000000E+00  0.95501961306E+03  0.95501961306E+03  0.00000000000E+00 0. -1.
         21   -1    0    0  505  502  0.00000000000E+00 -0.00000000000E+00 -0.10086071730E+03  0.10086071730E+03  0.00000000000E+00 0. -1.
         21    1    1    2  503  502 -0.34163968624E+02  0.22856191311E+02 -0.22230999887E+02  0.46731141537E+02  0.00000000000E+00 0. -1.
         21    1    1    2  504  501 -0.77860475283E+02  0.28976094632E+02  0.93638516065E+02  0.12518002781E+03  0.00000000000E+00 0.  1.
         21    1    1    2  505  504  0.75722674959E+01 -0.48261196401E+02 -0.34663293988E+02  0.59900135753E+02  0.00000000000E+00 0. -1.
          1    1    1    2  501    0  0.10445217641E+03 -0.35710895415E+01  0.81741467356E+03  0.82406902526E+03  0.00000000000E+00 0. -1.
<scales pt_clust_3="41.10453" pt_clust_4="100.13929" pt_clust_5="36.10760" pt_clust_6="14000.00000"></scales>
<clustering>
<clus scale="   41.105">  2  3  1 -1</clus>
<clus scale="   36.108">  2  5  1 -1</clus>
<clus scale="  100.139">  2  4  1 -1</clus>
<clus scale="   41.105">  2  3  1 -1</clus>
</clustering>
</event>
<event>
 6    0  0.1361744E+002  0.6696116E+02  0.7546771E-02  0.1370743E+00
         -2   -1    0    0    0  501 -0.00000000000E+00  0.00000000000E+00  0.44304468109E+03  0.44304468109E+03  0.00000000000E+00 0.  1.
         21   -1    0    0  503  502  0.00000000000E+00 -0.00000000000E+00 -0.11205880791E+03  0.11205880791E+03  0.00000000000E+00 0.  1.
         21    1    1    2  503  505 -0.19034155486E+02 -0.41960235848E+02  0.22185057772E+02  0.51138412723E+02  0.00000000000E+00 0.  1.
         21    1    1    2  504  502  0.37246315601E+02  0.60504414988E+02 -0.69357881904E+02  0.99290422706E+02  0.00000000000E+00 0.  1.
         21    1    1    2  505  501 -0.64394329646E+02  0.29497789710E+02  0.13378320475E+03  0.15137600590E+03  0.00000000000E+00 0.  1.
         -2    1    1    2    0  504  0.46182169530E+02 -0.48041968851E+02  0.24437549255E+03  0.25329864768E+03  0.00000000000E+00 0.  1.
<scales pt_clust_3="46.07560" pt_clust_4="31.94356" pt_clust_5="14000.00000" pt_clust_6="66.96116"></scales>
<clustering>
<clus scale="   46.076">  2  3  1 -1</clus>
<clus scale="   31.944">  2  4  1 -1</clus>
<clus scale="   66.961">  1  6  2 -1</clus>
<clus scale="   46.076">  2  3  1 -1</clus>
</clustering>
</event>
<event>
 6    0  0.1361744E+002  0.1062476E+03  0.7546771E-02  0.1267681E+00
         21   -1    0    0  503  502  0.00000000000E+00  0.00000000000E+00  0.12507338780E+04  0.12507338780E+04  0.00000000000E+00 0. -1.
          2   -1    0    0  504    0 -0.00000000000E+00 -0.00000000000E+00 -0.32642715619E+03  0.32642715619E+03  0.00000000000E+00 0. -1.
         21    1    1    2  503  501  0.25915770423E+02 -0.61917683806E+02  0.11045917163E+04  0.11066292453E+04  0.00000000000E+00 0. -1.
         21    1    1    2  504  505 -0.84572139401E+02  0.11486987377E+02 -0.17302519109E+03  0.19293033560E+03  0.00000000000E+00 0.  1.
         21    1    1    2  505  502 -0.15296711282E+02 -0.46302934596E+02  0.10260233762E+03  0.11360101590E+03  0.00000000000E+00 0. -1.
          2    1    1    2  501    0  0.73953080260E+02  0.96733631024E+02 -0.10986214102E+03  0.16400043744E+03  0.00000000000E+00 0. -1.
<scales pt_clust_3="106.24759" pt_clust_4="85.42745" pt_clust_5="48.76424" pt_clust_6="14000.00000"></scales>
<clustering>
<clus scale="   48.764">  1  5  2 -1</clus>
<clus scale="   85.427">  2  4  1 -1</clus>
<clus scale="  106.248">  1  3  2 -1</clus>
<clus scale="   48.764">  1  3  2 -1</clus>
</clustering>
</event>
<event>
 6    0  0.1361744E+002  0.1650076E+03  0.7546771E-02  0.1183156E+00
          2   -1    0    0  503    0 -0.00000000000E+00  0.00000000000E+00  0.21101649272E+04  0.21101649272E+04  0.00000000000E+00 0.  1.
         21   -1    0    0  505  502  0.00000000000E+00 -0.00000000000E+00 -0.19259302250E+03  0.19259302250E+03  0.00000000000E+00 0.  1.
         21    1    1    2  503  502 -0.62962724959E+02  0.64126811842E+02 -0.14879371230E+03  0.17382785033E+03  0.00000000000E+00 0.  1.
         21    1    1    2  504  501  0.87344718436E+01 -0.37486985406E+02  0.56233497229E+03  0.56365076611E+03  0.00000000000E+00 0. -1.
         21    1    1    2  505  504 -0.52440409329E+02  0.42482354932E+02  0.12862387039E+02  0.68703624442E+02  0.00000000000E+00 0. -1.
          2    1    1    2  501    0  0.10666866245E+03 -0.69122181368E+02  0.14911682576E+04  0.14965757088E+04  0.00000000000E+00 0.  1.
<scales pt_clust_3="155.73472" pt_clust_4="30.01113" pt_clust_5="67.48887" pt_clust_6="30.01113"></scales>
<clustering>
<clus scale="   30.011">  4  6 -1 -1</clus>
<clus scale="   67.489">  2  5  1 -1</clus>
<clus scale="  155.735">  2  3  1 -1</clus>
<clus scale="   67.489">  2  3  1 -1</clus>
</clustering>
</event>
<event>
 6    0  0.1361744E+002  0.8158048E+02  0.7546771E-02  0.1324625E+00
         21   -1    0    0  505  502  0.00000000000E+00  0.00000000000E+00  0.11007527581E+03  0.11007527581E+03  0.00000000000E+00 0.  1.
          4   -1    0    0  503    0 -0.00000000000E+00 -0.00000000000E+00 -0.53376342069E+03  0.53376342069E+03  0.00000000000E+00 0.  1.
         21    1    1    2  503  502 -0.35555774578E+02  0.68581043971E+02  0.67490674317E+02  0.10257954873E+03  0.00000000000E+00 0.  1.
         21    1    1    2  504  501  0.32998326952E+02 -0.62161002285E+02 -0.16239425733E+03  0.17698806344E+03  0.00000000000E+00 0. -1.
         21    1    1    2  505  504  0.52858630579E+02  0.25376346716E+02 -0.43925974232E+02  0.73263121770E+02  0.00000000000E+00 0.  1.
          4    1    1    2  501    0 -0.50301182952E+02 -0.31796388402E+02 -0.28485858763E+03  0.29100796255E+03  0.00000000000E+00 0.  1.
<scales pt_clust_3="14000.00000" pt_clust_4="81.58048" pt_clust_5="58.63441" pt_clust_6="57.63167"></scales>
<clustering>
<clus scale="   58.634">  1  5  2 -1</clus>
<clus scale="   57.632">  2  6  1 -1</clus>
<clus scale="   81.580">  2  4  1 -1</clus>
<clus scale="   58.634">  1  3  2 -1</clus>
</clustering>
</event>
<event>
 6    0  0.1361744E+002  0.1165785E+03  0.7546771E-02  0.1248851E+00
          1   -1    0    0  502    0 -0.00000000000E+00  0.00000000000E+00  0.16466316927E+04  0.16466316927E+04  0.00000000000E+00 0.  1.
         21   -1    0    0  503  502  0.00000000000E+00 -0.00000000000E+00 -0.50388637809E+02  0.50388637809E+02  0.00000000000E+00 0. -1.
         21    1    1    2  503  504  0.75297033389E+02 -0.10983889197E+02  0.11351289108E+02  0.76935952736E+02  0.00000000000E+00 0. -1.
         21    1    1    2  504  505  0.12877454234E+02  0.80050255557E+02  0.94091323490E+02  0.12420567378E+03  0.00000000000E+00 0. -1.
         21    1    1    2  505  501 -0.33179540796E+02 -0.57002014522E+02  0.89322162805E+03  0.89565338630E+03  0.00000000000E+00 0.  1.
          1    1    1    2  501    0 -0.54994946827E+02 -0.12064351838E+02  0.59757881421E+03  0.60022531766E+03  0.00000000000E+00 0.  1.
<scales pt_clust_3="76.09395" pt_clust_4="104.72976" pt_clust_5="47.31243" pt_clust_6="47.31243"></scales>
<clustering>
<clus scale="   47.312">  5  6 -1 -1</clus>
<clus scale="   76.094">  2  3  1 -1</clus>
<clus scale="  104.730">  2  4  1 -1</clus>
<clus scale="   76.094">  2  3  1 -1</clus>
</clustering>
</event>
<event>
 6    0  0.1361744E+002  0.2867457E+03  0.7546771E-02  0.1092061E+00
         21   -1    0    0  504  502  0.00000000000E+00  0.00000000000E+00  0.41822136934E+03  0.41822136934E+03  0.00000000000E+00 0. -1.
          1   -1    0    0  505    0 -0.00000000000E+00 -0.00000000000E+00 -0.41556674035E+03  0.41556674035E+03  0.00000000000E+00 0. -1.
         21    1    1    2  503  501  0.54890865154E+02 -0.14315283615E+02 -0.27336947287E+02  0.62970176348E+02  0.00000000000E+00 0. -1.
         21    1    1    2  504  503  0.84177863942E+02  0.29001866411E+02  0.16596136655E+02  0.90567393609E+02  0.00000000000E+00 0.  1.
         21    1    1    2  505  502 -0.24961309675E+03  0.17714866658E+03  0.22037427674E+03  0.37716464573E+03  0.00000000000E+00 0. -1.
          1    1    1    2  501    0  0.11054436765E+03 -0.19183524938E+03 -0.20697883712E+03  0.30308589400E+03  0.00000000000E+00 0. -1.
<scales pt_clust_3="48.61978" pt_clust_4="89.03382" pt_clust_5="270.17917" pt_clust_6="48.61978"></scales>
<clustering>
<clus scale="   48.620">  3  6 -1 -1</clus>
<clus scale="   89.034">  1  4  2 -1</clus>
<clus scale="  270.179">  1  5  2 -1</clus>
<clus scale="   89.034">  1  3  2 -1</clus>
</clustering>
</event>
<event>
 6    0  0.1361744E+002  0.9681612E+02  0.7546771E-02  0.1287137E+00
         21   -1    0    0  505  502  0.00000000000E+00  0.00000000000E+00  0.23067936461E+04  0.23067936461E+04  0.00000000000E+00 0. -1.
         -1   -1    0    0    0  501 -0.00000000000E+00 -0.00000000000E+00 -0.35041682066E+02  0.35041682066E+02  0.00000000000E+00 0. -1.
         21    1    1    2  503  502  0.12026429323E+02 -0.99848277476E+02  0.18243725048E+04  0.18271424000E+04  0.00000000000E+00 0. -1.
         21    1    1    2  504  501 -0.35755219313E+02 -0.46607533016E+02  0.50111038803E+02  0.77212784251E+02  0.00000000000E+00 0. -1.
         21    1    1    2  505  504  0.32671909585E+02  0.18569493405E+02  0.19067339930E+03  0.19434151631E+03  0.00000000000E+00 0. -1.
         -1    1    1    2    0  503 -0.89431195949E+01  0.12788631709E+03  0.20659502109E+03  0.24313862759E+03  0.00000000000E+00 0. -1.
<scales pt_clust_3="96.81612" pt_clust_4="57.70190" pt_clust_5="37.58031" pt_clust_6="14000.00000"></scales>
<clustering>
<clus scale="   37.580">  1  5  2 -1</clus>
<clus scale="   57.702">  2  4  1 -1</clus>
<clus scale="   96.816">  1  3  2 -1</clus>
<clus scale="   37.580">  1  3  2 -1</clus>
</clustering>
</event>
<event>
 6    0  0.1361744E+002  0.1595326E+03  0.7546771E-02  0.1189225E+00
         21   -1    0    0  503  502  0.00000000000E+00  0.00000000000E+00  0.46173716726E+03  0.46173716726E+03  0.00000000000E+00 0. -1.
          2   -1    0    0  505    0 -0.00000000000E+00 -0.00000000000E+00 -0.19891311125E+04  0.19891311125E+04  0.00000000000E+00 0.  1.
         21    1    1    2  503  504 -0.42858028591E+02  0.15566226985E+03  0.43076219506E+03  0.46002567489E+03  0.00000000000E+00 0. -1.
         21    1    1    2  504  501  0.19839123098E+02 -0.12369416265E+03 -0.25157557988E+03  0.28104111633E+03  0.00000000000E+00 0. -1.
         21    1    1    2  505  502 -0.34567611238E+02 -0.19353538890E+02 -0.41801463663E+03  0.41988774173E+03  0.00000000000E+00 0.  1.
          2    1    1    2  501    0  0.57586516731E+02 -0.12614568311E+02 -0.12885659238E+04  0.12899137468E+04  0.00000000000E+00 0.  1.
<scales pt_clust_3="14000.00000" pt_clust_4="159.53264" pt_clust_5="39.61665" pt_clust_6="40.80952"></scales>
<clustering>
<clus scale="   39.617">  2  5  1 -1</clus>
<clus scale="   40.810">  2  6  1 -1</clus>
<clus scale="  159.533">  2  4  1 -1</clus>
<clus scale="  159.533">  1  3  2 -1</clus>
</clustering>
</event>
<event>
 6    0  0.1361744E+002  0.2744587E+03  0.7546771E-02  0.1098755E+00
          2   -1    0    0  504    0 -0.00000000000E+00  0.00000000000E+00  0.92736785773E+03  0.92736785773E+03  0.00000000000E+00 0.  1.
         21   -1    0    0  505  502  0.00000000000E+00 -0.00000000000E+00 -0.27735616891E+03  0.27735616891E+03  0.00000000000E+00 0. -1.
         21    1    1    2  503  502 -0.41325410832E+02  0.91231730983E+01 -0.36734372219E+02  0.56039592879E+02  0.00000000000E+00 0. -1.
         21    1    1    2  504  503 -0.13584090170E+03 -0.20530635232E+03 -0.13565566567E+03  0.28107989701E+03  0.00000000000E+00 0. -1.
         21    1    1    2  505  501  0.21667436482E+02  0.57036240731E+02  0.11653478196E+03  0.13154073881E+03  0.00000000000E+00 0.  1.
          2    1    1    2  501    0  0.15549887605E+03  0.13914693849E+03  0.70586694475E+03  0.73606379794E+03  0.00000000000E+00 0.  1.
<scales pt_clust_3="42.32047" pt_clust_4="262.31717" pt_clust_5="43.75586" pt_clust_6="43.75586"></scales>
<clustering>
<clus scale="   42.320">  2  3  1 -1</clus>
<clus scale="   43.756">  5  6 -1 -1</clus>
<clus scale="  262.317">  2  4  1 -1</clus>
<clus scale="   42.320">  2  3  1 -1</clus>
</clustering>
</event>
<event>
 6    0  0.1361744E+002  0.9875216E+02  0.7546771E-02  0.1282942E+00
         -4   -1    0    0    0  501 -0.00000000000E+00  0.00000000000E+00  0.43358130798E+03  0.43358130798E+03  0.00000000000E+00 0. -1.
         21   -1    0    0  504  502  0.00000000000E+00 -0.00000000000E+00 -0.18216848389E+03  0.18216848389E+03  0.00000000000E+00 0. -1.
         21    1    1    2  503  502  0.60367987624E+02  0.98036474640E+02 -0.98018252213E+02  0.15120523158E+03  0.00000000000E+00 0. -1.
         21    1    1    2  504  505 -0.32716097058E+02  0.19593300890E+02 -0.15710543107E+02  0.41243928173E+02  0.00000000000E+00 0. -1.
         21    1    1    2  505  501 -0.59565780372E+02 -0.42574889918E+02  0.32358608487E+03  0.33176596836E+03  0.00000000000E+00 0. -1.
         -4    1    1    2    0  503  0.31913889806E+02 -0.75054885612E+02  0.41555534547E+02  0.91534663753E+02  0.00000000000E+00 0. -1.
<scales pt_clust_3="14000.00000" pt_clust_4="38.13450" pt_clust_5="73.62781" pt_clust_6="98.75216"></scales>
<clustering>
<clus scale="   38.135">  2  4  1 -1</clus>
<clus scale="   73.628">  1  5  2 -1</clus>
<clus scale="   98.752">  1  6  2 -1</clus>
<clus scale="   38.135">  2  3  1 -1</clus>
</clustering>
</event>
<event>
 6    0  0.1361744E+002  0.1780048E+03  0.7546771E-02  0.1169748E+00
         21   -1    0    0  505  502  0.00000000000E+00  0.00000000000E+00  0.15521728554E+03  0.15521728554E+03  0.00000000000E+00 0.  1.
          2   -1    0    0  504    0 -0.00000000000E+00 -0.00000000000E+00 -0.10595826479E+04  0.10595826479E+04  0.00000000000E+00 0. -1.
         21    1    1    2  503  501  0.38871784458E+02  0.37000261474E+02 -0.26154147026E+03  0.26699059092E+03  0.00000000000E+00 0. -1.
         21    1    1    2  504  502 -0.40793494801E+02 -0.13986571898E+03  0.50876269816E+02  0.15432084563E+03  0.00000000000E+00 0.  1.
         21    1    1    2  505  503  0.23007391417E+02 -0.20177901928E+02  0.39370101778E+02  0.49864744059E+02  0.00000000000E+00 0.  1.
          2    1    1    2  501    0 -0.21085681074E+02  0.12304335944E+03 -0.73307026370E+03  0.74362375282E+03  0.00000000000E+00 0. -1.
<scales pt_clust_3="51.72355" pt_clust_4="159.77223" pt_clust_5="30.60209" pt_clust_6="51.72355"></scales>
<clustering>
<clus scale="   30.602">  1  5  2 -1</clus>
<clus scale="   51.724">  3  6 -1 -1</clus>
<clus scale="  159.772">  1  4  2 -1</clus>
<clus scale="   30.602">  1  3  2 -1</clus>
</clustering>
</event>
<event>
 6    0  0.1361744E+002  0.8999411E+02  0.7546771E-02  0.1302866E+00
         21   -1    0    0  503  502  0.00000000000E+00  0.00000000000E+00  0.17088576479E+02  0.17088576479E+02  0.00000000000E+00 0.  1.
          2   -1    0    0  504    0 -0.00000000000E+00 -0.00000000000E+00 -0.27050087775E+04  0.27050087775E+04  0.00000000000E+00 0.  1.
         21    1    1    2  503  505 -0.26854264837E+02 -0.55976937203E+02 -0.81615724135E+02  0.10254606509E+03  0.00000000000E+00 0.  1.
         21    1    1    2  504  502  0.10527517793E+02  0.30261817548E+02 -0.12378100042E+03  0.12786063623E+03  0.00000000000E+00 0. -1.
         21    1    1    2  505  501  0.69353601530E+02 -0.50116673301E+02 -0.52049792218E+03  0.52748430307E+03  0.00000000000E+00 0.  1.
          2    1    1    2  501    0 -0.53026854486E+02  0.75831792956E+02 -0.19620255543E+04  0.19642063496E+04  0.00000000000E+00 0.  1.
<scales pt_clust_3="40.02269" pt_clust_4="32.04070" pt_clust_5="14000.00000" pt_clust_6="89.99411"></scales>
<clustering>
<clus scale="   32.041">  1  4  2 -1</clus>
<clus scale="   40.023">  1  3  2 -1</clus>
<clus scale="   89.994">  2  6  1 -1</clus>
<clus scale="   32.041">  1  3  2 -1</clus>
</clustering>
</event>
<event>
 6    0  0.1361744E+002  0.1230060E+03  0.7546771E-02  0.1238219E+00
         -1   -1    0    0    0  501 -0.00000000000E+00  0.00000000000E+00  0.11671475945E+04  0.11671475945E+04  0.00000000000E+00 0. -1.
         21   -1    0    0  501  502  0.00000000000E+00 -0.00000000000E+00 -0.38226877067E+02  0.38226877067E+02  0.00000000000E+00 0.  1.
         21    1    1    2  503  502 -0.19292242019E+02  0.40187143639E+02  0.20384018494E+02  0.49017398196E+02  0.00000000000E+00 0.  1.
         21    1    1    2  504  505 -0.41174876272E+02 -0.43206871825E+02  0.41891094899E+03  0.42314133265E+03  0.00000000000E+00 0.  1.
         21    1    1    2  505  503  0.12284079296E+03  0.48354634582E+01  0.16965344711E+03  0.20951261117E+03  0.00000000000E+00 0. -1.
         -1    1    1    2    0  504 -0.62373674673E+02 -0.18157352720E+01  0.51997230284E+03  0.52370312956E+03  0.00000000000E+00 0. -1.
<scales pt_clust_3="44.57799" pt_clust_4="45.48552" pt_clust_5="113.43337" pt_clust_6="45.48552"></scales>
<clustering>
<clus scale="   44.578">  2  3  1 -1</clus>
<clus scale="   45.486">  4  6 -1 -1</clus>
<clus scale="  113.433">  2  5  1 -1</clus>
<clus scale="   44.578">  2  3  1 -1</clus>
</clustering>
</event>
<event>
 6    0  0.1361744E+002  0.9999936E+02  0.7546771E-02  0.1280297E+00
          2   -1    0    0  504    0 -0.00000000000E+00  0.00000000000E+00  0.16390927810E+04  0.16390927810E+04  0.00000000000E+00 0.  1.
         21   -1    0    0  505  502  0.00000000000E+00 -0.00000000000E+00 -0.31310493800E+03  0.31310493800E+03  0.00000000000E+00 0.  1.
         21    1    1    2  503  501  0.18264927557E+02 -0.57204591279E+02 -0.74772352630E+02  0.95900352241E+02  0.00000000000E+00 0. -1.
         21    1    1    2  504  502 -0.68218510591E+02  0.14708218711E+03  0.45580762889E+03  0.48378458999E+03  0.00000000000E+00 0.  1.
         21    1    1    2  505  503  0.35694399533E+02 -0.29551145980E+02 -0.21042826724E+03  0.21547022078E+03  0.00000000000E+00 0.  1.
          2    1    1    2  501    0  0.14259183500E+02 -0.60326449853E+02  0.11553808340E+04  0.11570425560E+04  0.00000000000E+00 0.  1.
<scales pt_clust_3="14000.00000" pt_clust_4="99.99936" pt_clust_5="46.33962" pt_clust_6="62.29587"></scales>
<clustering>
<clus scale="   46.340">  2  5  1 -1</clus>
<clus scale="   62.296">  1  6  2 -1</clus>
<clus scale="   99.999">  1  4  2 -1</clus>
<clus scale="   46.340">  2  3  1 -1</clus>
</clustering>
</event>
<event>
 6    0  0.1361744E+002  0.1283932E+03  0.7546771E-02  0.1229860E+00
          2   -1    0    0  504    0 -0.00000000000E+00  0.00000000000E+00  0.54958950498E+03  0.54958950498E+03  0.00000000000E+00 0.  1.
         21   -1    0    0  505  502  0.00000000000E+00 -0.00000000000E+00 -0.65419801239E+02  0.65419801239E+02  0.00000000000E+00 0. -1.
         21    1    1    2  503  502  0.24749854253E+02  0.50988817649E+02  0.39574752894E+02  0.69127244104E+02  0.00000000000E+00 0. -1.
         21    1    1    2  504  503  0.10396527313E+03 -0.47044544879E+02  0.11588538937E+03  0.16263883512E+03  0.00000000000E+00 0. -1.
         21    1    1    2  505  501  0.13081623199E+01 -0.51338952523E+02  0.48101926240E+02  0.70364725842E+02  0.00000000000E+00 0. -1.
          2    1    1    2  501    0 -0.13002328970E+03  0.47394679753E+02  0.28060763523E+03  0.31287850115E+03  0.00000000000E+00 0.  1.
<scales pt_clust_3="44.72631" pt_clust_4="128.39316" pt_clust_5="51.35562" pt_clust_6="14000.00000"></scales>
<clustering>
<clus scale="   51.356">  2  5  1 -1</clus>
<clus scale="   44.726">  2  3  1 -1</clus>
<clus scale="  128.393">  2  4  1 -1</clus>
<clus scale="   51.356">  2  3  1 -1</clus>
</clustering>
</event>
<event>
 6    0  0.1361744E+002  0.1221628E+03  0.7546771E-02  0.1239571E+00
          2   -1    0    0  505    0 -0.00000000000E+00  0.00000000000E+00  0.20869686257E+04  0.20869686257E+04  0.00000000000E+00 0. -1.
         21   -1    0    0  503  502  0.00000000000E+00 -0.00000000000E+00 -0.15164713473E+03  0.15164713473E+03  0.00000000000E+00 0. -1.
         21    1    1    2  503  501 -0.32671288163E+02  0.26811627458E+02  0.33829981593E+03  0.34092967295E+03  0.00000000000E+00 0. -1.
         21    1    1    2  504  502  0.12034500254E+03  0.22266101944E+02 -0.11932443078E+03  0.17092986490E+03  0.00000000000E+00 0. -1.
         21    1    1    2  505  504 -0.10049741745E+03 -0.83298206416E+02  0.88163510395E+03  0.89124563316E+03  0.00000000000E+00 0. -1.
          2    1    1    2  501    0  0.12823703071E+02  0.34220477014E+02  0.83471100188E+03  0.83551058944E+03  0.00000000000E+00 0. -1.
<scales pt_clust_3="46.42264" pt_clust_4="122.16280" pt_clust_5="14000.00000" pt_clust_6="36.54433"></scales>
<clustering>
<clus scale="   36.544">  1  6  2 -1</clus>
<clus scale="   46.423">  1  3  2 -1</clus>
<clus scale="  122.163">  2  4  1 -1</clus>
<clus scale="  122.163">  2  3  1 -1</clus>
</clustering>
</event>
<event>
 6    0  0.1361744E+002  0.1434486E+03  0.7546771E-02  0.1208762E+00
          2   -1    0    0  503    0 -0.00000000000E+00  0.00000000000E+00  0.12583639333E+04  0.12583639333E+04  0.00000000000E+00 0. -1.
         21   -1    0    0  501  502  0.00000000000E+00 -0.00000000000E+00 -0.12280992057E+03  0.12280992057E+03  0.00000000000E+00 0.  1.
         21    1    1    2  503  505 -0.30444820523E+02 -0.82121341782E+02  0.57019936220E+03  0.57688656990E+03  0.00000000000E+00 0. -1.
         21    1    1    2  504  502 -0.53198482178E+02 -0.71693044576E+02 -0.36589495884E+02  0.96481927611E+02  0.00000000000E+00 0.  1.
         21    1    1    2  505  504  0.13052695606E+01 -0.48392852889E+02 -0.17136642872E+02  0.51354030692E+02  0.00000000000E+00 0.  1.
          2    1    1    2  501    0  0.82338033140E+02  0.20220723925E+03  0.61908078932E+03  0.65645132570E+03  0.00000000000E+00 0. -1.
<scales pt_clust_3="87.58311" pt_clust_4="31.71972" pt_clust_5="31.71972" pt_clust_6="136.82859"></scales>
<clustering>
<clus scale="   31.720">  4  5 -1 -1</clus>
<clus scale="   87.583">  1  3  2 -1</clus>
<clus scale="  136.829">  1  6  2 -1</clus>
<clus scale="  143.449">  2  3  1 -1</clus>
</clustering>
</event>
<event>
 6    0  0.1361744E+002  0.1068951E+03  0.7546771E-02  0.1266430E+00
         21   -1    0    0  505  502  0.00000000000E+00  0.00000000000E+00  0.14851659137E+03  0.14851659137E+03  0.00000000000E+00 0. -1.
          2   -1    0    0  504    0 -0.00000000000E+00 -0.00000000000E+00 -0.21870998225E+04  0.21870998225E+04  0.00000000000E+00 0.  1.
         21    1    1    2  503  501 -0.78346553704E+02 -0.14771708252E+02 -0.21248877828E+03  0.22695344619E+03  0.00000000000E+00 0.  1.
         21    1    1    2  504  502 -0.21585255444E+02  0.39813616640E+02  0.11507326882E+03  0.12366448366E+03  0.00000000000E+00 0. -1.
         21    1    1    2  505  503 -0.13172612133E+02 -0.30243441544E+02  0.68514681175E+01  0.33691632228E+02  0.00000000000E+00 0.  1.
          2    1    1    2  501    0  0.11310442128E+03  0.52015331551E+01 -0.19480191898E+04  0.19513068518E+04  0.00000000000E+00 0.  1.
<scales pt_clust_3="106.89513" pt_clust_4="35.79940" pt_clust_5="32.98763" pt_clust_6="14000.00000"></scales>
<clustering>
<clus scale="   32.988">  1  5  2 -1</clus>
<clus scale="   35.799">  1  4  2 -1</clus>
<clus scale="  106.895">  1  3  2 -1</clus>
<clus scale="   32.988">  1  3  2 -1</clus>
</clustering>
</event>
<event>
 6    0  0.1361744E+002  0.9153426E+02  0.7546771E-02  0.1299178E+00
         21   -1    0    0  503  502  0.00000000000E+00  0.00000000000E+00  0.65882334222E+02  0.65882334222E+02  0.00000000000E+00 0.  1.
          2   -1    0    0  504    0 -0.00000000000E+00 -0.00000000000E+00 -0.10753837786E+04  0.10753837786E+04  0.00000000000E+00 0. -1.
         21    1    1    2  503  501 -0.18817388755E+02  0.55271370478E+02 -0.74561440984E+01  0.58860959888E+02  0.00000000000E+00 0. -1.
         21    1    1    2  504  505  0.25081879190E+02 -0.48266643847E+02 -0.28151462850E+03  0.28672156464E+03  0.00000000000E+00 0. -1.
         21    1    1    2  505  502  0.69890222788E+02  0.29579716264E+02 -0.59491184226E+01  0.76124863650E+02  0.00000000000E+00 0.  1.
          2    1    1    2  501    0 -0.76154713223E+02 -0.36584442896E+02 -0.71458155333E+03  0.71955872461E+03  0.00000000000E+00 0. -1.
<scales pt_clust_3="56.13438" pt_clust_4="54.39457" pt_clust_5="91.53426" pt_clust_6="14000.00000"></scales>
<clustering>
<clus scale="   54.395">  2  4  1 -1</clus>
<clus scale="   56.134">  1  3  2 -1</clus>
<clus scale="   91.534">  1  5  2 -1</clus>
<clus scale="   56.134">  1  3  2 -1</clus>
</clustering>
</event>
<event>
 6    0  0.1361744E+002  0.1252795E+03  0.7546771E-02  0.1234633E+00
         21   -1    0    0  505  502  0.00000000000E+00  0.00000000000E+00  0.15062679710E+02  0.15062679710E+02  0.00000000000E+00 0. -1.
         -3   -1    0    0    0  501 -0.00000000000E+00 -0.00000000000E+00 -0.13882641958E+04  0.13882641958E+04  0.00000000000E+00 0. -1.
         21    1    1    2  503  501  0.72748071836E+02  0.67781170315E+02 -0.41258300161E+03  0.42439521937E+03  0.00000000000E+00 0. -1.
         21    1    1    2  504  503 -0.14271744309E+01  0.39646462389E+02 -0.18428132651E+03  0.18850327877E+03  0.00000000000E+00 0. -1.
         21    1    1    2  505  504 -0.41490637362E+02 -0.51993617139E+01 -0.19774640533E+03  0.20211914103E+03  0.00000000000E+00 0. -1.
         -3    1    1    2    0  502 -0.29830260042E+02 -0.10222827099E+03 -0.57859078260E+03  0.58830923630E+03  0.00000000000E+00 0. -1.
<scales pt_clust_3="33.24567" pt_clust_4="33.24567" pt_clust_5="41.81514" pt_clust_6="113.68722"></scales>
<clustering>
<clus scale="   33.246">  3  4 -1 -1</clus>
<clus scale="   41.815">  1  5  2 -1</clus>
<clus scale="  113.687">  2  6  1 -1</clus>
<clus scale="   41.815">  1  3  2 -1</clus>
</clustering>
</event>
<event>
 6    0  0.1361744E+002  0.9243301E+02  0.7546771E-02  0.1297065E+00
         21   -1    0    0  504  502  0.00000000000E+00  0.00000000000E+00  0.37623935713E+02  0.37623935713E+02  0.00000000000E+00 0.  1.
         -1   -1    0    0    0  501 -0.00000000000E+00 -0.00000000000E+00 -0.11896296585E+04  0.11896296585E+04  0.00000000000E+00 0. -1.
         21    1    1    2  503  502 -0.32592314966E+02 -0.50200400299E+00 -0.58282581349E+02  0.66778516692E+02  0.00000000000E+00 0.  1.
         21    1    1    2  504  501  0.57739370047E+02 -0.51527125095E+02 -0.13203153774E+03  0.15303988510E+03  0.00000000000E+00 0. -1.
         21    1    1    2  505  503 -0.64084307657E+02  0.86135882851E+02 -0.10837285421E+03  0.15254790832E+03  0.00000000000E+00 0.  1.
         -1    1    1    2    0  505  0.38937252576E+02 -0.34106753754E+02 -0.85331874944E+03  0.85488728406E+03  0.00000000000E+00 0. -1.
<scales pt_clust_3="32.59618" pt_clust_4="92.43301" pt_clust_5="14000.00000" pt_clust_6="51.19698"></scales>
<clustering>
<clus scale="   32.596">  1  3  2 -1</clus>
<clus scale="   51.197">  2  6  1 -1</clus>
<clus scale="   92.433">  1  4  2 -1</clus>
<clus scale="   32.596">  1  3  2 -1</clus>
</clustering>
</event>
<event>
 6    0  0.1361744E+002  0.1459141E+03  0.7546771E-02  0.1205586E+00
         21   -1    0    0  505  502  0.00000000000E+00  0.00000000000E+00  0.38670382606E+03  0.38670382606E+03  0.00000000000E+00 0. -1.
          2   -1    0    0  503    0 -0.00000000000E+00 -0.00000000000E+00 -0.81129719274E+03  0.81129719274E+03  0.00000000000E+00 0.  1.
         21    1    1    2  503  504 -0.80528831950E+02 -0.57956063062E+02 -0.35764316502E+03  0.37115014685E+03  0.00000000000E+00 0.  1.
         21    1    1    2  504  502 -0.10084391795E+01  0.10094685871E+03  0.32266895762E+03  0.33809250427E+03  0.00000000000E+00 0. -1.
         21    1    1    2  505  501 -0.25262688430E+02  0.48858290642E+02  0.17690953143E+02  0.57778073819E+02  0.00000000000E+00 0. -1.
          2    1    1    2  501    0  0.10679995956E+03 -0.91849086287E+02 -0.40731011243E+03  0.43098029386E+03  0.00000000000E+00 0.  1.
<scales pt_clust_3="99.06600" pt_clust_4="14000.00000" pt_clust_5="55.00305" pt_clust_6="145.91405"></scales>
<clustering>
<clus scale="   55.003">  1  5  2 -1</clus>
<clus scale="   99.066">  2  3  1 -1</clus>
<clus scale="  145.914">  2  6  1 -1</clus>
<clus scale="   55.003">  1  3  2 -1</clus>
</clustering>
</event>
<event>
 6    0  0.1361744E+002  0.2372568E+03  0.7546771E-02  0.1121634E+00
          2   -1    0    0  504    0 -0.00000000000E+00  0.00000000000E+00  0.71315767318E+03  0.71315767318E+03  0.00000000000E+00 0.  1.
         21   -1    0    0  505  502  0.00000000000E+00 -0.00000000000E+00 -0.10404359251E+04  0.10404359251E+04  0.00000000000E+00 0.  1.
         21    1    1    2  503  501 -0.68664567067E+02 -0.17598938022E+03  0.51351503495E+03  0.54716064902E+03  0.00000000000E+00 0.  1.
         21    1    1    2  504  502 -0.10644924992E+02  0.70372436359E+02 -0.16886979999E+03  0.18325556902E+03  0.00000000000E+00 0. -1.
         21    1    1    2  505  503  0.12433249716E+03  0.12457959344E+03 -0.83478929258E+03  0.85314231401E+03  0.00000000000E+00 0.  1.
          2    1    1    2  501    0 -0.45023005103E+02 -0.18962649579E+02  0.16286580572E+03  0.17003506621E+03  0.00000000000E+00 0.  1.
<scales pt_clust_3="39.21810" pt_clust_4="71.17299" pt_clust_5="224.37316" pt_clust_6="39.21810"></scales>
<clustering>
<clus scale="   39.218">  3  6 -1 -1</clus>
<clus scale="   71.173">  2  4  1 -1</clus>
<clus scale="  224.373">  2  5  1 -1</clus>
<clus scale="   71.173">  2  3  1 -1</clus>
</clustering>
</event>
<event>
 6    0  0.1361744E+002  0.1771438E+03  0.7546771E-02  0.1170596E+00
         21   -1    0    0  503  502  0.00000000000E+00  0.00000000000E+00  0.74982020036E+02  0.74982020036E+02  0.00000000000E+00 0.  1.
          1   -1    0    0  505    0 -0.00000000000E+00 -0.00000000000E+00 -0.23227289593E+04  0.23227289593E+04  0.00000000000E+00 0.  1.
         21    1    1    2  503  501  0.20683446587E+02 -0.48336620303E+02 -0.10652551258E+03  0.11879359686E+03  0.00000000000E+00 0. -1.
         21    1    1    2  504  502 -0.70090878468E+02 -0.35479413212E+02 -0.15015947298E+02  0.79981239547E+02  0.00000000000E+00 0.  1.
         21    1    1    2  505  504 -0.25724061427E+02 -0.68582867622E+02 -0.77272248246E+01  0.73654918852E+02  0.00000000000E+00 0.  1.
          1    1    1    2  501    0  0.75131493308E+02  0.15239890114E+03 -0.21184782545E+04  0.21252812241E+04  0.00000000000E+00 0.  1.
<scales pt_clust_3="52.57598" pt_clust_4="52.66331" pt_clust_5="52.66331" pt_clust_6="168.23369"></scales>
<clustering>
<clus scale="   52.576">  1  3  2 -1</clus>
<clus scale="   52.663">  4  5 -1 -1</clus>
<clus scale="  168.234">  2  6  1 -1</clus>
<clus scale="   52.576">  1  3  2 -1</clus>
</clustering>
</event>
<event>
 6    0  0.1361744E+002  0.1087347E+03  0.7546771E-02  0.1262931E+00
         21   -1    0    0  504  502  0.00000000000E+00  0.00000000000E+00  0.78473769297E+02  0.78473769297E+02  0.00000000000E+00 0.  1.
          2   -1    0    0  503    0 -0.00000000000E+00 -0.00000000000E+00 -0.28399116051E+04  0.28399116051E+04  0.00000000000E+00 0. -1.
         21    1    1    2  503  505 -0.31755632322E+02  0.32479380563E+02 -0.33128091458E+03  0.33438058364E+03  0.00000000000E+00 0.  1.
         21    1    1    2  504  501  0.21702020153E+02  0.27434315234E+02 -0.24353116028E+02  0.42622688692E+02  0.00000000000E+00 0.  1.
         21    1    1    2  505  502  0.78183584803E+02  0.19578516537E+02  0.42311741645E+02  0.91028977383E+02  0.00000000000E+00 0.  1.
          2    1    1    2  501    0 -0.68129972634E+02 -0.79492212334E+02 -0.24481155469E+04  0.24503531247E+04  0.00000000000E+00 0. -1.
<scales pt_clust_3="45.52984" pt_clust_4="34.98027" pt_clust_5="14000.00000" pt_clust_6="108.73471"></scales>
<clustering>
<clus scale="   34.980">  1  4  2 -1</clus>
<clus scale="   45.530">  2  3  1 -1</clus>
<clus scale="  108.735">  2  6  1 -1</clus>
<clus scale="   34.980">  1  3  2 -1</clus>
</clustering>
</event>
<event>
 6    0  0.1361744E+002  0.1712842E+03  0.7546771E-02  0.1176515E+00
          1   -1    0    0  504    0 -0.00000000000E+00  0.00000000000E+00  0.14080967496E+03  0.14080967496E+03  0.00000000000E+00 0.  1.
         21   -1    0    0  505  502  0.00000000000E+00 -0.00000000000E+00 -0.18943159195E+04  0.18943159195E+04  0.00000000000E+00 0. -1.
         21    1    1    2  503  502  0.43413300402E+02  0.71391183327E+01 -0.25636741721E+03  0.26011523267E+03  0.00000000000E+00 0. -1.
         21    1    1    2  504  503  0.11501008997E+03  0.10318022327E+02 -0.15854746786E+04  0.15896740983E+04  0.00000000000E+00 0. -1.
         21    1    1    2  505  501 -0.68418094777E+02 -0.24182155417E+02  0.42733397065E+02  0.84213749223E+02  0.00000000000E+00 0.  1.
          1    1    1    2  501    0 -0.90005295595E+02  0.67250147568E+01  0.45602454201E+02  0.10112251425E+03  0.00000000000E+00 0.  1.
<scales pt_clust_3="38.72330" pt_clust_4="38.72330" pt_clust_5="30.32230" pt_clust_6="162.93038"></scales>
<clustering>
<clus scale="   30.322">  5  6 -1 -1</clus>
<clus scale="   38.723">  3  4 -1 -1</clus>
<clus scale="  162.930">  1  5  2 -1</clus>
<clus scale="  171.284">  2  3  1 -1</clus>
</clustering>
</event>
<event>
 6    0  0.1361744E+002  0.2168644E+03  0.7546771E-02  0.1136243E+00
          2   -1    0    0  505    0 -0.00000000000E+00  0.00000000000E+00  0.13210919658E+03  0.13210919658E+03  0.00000000000E+00 0. -1.
         21   -1    0    0  503  502  0.00000000000E+00 -0.00000000000E+00 -0.43987438959E+03  0.43987438959E+03  0.00000000000E+00 0. -1.
         21    1    1    2  503  504  0.43809581326E+02 -0.17161857297E+02 -0.66356844920E+02  0.81345188116E+02  0.00000000000E+00 0. -1.
         21    1    1    2  504  501 -0.89617624688E+02 -0.42030374771E+02 -0.28317989659E+02  0.10295523103E+03  0.00000000000E+00 0. -1.
         21    1    1    2  505  502  0.12814280673E+03  0.15248021258E+03 -0.12344758694E+03  0.23432904401E+03  0.00000000000E+00 0. -1.
          2    1    1    2  501    0 -0.82334763368E+02 -0.93287980511E+02 -0.89642771490E+02  0.15335412302E+03  0.00000000000E+00 0. -1.
<scales pt_clust_3="47.05113" pt_clust_4="55.10267" pt_clust_5="207.67547" pt_clust_6="55.10267"></scales>
<clustering>
<clus scale="   47.051">  2  3  1 -1</clus>
<clus scale="   55.103">  4  6 -1 -1</clus>
<clus scale="  207.675">  1  5  2 -1</clus>
<clus scale="   47.051">  2  3  1 -1</clus>
</clustering>
</event>
<event>
 6    0  0.1361744E+002  0.2391588E+03  0.7546771E-02  0.1120354E+00
          1   -1    0    0  502    0 -0.00000000000E+00  0.00000000000E+00  0.76140566773E+03  0.76140566773E+03  0.00000000000E+00 0. -1.
         21   -1    0    0  503  502  0.00000000000E+00 -0.00000000000E+00 -0.12882410440E+03  0.12882410440E+03  0.00000000000E+00 0. -1.
         21    1    1    2  503  505 -0.43725394211E+02  0.11695969132E+03  0.50742242898E+02  0.13478224923E+03  0.00000000000E+00 0.  1.
         21    1    1    2  504  501  0.30017937730E+02 -0.74368423326E+02  0.10920796406E+03  0.13549213404E+03  0.00000000000E+00 0.  1.
         21    1    1    2  505  504  0.16143552813E+01  0.95810498764E+02 -0.28460138458E+02  0.99961178952E+02  0.00000000000E+00 0. -1.
          1    1    1    2  501    0  0.12093101199E+02 -0.13840176676E+03  0.50109149483E+03  0.51999420990E+03  0.00000000000E+00 0. -1.
<scales pt_clust_3="233.68351" pt_clust_4="76.55444" pt_clust_5="76.18627" pt_clust_6="76.55444"></scales>
<clustering>
<clus scale="   76.186">  3  5 -1 -1</clus>
<clus scale="   76.554">  4  6 -1 -1</clus>
<clus scale="  233.684">  2  3  1 -1</clus>
<clus scale="  233.684">  2  3  1 -1</clus>
</clustering>
</event>
<event>
 6    0  0.1361744E+002  0.1158383E+03  0.7546771E-02  0.1250125E+00
         -2   -1    0    0    0  501 -0.00000000000E+00  0.00000000000E+00  0.31000947431E+03  0.31000947431E+03  0.00000000000E+00 0. -1.
         21   -1    0    0  504  502  0.00000000000E+00 -0.00000000000E+00 -0.18699241150E+03  0.18699241150E+03  0.00000000000E+00 0. -1.
         21    1    1    2  503  505 -0.48676341107E+02  0.23326999739E+02 -0.10102370337E+03  0.11453961647E+03  0.00000000000E+00 0. -1.
         21    1    1    2  504  501  0.14745673437E+03  0.23178715413E+02  0.16515629002E+03  0.22261478274E+03  0.00000000000E+00 0. -1.
         21    1    1    2  505  502 -0.33589450682E+02  0.26858345275E+02 -0.41467316129E+01  0.43206681093E+02  0.00000000000E+00 0.  1.
         -2    1    1    2    0  503 -0.65190942577E+02 -0.73364060427E+02  0.63031207770E+02  0.11664080551E+03  0.00000000000E+00 0. -1.
<scales pt_clust_3="81.87901" pt_clust_4="14000.00000" pt_clust_5="43.00723" pt_clust_6="115.83831"></scales>
<clustering>
<clus scale="   43.007">  2  5  1 -1</clus>
<clus scale="   81.879">  2  3  1 -1</clus>
<clus scale="  115.838">  1  6  2 -1</clus>
<clus scale="   43.007">  2  3  1 -1</clus>
</clustering>
</event>
<event>
 6    0  0.1361744E+002  0.1550898E+03  0.7546771E-02  0.1194355E+00
         21   -1    0    0  504  502  0.00000000000E+00  0.00000000000E+00  0.13124048252E+04  0.13124048252E+04  0.00000000000E+00 0.  1.
          4   -1    0    0  503    0 -0.00000000000E+00 -0.00000000000E+00 -0.70782082584E+02  0.70782082584E+02  0.00000000000E+00 0.  1.
         21    1    1    2  503  505 -0.32113004194E+02 -0.19289817497E+02 -0.41745536248E+01  0.37693089491E+02  0.00000000000E+00 0.  1.
         21    1    1    2  504  501 -0.80279598199E+02  0.33036612872E+02  0.38849578819E+03  0.39807688845E+03  0.00000000000E+00 0.  1.
         21    1    1    2  505  502  0.12720732602E+01 -0.15906328257E+03  0.65772034874E+03  0.67668220250E+03  0.00000000000E+00 0.  1.
          4    1    1    2  501    0  0.11112052913E+03  0.14531648719E+03  0.19958115935E+03  0.27073472739E+03  0.00000000000E+00 0.  1.
<scales pt_clust_3="37.46121" pt_clust_4="89.00682" pt_clust_5="14000.00000" pt_clust_6="155.08978"></scales>
<clustering>
<clus scale="   37.461">  2  3  1 -1</clus>
<clus scale="   89.007">  1  4  2 -1</clus>
<clus scale="  155.090">  2  6  1 -1</clus>
<clus scale="   89.007">  1  3  2 -1</clus>
</clustering>
</event>
<event>
 6    0  0.1361744E+002  0.1469532E+03  0.7546771E-02  0.1204268E+00
         -2   -1    0    0    0  501 -0.00000000000E+00  0.00000000000E+00  0.10198891291E+04  0.10198891291E+04  0.00000000000E+00 0. -1.
         21   -1    0    0  503  502  0.00000000000E+00 -0.00000000000E+00 -0.38341485060E+03  0.38341485060E+03  0.00000000000E+00 0. -1.
         21    1    1    2  503  504 -0.51549978802E+02 -0.71076440993E+02 -0.10832044256E+03  0.13943664890E+03  0.00000000000E+00 0. -1.
         21    1    1    2  504  505  0.43047877109E+02 -0.81297709557E+02 -0.23930251892E+03  0.25637498486E+03  0.00000000000E+00 0. -1.
         21    1    1    2  505  501  0.18480968163E+02  0.51956902849E+02  0.76511057917E+02  0.94313349646E+02  0.00000000000E+00 0.  1.
         -2    1    1    2    0  502 -0.99788664690E+01  0.10041724770E+03  0.90758618209E+03  0.91317899633E+03  0.00000000000E+00 0. -1.
<scales pt_clust_3="86.92189" pt_clust_4="14000.00000" pt_clust_5="55.14586" pt_clust_6="146.95319"></scales>
<clustering>
<clus scale="   55.146">  1  5  2 -1</clus>
<clus scale="   86.922">  2  3  1 -1</clus>
<clus scale="  146.953">  1  6  2 -1</clus>
<clus scale="   86.922">  2  3  1 -1</clus>
</clustering>
</event>
<event>
 6    0  0.1361744E+002  0.8014027E+02  0.7546771E-02  0.1328654E+00
         21   -1    0    0  504  502  0.00000000000E+00  0.00000000000E+00  0.10251687242E+04  0.10251687242E+04  0.00000000000E+00 0.  1.
         -2   -1    0    0    0  501 -0.00000000000E+00 -0.00000000000E+00 -0.65501830276E+02  0.65501830276E+02  0.00000000000E+00 0. -1.
         21    1    1    2  503  505 -0.66628975162E+02  0.13571753660E+02  0.61766725165E+03  0.62139878226E+03  0.00000000000E+00 0.  1.
         21    1    1    2  504  503 -0.73209596548E+01  0.34956156236E+02  0.28316763608E+03  0.28541100089E+03  0.00000000000E+00 0.  1.
         21    1    1    2  505  501  0.80040156551E+02  0.33199632756E+02  0.53272558250E+02  0.10171827632E+03  0.00000000000E+00 0. -1.
         -2    1    1    2    0  502 -0.60902217341E+01 -0.81727542652E+02  0.55594479792E+01  0.82142495035E+02  0.00000000000E+00 0. -1.
<scales pt_clust_3="14000.00000" pt_clust_4="35.71455" pt_clust_5="80.14027" pt_clust_6="79.92524"></scales>
<clustering>
<clus scale="   35.715">  1  4  2 -1</clus>
<clus scale="   79.925">  2  6  1 -1</clus>
<clus scale="   80.140">  2  5  1 -1</clus>
<clus scale="   35.715">  1  3  2 -1</clus>
</clustering>
</event>
<event>
 6    0  0.1361744E+002  0.1441792E+03  0.7546771E-02  0.1207814E+00
          2   -1    0    0  503    0 -0.00000000000E+00  0.00000000000E+00  0.44478382897E+03  0.44478382897E+03  0.00000000000E+00 0. -1.
         21   -1    0    0  504  502  0.00000000000E+00 -0.00000000000E+00 -0.39142757961E+03  0.39142757961E+03  0.00000000000E+00 0.  1.
         21    1    1    2  503  502  0.12423647870E+03 -0.18169485168E+02 -0.15489983063E+03  0.19939606406E+03  0.00000000000E+00 0.  1.
         21    1    1    2  504  505 -0.16298330555E+03  0.98846427646E+02 -0.15629556483E+03  0.24650046193E+03  0.00000000000E+00 0.  1.
         21    1    1    2  505  501  0.17181675889E+02 -0.48513461581E+02  0.44819496167E+02  0.68246268599E+02  0.00000000000E+00 0.  1.
          2    1    1    2  501    0  0.21565150957E+02 -0.32163480897E+02  0.31973214865E+03  0.32206861399E+03  0.00000000000E+00 0. -1.
<scales pt_clust_3="144.17916" pt_clust_4="14000.00000" pt_clust_5="68.72641" pt_clust_6="38.72396"></scales>
<clustering>
<clus scale="   38.724">  1  6  2 -1</clus>
<clus scale="   68.726">  1  5  2 -1</clus>
<clus scale="  144.179">  2  3  1 -1</clus>
<clus scale="  144.179">  2  3  1 -1</clus>
</clustering>
</event>
<event>
 6    0  0.1361744E+002  0.1077931E+03  0.7546771E-02  0.1264712E+00
          2   -1    0    0  504    0 -0.00000000000E+00  0.00000000000E+00  0.23860523811E+04  0.23860523811E+04  0.00000000000E+00 0. -1.
         21   -1    0    0  505  502  0.00000000000E+00 -0.00000000000E+00 -0.18048578179E+02  0.18048578179E+02  0.00000000000E+00 0. -1.
         21    1    1    2  503  502  0.13932999390E+02 -0.36580061682E+02  0.51846076426E+02  0.64963412976E+02  0.00000000000E+00 0. -1.
         21    1    1    2  504  503 -0.15644401867E+02 -0.13319355542E+03  0.86272540306E+03  0.87308670337E+03  0.00000000000E+00 0.  1.
         21    1    1    2  505  501  0.28876082051E+01  0.72196556276E+02  0.30336650282E+03  0.31185239466E+03  0.00000000000E+00 0. -1.
          2    1    1    2  501    0 -0.11762057281E+01  0.97577060831E+02  0.11500658206E+04  0.11541984483E+04  0.00000000000E+00 0. -1.
<scales pt_clust_3="39.14370" pt_clust_4="14000.00000" pt_clust_5="59.23560" pt_clust_6="107.79312"></scales>
<clustering>
<clus scale="   39.144">  2  3  1 -1</clus>
<clus scale="   59.236">  2  5  1 -1</clus>
<clus scale="  107.793">  1  6  2 -1</clus>
<clus scale="   39.144">  2  3  1 -1</clus>
</clustering>
</event>
<event>
 6    0  0.1361744E+002  0.7798490E+02  0.7546771E-02  0.1334869E+00
         21   -1    0    0  503  502  0.00000000000E+00  0.00000000000E+00  0.22134952630E+03  0.22134952630E+03  0.00000000000E+00 0.  1.
          1   -1    0    0  504    0 -0.00000000000E+00 -0.00000000000E+00 -0.61541704393E+03  0.61541704393E+03  0.00000000000E+00 0.  1.
         21    1    1    2  503  501  0.43293068644E+02 -0.53812073087E+01  0.84564889600E+02  0.95154966963E+02  0.00000000000E+00 0. -1.
         21    1    1    2  504  505  0.30035701795E+02 -0.58767714148E+01 -0.18713429061E+03  0.18962046975E+03  0.00000000000E+00 0. -1.
         21    1    1    2  505  502 -0.68851622740E+02 -0.68144358253E+02  0.10775303954E+03  0.14489622854E+03  0.00000000000E+00 0.  1.
          1    1    1    2  501    0 -0.44771476994E+01  0.79402336977E+02 -0.39925115615E+03  0.40709490498E+03  0.00000000000E+00 0.  1.
<scales pt_clust_3="44.00480" pt_clust_4="30.60523" pt_clust_5="77.98490" pt_clust_6="14000.00000"></scales>
<clustering>
<clus scale="   30.605">  2  4  1 -1</clus>
<clus scale="   44.005">  1  3  2 -1</clus>
<clus scale="   77.985">  1  5  2 -1</clus>
<clus scale="   44.005">  1  3  2 -1</clus>
</clustering>
</event>
<event>
 6    0  0.1361744E+002  0.9153868E+02  0.7546771E-02  0.1299168E+00
          2   -1    0    0  503    0 -0.00000000000E+00  0.00000000000E+00  0.81090125093E+03  0.81090125093E+03  0.00000000000E+00 0. -1.
         21   -1    0    0  505  502  0.00000000000E+00 -0.00000000000E+00 -0.43343154874E+02  0.43343154874E+02  0.00000000000E+00 0. -1.
         21    1    1    2  503  502  0.25530614358E+02  0.33047188087E+02 -0.24350857836E+01  0.41831310675E+02  0.00000000000E+00 0. -1.
         21    1    1    2  504  501  0.63117009338E+02 -0.42395019621E+02  0.21885112151E+03  0.23168277437E+03  0.00000000000E+00 0. -1.
         21    1    1    2  505  504  0.80005378466E+01 -0.30437956744E+02  0.15676915859E+02  0.35160254656E+02  0.00000000000E+00 0. -1.
          2    1    1    2  501    0 -0.96648161543E+02  0.39785788278E+02  0.53546514447E+03  0.54557006610E+03  0.00000000000E+00 0. -1.
<scales pt_clust_3="33.43077" pt_clust_4="14000.00000" pt_clust_5="31.47186" pt_clust_6="91.53868"></scales>
<clustering>
<clus scale="   31.472">  2  5  1 -1</clus>
<clus scale="   33.431">  2  3  1 -1</clus>
<clus scale="   91.539">  1  6  2 -1</clus>
<clus scale="   31.472">  2  3  1 -1</clus>
</clustering>
</event>
<event>
 6    0  0.1361744E+002  0.1082229E+03  0.7546771E-02  0.1263897E+00
         -1   -1    0    0    0  501 -0.00000000000E+00  0.00000000000E+00  0.25920475558E+03  0.25920475558E+03  0.00000000000E+00 0. -1.
         21   -1    0    0  501  502  0.00000000000E+00 -0.00000000000E+00 -0.31389441958E+03  0.31389441958E+03  0.00000000000E+00 0.  1.
         21    1    1    2  503  502 -0.47369814972E+02 -0.22951708529E+02 -0.18221181713E+03  0.18966240165E+03  0.00000000000E+00 0.  1.
         21    1    1    2  504  503 -0.17387498252E+02  0.75728342280E+02 -0.46608515336E+02  0.90606073868E+02  0.00000000000E+00 0.  1.
         21    1    1    2  505  504 -0.68613438627E+02 -0.14171860533E+02 -0.75849540894E-01  0.70061768065E+02  0.00000000000E+00 0.  1.
         -1    1    1    2    0  505  0.13337075185E+03 -0.38604773218E+02  0.17420651801E+03  0.22276893159E+03  0.00000000000E+00 0. -1.
<scales pt_clust_3="52.63725" pt_clust_4="76.50502" pt_clust_5="108.22291" pt_clust_6="14000.00000"></scales>
<clustering>
<clus scale="   52.637">  2  3  1 -1</clus>
<clus scale="   76.505">  2  4  1 -1</clus>
<clus scale="  108.223">  2  5  1 -1</clus>
<clus scale="   52.637">  2  3  1 -1</clus>
</clustering>
</event>
<event>
 6    0  0.1361744E+002  0.1532280E+03  0.7546771E-02  0.1196562E+00
          1   -1    0    0  505    0 -0.00000000000E+00  0.00000000000E+00  0.73013369350E+03  0.73013369350E+03  0.00000000000E+00 0.  1.
         21   -1    0    0  503  502  0.00000000000E+00 -0.00000000000E+00 -0.12542732577E+03  0.12542732577E+03  0.00000000000E+00 0.  1.
         21    1    1    2  503  504 -0.38191611070E+02 -0.30292569591E+02 -0.52917864431E-01  0.48746709928E+02  0.00000000000E+00 0.  1.
         21    1    1    2  504  501  0.39628131527E+02  0.50403268363E+02  0.27653694915E+03  0.28387244057E+03  0.00000000000E+00 0.  1.
         21    1    1    2  505  502  0.41119826770E+01 -0.11224892923E+03 -0.57599727537E+02  0.12623176750E+03  0.00000000000E+00 0.  1.
          1    1    1    2  501    0 -0.55485031342E+01  0.92138230458E+02  0.38582206397E+03  0.39671010126E+03  0.00000000000E+00 0.  1.
<scales pt_clust_3="48.74668" pt_clust_4="45.60055" pt_clust_5="143.12642" pt_clust_6="45.60055"></scales>
<clustering>
<clus scale="   45.601">  4  6 -1 -1</clus>
<clus scale="   48.747">  2  3  1 -1</clus>
<clus scale="  143.126">  2  5  1 -1</clus>
<clus scale="   48.747">  2  3  1 -1</clus>
</clustering>
</event>
<event>
 6    0  0.1361744E+002  0.1151805E+03  0.7546771E-02  0.1251266E+00
         21   -1    0    0  505  502  0.00000000000E+00  0.00000000000E+00  0.13432712400E+03  0.13432712400E+03  0.00000000000E+00 0. -1.
          1   -1    0    0  504    0 -0.00000000000E+00 -0.00000000000E+00 -0.63486051465E+03  0.63486051465E+03  0.00000000000E+00 0. -1.
         21    1    1    2  503  502  0.30714972267E+02 -0.13261183969E+02  0.68770075665E+02  0.76476086646E+02  0.00000000000E+00 0. -1.
         21    1    1    2  504  503  0.39783683701E+02  0.17862388803E+02 -0.12207871497E+02  0.45286184969E+02  0.00000000000E+00 0. -1.
         21    1    1    2  505  501  0.15362323789E+02 -0.91104112844E+02 -0.17243046863E+02  0.93985546944E+02  0.00000000000E+00 0.  1.
          1    1    1    2  501    0 -0.85860979757E+02  0.86502908010E+02 -0.53985254795E+03  0.55343982010E+03  0.00000000000E+00 0. -1.
<scales pt_clust_3="33.45547" pt_clust_4="50.10291" pt_clust_5="115.18046" pt_clust_6="14000.00000"></scales>
<clustering>
<clus scale="   33.455">  1  3  2 -1</clus>
<clus scale="   50.103">  1  4  2 -1</clus>
<clus scale="  115.180">  1  5  2 -1</clus>
<clus scale="   33.455">  1  3  2 -1</clus>
</clustering>
</event>
<event>
 6    0  0.1361744E+002  0.7483071E+02  0.7546771E-02  0.1344396E+00
         -4   -1    0    0    0  501 -0.00000000000E+00  0.00000000000E+00  0.27771668160E+03  0.27771668160E+03  0.00000000000E+00 0.  1.
         21   -1    0    0  503  502  0.00000000000E+00 -0.00000000000E+00 -0.30709451457E+03  0.30709451457E+03  0.00000000000E+00 0. -1.
         21    1    1    2  503  505 -0.32290346281E+02 -0.19383898696E+02 -0.12620982296E+03  0.13170923051E+03  0.00000000000E+00 0. -1.
         21    1    1    2  504  501 -0.28452526206E+02  0.47559162029E+02  0.19358129829E+02  0.58703980537E+02  0.00000000000E+00 0. -1.
         21    1    1    2  505  504 -0.31445152187E+02  0.59178691265E+02 -0.13279787350E+03  0.14874874891E+03  0.00000000000E+00 0. -1.
         -4    1    1    2    0  502  0.92188024675E+02 -0.87353954598E+02  0.21027173365E+03  0.24564923621E+03  0.00000000000E+00 0.  1.
<scales pt_clust_3="37.66168" pt_clust_4="55.57001" pt_clust_5="74.83071" pt_clust_6="14000.00000"></scales>
<clustering>
<clus scale="   37.662">  2  3  1 -1</clus>
<clus scale="   55.570">  1  4  2 -1</clus>
<clus scale="   74.831">  2  5  1 -1</clus>
<clus scale="   37.662">  2  3  1 -1</clus>
</clustering>
</event>
<event>
 6    0  0.1361744E+002  0.1592231E+03  0.7546771E-02  0.1189577E+00
         21   -1    0    0  505  502  0.00000000000E+00  0.00000000000E+00  0.24576602485E+03  0.24576602485E+03  0.00000000000E+00 0. -1.
          2   -1    0    0  503    0 -0.00000000000E+00 -0.00000000000E+00 -0.14500857541E+04  0.14500857541E+04  0.00000000000E+00 0.  1.
         21    1    1    2  503  502 -0.15374971554E+02  0.97059892574E+02 -0.33442169139E+03  0.34856115700E+03  0.00000000000E+00 0.  1.
         21    1    1    2  504  501 -0.92650692858E+02 -0.64831313646E+02  0.41114726112E+02  0.12032319319E+03  0.00000000000E+00 0.  1.
         21    1    1    2  505  504 -0.27958567539E+02 -0.56414606481E+02  0.14703187628E+03  0.15994580947E+03  0.00000000000E+00 0. -1.
          2    1    1    2  501    0  0.13598423195E+03  0.24186027553E+02 -0.10580446403E+04  0.10670216193E+04  0.00000000000E+00 0.  1.
<scales pt_clust_3="94.37761" pt_clust_4="159.22307" pt_clust_5="62.96260" pt_clust_6="14000.00000"></scales>
<clustering>
<clus scale="   62.963">  1  5  2 -1</clus>
<clus scale="   94.378">  2  3  1 -1</clus>
<clus scale="  159.223">  1  4  2 -1</clus>
<clus scale="   62.963">  1  3  2 -1</clus>
</clustering>
</event>
<event>
 6    0  0.1361744E+002  0.2271846E+03  0.7546771E-02  0.1128637E+00
         21   -1    0    0  505  502  0.00000000000E+00  0.00000000000E+00  0.28677409853E+03  0.28677409853E+03  0.00000000000E+00 0.  1.
          1   -1    0    0  504    0 -0.00000000000E+00 -0.00000000000E+00 -0.11499268069E+04  0.11499268069E+04  0.00000000000E+00 0.  1.
         21    1    1    2  503  501 -0.59963998881E+01 -0.11685299769E+03 -0.10668931020E+03  0.15834515715E+03  0.00000000000E+00 0.  1.
         21    1    1    2  504  502 -0.64596333177E+02 -0.13730469939E+03  0.13431859940E+03  0.20264933476E+03  0.00000000000E+00 0.  1.
         21    1    1    2  505  503 -0.15822400027E+02  0.37296928475E+02  0.73306673829E+02  0.83757254278E+02  0.00000000000E+00 0. -1.
          1    1    1    2  501    0  0.86415133092E+02  0.21686076860E+03 -0.96408867141E+03  0.99194915924E+03  0.00000000000E+00 0.  1.
<scales pt_clust_3="112.50898" pt_clust_4="227.18464" pt_clust_5="40.51431" pt_clust_6="14000.00000"></scales>
<clustering>
<clus scale="   40.514">  1  5  2 -1</clus>
<clus scale="  112.509">  1  3  2 -1</clus>
<clus scale="  227.185">  1  4  2 -1</clus>
<clus scale="   40.514">  1  3  2 -1</clus>
</clustering>
</event>
<event>
 6    0  0.1361744E+002  0.9566338E+02  0.7546771E-02  0.1289689E+00
         21   -1    0    0  504  502  0.00000000000E+00  0.00000000000E+00  0.11043973130E+04  0.11043973130E+04  0.00000000000E+00 0. -1.
          2   -1    0    0  503    0 -0.00000000000E+00 -0.00000000000E+00 -0.18226860511E+04  0.18226860511E+04  0.00000000000E+00 0. -1.
         21    1    1    2  503  502  0.43803896348E+02 -0.27838273407E+02 -0.15012689356E+02  0.54028988915E+02  0.00000000000E+00 0. -1.
         21    1    1    2  504  505 -0.82314186397E+02  0.48865591533E+02  0.10783307144E+04  0.10825712914E+04  0.00000000000E+00 0. -1.
         21    1    1    2  505  501  0.29443757695E+02 -0.93411157551E+02 -0.76174204609E+03  0.76801271083E+03  0.00000000000E+00 0. -1.
          2    1    1    2  501    0  0.90665323545E+01  0.72383839425E+02 -0.10198647172E+04  0.10224703729E+04  0.00000000000E+00 0. -1.
<scales pt_clust_3="51.90136" pt_clust_4="14000.00000" pt_clust_5="95.66338" pt_clust_6="65.97160"></scales>
<clustering>
<clus scale="   51.901">  2  3  1 -1</clus>
<clus scale="   65.972">  2  6  1 -1</clus>
<clus scale="   95.663">  2  5  1 -1</clus>
<clus scale="   95.663">  1  3  2 -1</clus>
</clustering>
</event>
<event>
 6    0  0.1361744E+002  0.1543483E+03  0.7546771E-02  0.1195229E+00
         21   -1    0    0  501  502  0.00000000000E+00  0.00000000000E+00  0.58599054914E+02  0.58599054914E+02  0.00000000000E+00 0.  1.
          1   -1    0    0  504    0 -0.00000000000E+00 -0.00000000000E+00 -0.22573667884E+04  0.22573667884E+04  0.00000000000E+00 0.  1.
         21    1    1    2  503  502  0.11533697333E+03 -0.10142995006E+03 -0.64888430016E+02  0.16673680019E+03  0.00000000000E+00 0.  1.
         21    1    1    2  504  505  0.99149216166E+01 -0.37783764463E+02 -0.17806123232E+03  0.18229569656E+03  0.00000000000E+00 0.  1.
         21    1    1    2  505  503  0.79424994897E+01  0.40593536579E+02 -0.29913183846E+03  0.30197810399E+03  0.00000000000E+00 0.  1.
          1    1    1    2  501    0 -0.13319439443E+03  0.98620177948E+02 -0.16566862327E+04  0.16649552426E+04  0.00000000000E+00 0.  1.
<scales pt_clust_3="14000.00000" pt_clust_4="39.06301" pt_clust_5="36.35657" pt_clust_6="154.34832"></scales>
<clustering>
<clus scale="   39.063">  2  4  1 -1</clus>
<clus scale="   36.357">  2  5  1 -1</clus>
<clus scale="  154.348">  2  6  1 -1</clus>
<clus scale="  154.348">  1  3  2 -1</clus>
</clustering>
</event>
<event>
 6    0  0.1361744E+002  0.2021499E+03  0.7546771E-02  0.1147938E+00
          2   -1    0    0  503    0 -0.00000000000E+00  0.00000000000E+00  0.15905014171E+04  0.15905014171E+04  0.00000000000E+00 0.  1.
         21   -1    0    0  501  502  0.00000000000E+00 -0.00000000000E+00 -0.34178793775E+03  0.34178793775E+03  0.00000000000E+00 0. -1.
         21    1    1    2  503  505  0.10589223135E+03  0.14933184831E+02  0.25069703409E+03  0.27255305460E+03  0.00000000000E+00 0.  1.
         21    1    1    2  504  502 -0.12604818985E+03  0.38694158273E+02 -0.22644291327E+03  0.26203392341E+03  0.00000000000E+00 0. -1.
         21    1    1    2  505  504 -0.28032561407E+02  0.62147094916E+02 -0.69689411251E+02  0.97492050681E+02  0.00000000000E+00 0.  1.
          2    1    1    2  501    0  0.48188519901E+02 -0.11577443802E+03  0.12941487698E+04  0.13002103262E+04  0.00000000000E+00 0.  1.
<scales pt_clust_3="106.94001" pt_clust_4="62.91259" pt_clust_5="62.91259" pt_clust_6="182.23565"></scales>
<clustering>
<clus scale="   62.913">  4  5 -1 -1</clus>
<clus scale="  106.940">  1  3  2 -1</clus>
<clus scale="  182.236">  1  6  2 -1</clus>
<clus scale="  202.150">  2  3  1 -1</clus>
</clustering>
</event>
<event>
 6    0  0.1361744E+002  0.4679946E+03  0.7546771E-02  0.1022488E+00
          2   -1    0    0  504    0 -0.00000000000E+00  0.00000000000E+00  0.42153547123E+03  0.42153547123E+03  0.00000000000E+00 0. -1.
         21   -1    0    0  501  502  0.00000000000E+00 -0.00000000000E+00 -0.15530708405E+04  0.15530708405E+04  0.00000000000E+00 0.  1.
         21    1    1    2  503  502  0.11985404422E+03 -0.80684057632E+02 -0.44712773420E+03  0.46989160427E+03  0.00000000000E+00 0.  1.
         21    1    1    2  504  505  0.67766113235E+02  0.38944076634E+02 -0.39867769613E+02  0.87740106347E+02  0.00000000000E+00 0. -1.
         21    1    1    2  505  503  0.21759565749E+03 -0.23432813413E+03 -0.83254572948E+03  0.89184636361E+03  0.00000000000E+00 0.  1.
          2    1    1    2  501    0 -0.40521581494E+03  0.27606811513E+03  0.18800586406E+03  0.52512823747E+03  0.00000000000E+00 0. -1.
<scales pt_clust_3="40.67151" pt_clust_4="78.15937" pt_clust_5="40.67151" pt_clust_6="464.06663"></scales>
<clustering>
<clus scale="   40.672">  3  5 -1 -1</clus>
<clus scale="   78.159">  1  4  2 -1</clus>
<clus scale="  464.067">  1  6  2 -1</clus>
<clus scale="  467.995">  2  3  1 -1</clus>
</clustering>
</event>
<event>
 6    0  0.1361744E+002  0.1179970E+03  0.7546771E-02  0.1246438E+00
         -4   -1    0    0    0  501 -0.00000000000E+00  0.00000000000E+00  0.68018329460E+03  0.68018329460E+03  0.00000000000E+00 0. -1.
         21   -1    0    0  505  502  0.00000000000E+00 -0.00000000000E+00 -0.62283866801E+03  0.62283866801E+03  0.00000000000E+00 0. -1.
         21    1    1    2  503  501 -0.24576506117E+02 -0.46330553906E+02  0.12336406719E+03  0.13404931164E+03  0.00000000000E+00 0.  1.
         21    1    1    2  504  502 -0.12412081101E+02 -0.89548892712E+02 -0.61858621653E+02  0.10954247129E+03  0.00000000000E+00 0.  1.
         21    1    1    2  505  503  0.12997581052E+03  0.11096230841E+03 -0.51343861463E+03  0.54113358443E+03  0.00000000000E+00 0. -1.
         -4    1    1    2    0  504 -0.92987223304E+02  0.24917138204E+02  0.50927779568E+03  0.51829659525E+03  0.00000000000E+00 0. -1.
<scales pt_clust_3="52.44545" pt_clust_4="92.53818" pt_clust_5="14000.00000" pt_clust_6="117.99697"></scales>
<clustering>
<clus scale="   52.445">  1  3  2 -1</clus>
<clus scale="   92.538">  2  4  1 -1</clus>
<clus scale="  117.997">  1  6  2 -1</clus>
<clus scale="   92.538">  2  3  1 -1</clus>
</clustering>
</event>
<event>
 6    0  0.1361744E+002  0.2368052E+03  0.7546771E-02  0.1121940E+00
         21   -1    0    0  504  502  0.00000000000E+00  0.00000000000E+00  0.63202983032E+03  0.63202983032E+03  0.00000000000E+00 0. -1.
          4   -1    0    0  505    0 -0.00000000000E+00 -0.00000000000E+00 -0.13660869866E+04  0.13660869866E+04  0.00000000000E+00 0. -1.
         21    1    1    2  503  502 -0.15678628417E+02 -0.49777409005E+02  0.36314714628E+02  0.63579622010E+02  0.00000000000E+00 0.  1.
         21    1    1    2  504  501 -0.21216201786E+03 -0.19003181489E+02  0.54883560248E+03  0.58872265225E+03  0.00000000000E+00 0. -1.
         21    1    1    2  505  503  0.25899718924E+02 -0.28838323896E+02 -0.13067331320E+03  0.13630098733E+03  0.00000000000E+00 0. -1.
          4    1    1    2  501    0  0.20194092735E+03  0.97618914391E+02 -0.11885341602E+04  0.12095135554E+04  0.00000000000E+00 0. -1.
<scales pt_clust_3="52.40767" pt_clust_4="236.80517" pt_clust_5="38.76138" pt_clust_6="14000.00000"></scales>
<clustering>
<clus scale="   38.761">  2  5  1 -1</clus>
<clus scale="   52.408">  1  3  2 -1</clus>
<clus scale="  236.805">  1  4  2 -1</clus>
<clus scale="   52.408">  1  3  2 -1</clus>
</clustering>
</event>
<event>
 6    0  0.1361744E+002  0.1137876E+03  0.7546771E-02  0.1253712E+00
          1   -1    0    0  503    0 -0.00000000000E+00  0.00000000000E+00  0.36202028603E+03  0.36202028603E+03  0.00000000000E+00 0.  1.
         21   -1    0    0  505  502  0.00000000000E+00 -0.00000000000E+00 -0.46281392311E+03  0.46281392311E+03  0.00000000000E+00 0. -1.
         21    1    1    2  503  504 -0.57766101098E+02  0.91287801467E+02  0.72858387616E+02  0.13030245500E+03  0.00000000000E+00 0. -1.
         21    1    1    2  504  502 -0.11470977072E+02 -0.31807880193E+02 -0.43433240944E+01  0.34090893528E+02  0.00000000000E+00 0.  1.
         21    1    1    2  505  501  0.36739953125E+02  0.54142937234E+02 -0.39782749057E+03  0.40317241233E+03  0.00000000000E+00 0. -1.
          1    1    1    2  501    0  0.32497125045E+02 -0.11362285851E+03  0.22851878997E+03  0.25726844828E+03  0.00000000000E+00 0.  1.
<scales pt_clust_3="14000.00000" pt_clust_4="33.81308" pt_clust_5="36.64056" pt_clust_6="113.78760"></scales>
<clustering>
<clus scale="   33.813">  2  4  1 -1</clus>
<clus scale="   36.641">  2  5  1 -1</clus>
<clus scale="  113.788">  1  6  2 -1</clus>
<clus scale="   33.813">  2  3  1 -1</clus>
</clustering>
</event>
<event>
 6    0  0.1361744E+002  0.2186598E+03  0.7546771E-02  0.1134886E+00
         21   -1    0    0  503  502  0.00000000000E+00  0.00000000000E+00  0.28269843862E+04  0.28269843862E+04  0.00000000000E+00 0. -1.
          2   -1    0    0  505    0 -0.00000000000E+00 -0.00000000000E+00 -0.14282437886E+03  0.14282437886E+03  0.00000000000E+00 0.  1.
         21    1    1    2  503  504 -0.12564642282E+03  0.10839161688E+03  0.23203419438E+04  0.23262679343E+04  0.00000000000E+00 0. -1.
         21    1    1    2  504  501  0.10657289073E+03 -0.12194102927E+03 -0.10165806129E+02  0.16226749297E+03  0.00000000000E+00 0.  1.
         21    1    1    2  505  502 -0.63924330006E+00  0.59314903191E+02  0.41346468987E+03  0.41769811604E+03  0.00000000000E+00 0. -1.
          2    1    1    2  501    0  0.19712775387E+02 -0.45765490801E+02 -0.39480820153E+02  0.63575221759E+02  0.00000000000E+00 0.  1.
<scales pt_clust_3="208.19583" pt_clust_4="37.07209" pt_clust_5="59.31835" pt_clust_6="37.07209"></scales>
<clustering>
<clus scale="   37.072">  4  6 -1 -1</clus>
<clus scale="   59.318">  1  5  2 -1</clus>
<clus scale="  208.196">  1  3  2 -1</clus>
<clus scale="   59.318">  1  3  2 -1</clus>
</clustering>
</event>
<event>
 6    0  0.1361744E+002  0.7458422E+02  0.7546771E-02  0.1345163E+00
         21   -1    0    0  501  502  0.00000000000E+00  0.00000000000E+00  0.29089669217E+02  0.29089669217E+02  0.00000000000E+00 0. -1.
          1   -1    0    0  505    0 -0.00000000000E+00 -0.00000000000E+00 -0.20244546056E+04  0.20244546056E+04  0.00000000000E+00 0. -1.
         21    1    1    2  503  504 -0.37081693394E+02  0.26902955633E+02 -0.95953123950E+01  0.46806954896E+02  0.00000000000E+00 0. -1.
         21    1    1    2  504  502  0.31326104487E+02  0.19349048986E+02 -0.54809898461E+02  0.66029050336E+02  0.00000000000E+00 0.  1.
         21    1    1    2  505  503 -0.30528821411E+02  0.58563213634E+02 -0.11519651346E+04  0.11538567199E+04  0.00000000000E+00 0. -1.
          1    1    1    2  501    0  0.36284410317E+02 -0.10481521825E+03 -0.77899459092E+03  0.78685154959E+03  0.00000000000E+00 0. -1.
<scales pt_clust_3="43.97834" pt_clust_4="36.81997" pt_clust_5="14000.00000" pt_clust_6="74.58422"></scales>
<clustering>
<clus scale="   36.820">  1  4  2 -1</clus>
<clus scale="   43.978">  1  3  2 -1</clus>
<clus scale="   74.584">  1  6  2 -1</clus>
<clus scale="   36.820">  1  3  2 -1</clus>
</clustering>
</event>
<event>
 6    0  0.1361744E+002  0.1100308E+03  0.7546771E-02  0.1260513E+00
         21   -1    0    0  504  502  0.00000000000E+00  0.00000000000E+00  0.11160114596E+03  0.11160114596E+03  0.00000000000E+00 0.  1.
          1   -1    0    0  505    0 -0.00000000000E+00 -0.00000000000E+00 -0.11457794227E+04  0.11457794227E+04  0.00000000000E+00 0. -1.
         21    1    1    2  503  502  0.98256120494E+02 -0.96770381181E+02  0.40429573680E+02  0.14371263798E+03  0.00000000000E+00 0.  1.
         21    1    1    2  504  501 -0.50433364001E+02 -0.77828006970E+00 -0.20760933984E+03  0.21364870211E+03  0.00000000000E+00 0.  1.
         21    1    1    2  505  503 -0.68590802928E+01  0.75090829820E+02 -0.74009971301E+02  0.10565583542E+03  0.00000000000E+00 0.  1.
          1    1    1    2  501    0 -0.40963676200E+02  0.22457831431E+02 -0.79298853924E+03  0.79436339312E+03  0.00000000000E+00 0. -1.
<scales pt_clust_3="14000.00000" pt_clust_4="75.99913" pt_clust_5="110.03077" pt_clust_6="46.71592"></scales>
<clustering>
<clus scale="   46.716">  2  6  1 -1</clus>
<clus scale="   75.999">  2  4  1 -1</clus>
<clus scale="  110.031">  2  5  1 -1</clus>
<clus scale="  110.031">  1  3  2 -1</clus>
</clustering>
</event>
<event>
 6    0  0.1361744E+002  0.3116153E+03  0.7546771E-02  0.1079574E+00
          2   -1    0    0  505    0 -0.00000000000E+00  0.00000000000E+00  0.19551016319E+04  0.19551016319E+04  0.00000000000E+00 0.  1.
         21   -1    0    0  504  502  0.00000000000E+00 -0.00000000000E+00 -0.38883269307E+03  0.38883269307E+03  0.00000000000E+00 0. -1.
         21    1    1    2  503  501 -0.33308881251E+02 -0.49479557829E+02  0.51512041402E+02  0.78811157982E+02  0.00000000000E+00 0.  1.
         21    1    1    2  504  503  0.95340773537E+00 -0.44790979847E+02 -0.30424369903E+02  0.54155176538E+02  0.00000000000E+00 0. -1.
         21    1    1    2  505  502 -0.20809945480E+03 -0.10935022514E+03 -0.27610631408E+03  0.36262591123E+03  0.00000000000E+00 0. -1.
          2    1    1    2  501    0  0.24045492831E+03  0.20362076281E+03  0.18212875814E+04  0.18483420792E+04  0.00000000000E+00 0.  1.
<scales pt_clust_3="61.09751" pt_clust_4="44.80113" pt_clust_5="14000.00000" pt_clust_6="311.61527"></scales>
<clustering>
<clus scale="   44.801">  2  4  1 -1</clus>
<clus scale="   61.098">  2  3  1 -1</clus>
<clus scale="  311.615">  1  6  2 -1</clus>
<clus scale="   44.801">  2  3  1 -1</clus>
</clustering>
</event>
<event>
 6    0  0.1361744E+002  0.1673265E+03  0.7546771E-02  0.1180665E+00
         21   -1    0    0  504  502  0.00000000000E+00  0.00000000000E+00  0.19574611972E+02  0.19574611972E+02  0.00000000000E+00 0.  1.
          2   -1    0    0  505    0 -0.00000000000E+00 -0.00000000000E+00 -0.27309223390E+04  0.27309223390E+04  0.00000000000E+00 0.  1.
         21    1    1    2  503  501  0.62342445244E+02 -0.44409839548E+02 -0.24188192242E+03  0.25370391941E+03  0.00000000000E+00 0.  1.
         21    1    1    2  504  503  0.14311993204E+02 -0.94254271392E+02 -0.23178013015E+03  0.25062068861E+03  0.00000000000E+00 0.  1.
         21    1    1    2  505  502  0.28378021493E+02  0.49533853468E+02 -0.60692852661E+03  0.60960737459E+03  0.00000000000E+00 0.  1.
          2    1    1    2  501    0 -0.10503245994E+03  0.89130257472E+02 -0.16307571478E+04  0.16365649683E+04  0.00000000000E+00 0.  1.
<scales pt_clust_3="64.17152" pt_clust_4="64.17152" pt_clust_5="57.08691" pt_clust_6="152.03363"></scales>
<clustering>
<clus scale="   57.087">  2  5  1 -1</clus>
<clus scale="   64.172">  3  4 -1 -1</clus>
<clus scale="  152.034">  2  6  1 -1</clus>
<clus scale="  167.326">  1  3  2 -1</clus>
</clustering>
</event>
<event>
 6    0  0.1361744E+002  0.8643420E+02  0.7546771E-02  0.1311724E+00
         21   -1    0    0  505  502  0.00000000000E+00  0.00000000000E+00  0.13862004321E+04  0.13862004321E+04  0.00000000000E+00 0. -1.
          2   -1    0    0  504    0 -0.00000000000E+00 -0.00000000000E+00 -0.74579567797E+03  0.74579567797E+03  0.00000000000E+00 0.  1.
         21    1    1    2  503  502 -0.10913422379E+03  0.19805734700E+02  0.56848170786E+03  0.57920117239E+03  0.00000000000E+00 0. -1.
         21    1    1    2  504  503 -0.47428216285E+02  0.65899739500E+01 -0.70382901893E+02  0.85127059949E+02  0.00000000000E+00 0.  1.
         21    1    1    2  505  501  0.33510190603E+02 -0.60789855075E+02  0.79730627582E+03  0.80032220812E+03  0.00000000000E+00 0. -1.
          2    1    1    2  501    0  0.12305224947E+03  0.34394146425E+02 -0.65500032770E+03  0.66734566957E+03  0.00000000000E+00 0.  1.
<scales pt_clust_3="86.43420" pt_clust_4="47.88385" pt_clust_5="69.34960" pt_clust_6="14000.00000"></scales>
<clustering>
<clus scale="   47.884">  2  4  1 -1</clus>
<clus scale="   69.350">  1  5  2 -1</clus>
<clus scale="   86.434">  1  3  2 -1</clus>
<clus scale="   69.350">  1  3  2 -1</clus>
</clustering>
</event>
<event>
 6    0  0.1361744E+002  0.1106425E+03  0.7546771E-02  0.1259385E+00
          3   -1    0    0  504    0 -0.00000000000E+00  0.00000000000E+00  0.35325522301E+03  0.35325522301E+03  0.00000000000E+00 0. -1.
         21   -1    0    0  505  502  0.00000000000E+00 -0.00000000000E+00 -0.25024662201E+04  0.25024662201E+04  0.00000000000E+00 0.  1.
         21    1    1    2  503  502 -0.87516151742E+02  0.96239898636E+01 -0.23719029993E+04  0.23735365041E+04  0.00000000000E+00 0.  1.
         21    1    1    2  504  503 -0.15222004422E+02 -0.96961633829E+02  0.10184581826E+02  0.98676205644E+02  0.00000000000E+00 0.  1.
         21    1    1    2  505  501  0.37602978342E+02 -0.85139604837E+01 -0.69022001247E+02  0.79060155322E+02  0.00000000000E+00 0.  1.
          3    1    1    2  501    0  0.65135177821E+02  0.95851604449E+02  0.28152942163E+03  0.30444857810E+03  0.00000000000E+00 0. -1.
<scales pt_clust_3="50.79252" pt_clust_4="110.64250" pt_clust_5="38.55479" pt_clust_6="14000.00000"></scales>
<clustering>
<clus scale="   38.555">  2  5  1 -1</clus>
<clus scale="   50.793">  2  3  1 -1</clus>
<clus scale="  110.643">  2  4  1 -1</clus>
<clus scale="   38.555">  2  3  1 -1</clus>
</clustering>
</event>
<event>
 6    0  0.1361744E+002  0.1572203E+03  0.7546771E-02  0.1191871E+00
         21   -1    0    0  505  502  0.00000000000E+00  0.00000000000E+00  0.85598273283E+03  0.85598273283E+03  0.00000000000E+00 0. -1.
          2   -1    0    0  504    0 -0.00000000000E+00 -0.00000000000E+00 -0.17895889913E+04  0.17895889913E+04  0.00000000000E+00 0. -1.
         21    1    1    2  503  501 -0.11349232938E+03  0.86966813223E+02  0.48198177182E+03  0.50274264171E+03  0.00000000000E+00 0. -1.
         21    1    1    2  504  502  0.71372525553E+02  0.11095000330E+03 -0.74746983507E+03  0.75902246013E+03  0.00000000000E+00 0.  1.
         21    1    1    2  505  503  0.72754860652E+02  0.20780204462E+02  0.34177522320E+03  0.35005055326E+03  0.00000000000E+00 0. -1.
          2    1    1    2  501    0 -0.30635056827E+02 -0.21869702098E+03 -0.10098934184E+04  0.10337560690E+04  0.00000000000E+00 0. -1.
<scales pt_clust_3="115.43911" pt_clust_4="157.22031" pt_clust_5="75.66430" pt_clust_6="14000.00000"></scales>
<clustering>
<clus scale="   75.664">  1  5  2 -1</clus>
<clus scale="  115.439">  1  3  2 -1</clus>
<clus scale="  157.220">  2  4  1 -1</clus>
<clus scale="   75.664">  1  3  2 -1</clus>
</clustering>
</event>
<event>
 6    0  0.1361744E+002  0.1320346E+03  0.7546771E-02  0.1224468E+00
          3   -1    0    0  503    0 -0.00000000000E+00  0.00000000000E+00  0.36659652066E+03  0.36659652066E+03  0.00000000000E+00 0.  1.
         21   -1    0    0  504  502  0.00000000000E+00 -0.00000000000E+00 -0.45736346656E+03  0.45736346656E+03  0.00000000000E+00 0.  1.
         21    1    1    2  503  505 -0.10479299016E+02  0.46519634634E+02  0.48602802398E+02  0.68089092484E+02  0.00000000000E+00 0.  1.
         21    1    1    2  504  501  0.91918475533E+02 -0.45699471271E+02 -0.39341565596E+03  0.40658741517E+03  0.00000000000E+00 0.  1.
         21    1    1    2  505  502  0.30374219180E+02 -0.12256604016E+02 -0.29620587466E+02  0.44161031856E+02  0.00000000000E+00 0. -1.
          3    1    1    2  501    0 -0.11181339570E+03  0.11436440653E+02  0.28366649514E+03  0.30512244771E+03  0.00000000000E+00 0.  1.
<scales pt_clust_3="47.25773" pt_clust_4="14000.00000" pt_clust_5="32.75389" pt_clust_6="132.03462"></scales>
<clustering>
<clus scale="   32.754">  2  5  1 -1</clus>
<clus scale="   47.258">  1  3  2 -1</clus>
<clus scale="  132.035">  1  6  2 -1</clus>
<clus scale="   32.754">  2  3  1 -1</clus>
</clustering>
</event>
<event>
 6    0  0.1361744E+002  0.8989282E+02  0.7546771E-02  0.1303111E+00
         21   -1    0    0  503  502  0.00000000000E+00  0.00000000000E+00  0.66359055076E+02  0.66359055076E+02  0.00000000000E+00 0.  1.
          2   -1    0    0  504    0 -0.00000000000E+00 -0.00000000000E+00 -0.10086613353E+04  0.10086613353E+04  0.00000000000E+00 0. -1.
         21    1    1    2  503  505 -0.14233006905E+02  0.51776384944E+02 -0.70897130904E+02  0.88936919746E+02  0.00000000000E+00 0. -1.
         21    1    1    2  504  502  0.12305988236E+03 -0.35704064504E+02 -0.26903845054E+02  0.13092872774E+03  0.00000000000E+00 0.  1.
         21    1    1    2  505  501 -0.55470872296E+02 -0.90592859357E+01 -0.18223940906E+03  0.19070996448E+03  0.00000000000E+00 0. -1.
          2    1    1    2  501    0 -0.53356003158E+02 -0.70130345045E+01 -0.66226189517E+03  0.66444477838E+03  0.00000000000E+00 0. -1.
<scales pt_clust_3="53.69704" pt_clust_4="14000.00000" pt_clust_5="89.89282" pt_clust_6="53.96460"></scales>
<clustering>
<clus scale="   53.697">  1  3  2 -1</clus>
<clus scale="   53.965">  2  6  1 -1</clus>
<clus scale="   89.893">  2  5  1 -1</clus>
<clus scale="   53.697">  1  3  2 -1</clus>
</clustering>
</event>
<event>
 6    0  0.1361744E+002  0.1441234E+03  0.7546771E-02  0.1207886E+00
         21   -1    0    0  504  502  0.00000000000E+00  0.00000000000E+00  0.10180934155E+04  0.10180934155E+04  0.00000000000E+00 0. -1.
         -2   -1    0    0    0  501 -0.00000000000E+00 -0.00000000000E+00 -0.50770014684E+02  0.50770014684E+02  0.00000000000E+00 0.  1.
         21    1    1    2  503  502  0.49318375077E+02 -0.34621890428E+02  0.16623925439E+03  0.17682326520E+03  0.00000000000E+00 0. -1.
         21    1    1    2  504  501  0.46662640980E+02 -0.69772873261E+02  0.70829144206E+03  0.71324779902E+03  0.00000000000E+00 0. -1.
         21    1    1    2  505  503 -0.25694100125E+02  0.44830616153E+02  0.64023788008E+02  0.82274032093E+02  0.00000000000E+00 0. -1.
         -2    1    1    2    0  505 -0.70286915933E+02  0.59564147537E+02  0.28768916345E+02  0.96518333859E+02  0.00000000000E+00 0.  1.
<scales pt_clust_3="60.25759" pt_clust_4="132.38557" pt_clust_5="42.66494" pt_clust_6="42.66494"></scales>
<clustering>
<clus scale="   42.665">  5  6 -1 -1</clus>
<clus scale="   60.258">  1  3  2 -1</clus>
<clus scale="  132.386">  1  4  2 -1</clus>
<clus scale="   60.258">  1  3  2 -1</clus>
</clustering>
</event>
<event>
 6    0  0.1361744E+002  0.1432503E+03  0.7546771E-02  0.1209021E+00
          2   -1    0    0  505    0 -0.00000000000E+00  0.00000000000E+00  0.10454776866E+04  0.10454776866E+04  0.00000000000E+00 0. -1.
         21   -1    0    0  501  502  0.00000000000E+00 -0.00000000000E+00 -0.27011750968E+02  0.27011750968E+02  0.00000000000E+00 0. -1.
         21    1    1    2  503  504 -0.40964760215E+02  0.97248809692E+02  0.37913670740E+03  0.39354807262E+03  0.00000000000E+00 0. -1.
         21    1    1    2  504  502 -0.27693765657E+02  0.36953604596E+02  0.64186845877E+02  0.79072528304E+02  0.00000000000E+00 0. -1.
         21    1    1    2  505  503  0.48201147683E+02 -0.22350335385E+02  0.24496016546E+03  0.25065588122E+03  0.00000000000E+00 0. -1.
          2    1    1    2  501    0  0.20457378189E+02 -0.11185207890E+03  0.33018221688E+03  0.34921295540E+03  0.00000000000E+00 0. -1.
<scales pt_clust_3="42.41079" pt_clust_4="42.41079" pt_clust_5="53.13086" pt_clust_6="128.10332"></scales>
<clustering>
<clus scale="   42.411">  3  4 -1 -1</clus>
<clus scale="   53.131">  1  5  2 -1</clus>
<clus scale="  128.103">  2  6  1 -1</clus>
<clus scale="  128.103">  2  3  1 -1</clus>
</clustering>
</event>
<event>
 6    0  0.1361744E+002  0.8730928E+02  0.7546771E-02  0.1309502E+00
         21   -1    0    0  503  502  0.00000000000E+00  0.00000000000E+00  0.16423761323E+04  0.16423761323E+04  0.00000000000E+00 0.  1.
          1   -1    0    0  505    0 -0.00000000000E+00 -0.00000000000E+00 -0.34643545177E+02  0.34643545177E+02  0.00000000000E+00 0.  1.
         21    1    1    2  503  504 -0.40513772395E+02  0.40178955252E+02  0.40681850636E+03  0.41080045194E+03  0.00000000000E+00 0.  1.
         21    1    1    2  504  501 -0.28194977118E+02 -0.60875117832E+02  0.75235385572E+02  0.10080228146E+03  0.00000000000E+00 0.  1.
         21    1    1    2  505  502  0.18673315406E+02  0.61614016686E+02  0.10893900576E+04  0.10912908308E+04  0.00000000000E+00 0.  1.
          1    1    1    2  501    0  0.50035434107E+02 -0.40917854106E+02  0.36288637566E+02  0.74126113262E+02  0.00000000000E+00 0.  1.
<scales pt_clust_3="57.05887" pt_clust_4="87.30928" pt_clust_5="14000.00000" pt_clust_6="62.09457"></scales>
<clustering>
<clus scale="   57.059">  1  3  2 -1</clus>
<clus scale="   62.095">  2  6  1 -1</clus>
<clus scale="   87.309">  2  4  1 -1</clus>
<clus scale="   57.059">  1  3  2 -1</clus>
</clustering>
</event>
<event>
 6    0  0.1361744E+002  0.1538745E+03  0.7546771E-02  0.1195791E+00
          2   -1    0    0  505    0 -0.00000000000E+00  0.00000000000E+00  0.27238497247E+04  0.27238497247E+04  0.00000000000E+00 0.  1.
         21   -1    0    0  503  502  0.00000000000E+00 -0.00000000000E+00 -0.23444241734E+02  0.23444241734E+02  0.00000000000E+00 0. -1.
         21    1    1    2  503  501  0.13291894758E+02 -0.37238725061E+02  0.28594894530E+03  0.28866970127E+03  0.00000000000E+00 0. -1.
         21    1    1    2  504  502 -0.90392427472E+02  0.33061457558E+01  0.29973445403E+03  0.31308539487E+03  0.00000000000E+00 0. -1.
         21    1    1    2  505  504  0.93048626560E+02  0.13817105250E+03  0.49281948844E+03  0.52021181728E+03  0.00000000000E+00 0. -1.
          2    1    1    2  501    0 -0.15948093847E+02 -0.10423847319E+03  0.16219025952E+04  0.16253270530E+04  0.00000000000E+00 0.  1.
<scales pt_clust_3="36.03556" pt_clust_4="90.45287" pt_clust_5="142.17640" pt_clust_6="36.03556"></scales>
<clustering>
<clus scale="   36.036">  3  6 -1 -1</clus>
<clus scale="   90.453">  2  4  1 -1</clus>
<clus scale="  142.176">  2  5  1 -1</clus>
<clus scale="   90.453">  2  3  1 -1</clus>
</clustering>
</event>
<event>
 6    0  0.1361744E+002  0.1009485E+03  0.7546771E-02  0.1278314E+00
          2   -1    0    0  505    0 -0.00000000000E+00  0.00000000000E+00  0.34858954947E+04  0.34858954947E+04  0.00000000000E+00 0.  1.
         21   -1    0    0  503  502  0.00000000000E+00 -0.00000000000E+00 -0.40339476522E+02  0.40339476522E+02  0.00000000000E+00 0. -1.
         21    1    1    2  503  504  0.11692046966E+02 -0.32172575787E+02 -0.15349118869E+01  0.34265646784E+02  0.00000000000E+00 0. -1.
         21    1    1    2  504  501 -0.96756166227E+02 -0.40331713469E+02  0.20352780155E+04  0.20379757122E+04  0.00000000000E+00 0.  1.
         21    1    1    2  505  502  0.87793034794E+02  0.20758143447E-01  0.75727765132E+02  0.11594098413E+03  0.00000000000E+00 0. -1.
          2    1    1    2  501    0 -0.27289155337E+01  0.72483531113E+02  0.13360851494E+04  0.13380526282E+04  0.00000000000E+00 0.  1.
<scales pt_clust_3="34.23125" pt_clust_4="100.94854" pt_clust_5="14000.00000" pt_clust_6="71.10763"></scales>
<clustering>
<clus scale="   34.231">  2  3  1 -1</clus>
<clus scale="   71.108">  1  6  2 -1</clus>
<clus scale="  100.949">  1  4  2 -1</clus>
<clus scale="   34.231">  2  3  1 -1</clus>
</clustering>
</event>
<event>
 6    0  0.1361744E+002  0.1076285E+03  0.7546771E-02  0.1265026E+00
         21   -1    0    0  504  502  0.00000000000E+00  0.00000000000E+00  0.34180827802E+03  0.34180827802E+03  0.00000000000E+00 0. -1.
          2   -1    0    0  503    0 -0.00000000000E+00 -0.00000000000E+00 -0.21165572400E+03  0.21165572400E+03  0.00000000000E+00 0.  1.
         21    1    1    2  503  505 -0.33702959285E+02  0.20727896562E+02 -0.16072492406E+03  0.16552352212E+03  0.00000000000E+00 0.  1.
         21    1    1    2  504  501  0.10329061651E+03 -0.36242696887E+02  0.22347527481E+03  0.24884469652E+03  0.00000000000E+00 0. -1.
         21    1    1    2  505  502  0.96859382433E+01 -0.28966237512E+02  0.20734457006E+02  0.36915823472E+02  0.00000000000E+00 0. -1.
          2    1    1    2  501    0 -0.79273595473E+02  0.44481037838E+02  0.46667746267E+02  0.10217995991E+03  0.00000000000E+00 0.  1.
<scales pt_clust_3="39.38756" pt_clust_4="107.62848" pt_clust_5="30.54276" pt_clust_6="14000.00000"></scales>
<clustering>
<clus scale="   30.543">  1  5  2 -1</clus>
<clus scale="   39.388">  2  3  1 -1</clus>
<clus scale="  107.628">  1  4  2 -1</clus>
<clus scale="   30.543">  1  3  2 -1</clus>
</clustering>
</event>
<event>
 6    0  0.1361744E+002  0.1420300E+03  0.7546771E-02  0.1210623E+00
          2   -1    0    0  502    0 -0.00000000000E+00  0.00000000000E+00  0.47561391130E+03  0.47561391130E+03  0.00000000000E+00 0. -1.
         21   -1    0    0  505  502  0.00000000000E+00 -0.00000000000E+00 -0.16659545651E+03  0.16659545651E+03  0.00000000000E+00 0. -1.
         21    1    1    2  503  501 -0.71783392935E+01 -0.38936692679E+02  0.77075479473E+02  0.86650009393E+02  0.00000000000E+00 0. -1.
         21    1    1    2  504  503  0.50783332157E+01 -0.63971480130E+02  0.40605655539E+02  0.75940496443E+02  0.00000000000E+00 0. -1.
         21    1    1    2  505  504  0.72203697382E+01  0.14281201791E+03 -0.10699089450E+03  0.17859019487E+03  0.00000000000E+00 0. -1.
          2    1    1    2  501    0 -0.51203636604E+01 -0.39903845100E+02  0.29832821429E+03  0.30102866710E+03  0.00000000000E+00 0. -1.
<scales pt_clust_3="35.06007" pt_clust_4="35.06007" pt_clust_5="134.83395" pt_clust_6="40.23102"></scales>
<clustering>
<clus scale="   35.060">  3  4 -1 -1</clus>
<clus scale="   40.231">  1  6  2 -1</clus>
<clus scale="  134.834">  2  5  1 -1</clus>
<clus scale="  134.834">  2  3  1 -1</clus>
</clustering>
</event>
<event>
 6    0  0.1361744E+002  0.1073364E+03  0.7546771E-02  0.1265584E+00
         21   -1    0    0  501  502  0.00000000000E+00  0.00000000000E+00  0.91536855842E+02  0.91536855842E+02  0.00000000000E+00 0.  1.
          2   -1    0    0  503    0 -0.00000000000E+00 -0.00000000000E+00 -0.50263069121E+03  0.50263069121E+03  0.00000000000E+00 0.  1.
         21    1    1    2  503  504  0.41167716562E+02 -0.22716790559E+02 -0.96486975677E+02  0.10733391792E+03  0.00000000000E+00 0.  1.
         21    1    1    2  504  505 -0.86837451251E+02  0.13283201075E+02 -0.12180425369E+02  0.88687931156E+02  0.00000000000E+00 0.  1.
         21    1    1    2  505  502 -0.37997656698E+02 -0.23982330449E+02  0.29802220755E+02  0.53917960368E+02  0.00000000000E+00 0.  1.
          2    1    1    2  501    0  0.83667391386E+02  0.33415919933E+02 -0.33222865508E+03  0.34422773761E+03  0.00000000000E+00 0.  1.
<scales pt_clust_3="44.85861" pt_clust_4="14000.00000" pt_clust_5="44.93300" pt_clust_6="107.33635"></scales>
<clustering>
<clus scale="   44.933">  1  5  2 -1</clus>
<clus scale="   44.859">  2  3  1 -1</clus>
<clus scale="  107.336">  2  6  1 -1</clus>
<clus scale="   44.933">  1  3  2 -1</clus>
</clustering>
</event>
<event>
 6    0  0.1361744E+002  0.1474973E+03  0.7546771E-02  0.1203582E+00
         21   -1    0    0  505  502  0.00000000000E+00  0.00000000000E+00  0.40954893976E+03  0.40954893976E+03  0.00000000000E+00 0. -1.
          2   -1    0    0  504    0 -0.00000000000E+00 -0.00000000000E+00 -0.20888945071E+04  0.20888945071E+04  0.00000000000E+00 0. -1.
         21    1    1    2  503  501  0.56828843382E+02 -0.84875553153E+01  0.14139495971E+03  0.15262401733E+03  0.00000000000E+00 0.  1.
         21    1    1    2  504  502  0.34239791633E+02 -0.40874017131E+02 -0.82420679150E+03  0.82592970873E+03  0.00000000000E+00 0. -1.
         21    1    1    2  505  503  0.60962964395E+02  0.65786376885E+02  0.24917762222E+03  0.26482790228E+03  0.00000000000E+00 0. -1.
          2    1    1    2  501    0 -0.15203159941E+03 -0.16424804439E+02 -0.12457113577E+04  0.12550618185E+04  0.00000000000E+00 0. -1.
<scales pt_clust_3="54.15153" pt_clust_4="53.32025" pt_clust_5="54.15153" pt_clust_6="131.12724"></scales>
<clustering>
<clus scale="   53.320">  2  4  1 -1</clus>
<clus scale="   54.152">  3  5 -1 -1</clus>
<clus scale="  131.127">  2  6  1 -1</clus>
<clus scale="  147.497">  1  3  2 -1</clus>
</clustering>
</event>
<event>
 6    0  0.1361744E+002  0.1221640E+03  0.7546771E-02  0.1239569E+00
         21   -1    0    0  504  502  0.00000000000E+00  0.00000000000E+00  0.39767122778E+02  0.39767122778E+02  0.00000000000E+00 0. -1.
          1   -1    0    0  505    0 -0.00000000000E+00 -0.00000000000E+00 -0.13060589705E+04  0.13060589705E+04  0.00000000000E+00 0.  1.
         21    1    1    2  503  501 -0.15911896457E+02 -0.11300233372E+03 -0.14404718484E+03  0.18377243356E+03  0.00000000000E+00 0. -1.
         21    1    1    2  504  503 -0.32340774802E+02 -0.12765374224E+02 -0.15262056475E+02  0.37971184624E+02  0.00000000000E+00 0. -1.
         21    1    1    2  505  502  0.74027499346E+02  0.92699203381E+01 -0.36227241380E+03  0.36987471377E+03  0.00000000000E+00 0. -1.
          1    1    1    2  501    0 -0.25774828087E+02  0.11649778761E+03 -0.74471019260E+03  0.75420776133E+03  0.00000000000E+00 0.  1.
<scales pt_clust_3="14000.00000" pt_clust_4="34.76896" pt_clust_5="70.10984" pt_clust_6="122.16399"></scales>
<clustering>
<clus scale="   34.769">  1  4  2 -1</clus>
<clus scale="   70.110">  2  5  1 -1</clus>
<clus scale="  122.164">  2  6  1 -1</clus>
<clus scale="   34.769">  1  3  2 -1</clus>
</clustering>
</event>
<event>
 6    0  0.1361744E+002  0.1102590E+03  0.7546771E-02  0.1260091E+00
          2   -1    0    0  504    0 -0.00000000000E+00  0.00000000000E+00  0.91913011845E+03  0.91913011845E+03  0.00000000000E+00 0.  1.
         21   -1    0    0  505  502  0.00000000000E+00 -0.00000000000E+00 -0.13699718020E+03  0.13699718020E+03  0.00000000000E+00 0.  1.
         21    1    1    2  503  501  0.38198312276E+02 -0.11389758190E+03 -0.52161781371E+02  0.13096801770E+03  0.00000000000E+00 0.  1.
         21    1    1    2  504  502 -0.18054239131E+02  0.66312337434E+02  0.18560683205E+03  0.19792215074E+03  0.00000000000E+00 0. -1.
         21    1    1    2  505  503 -0.31313677411E+02 -0.69575868194E+01 -0.31391962782E+02  0.44882176135E+02  0.00000000000E+00 0. -1.
          2    1    1    2  501    0  0.11169604266E+02  0.54542831288E+02  0.68007985035E+03  0.68235495408E+03  0.00000000000E+00 0.  1.
<scales pt_clust_3="14000.00000" pt_clust_4="110.25899" pt_clust_5="32.07732" pt_clust_6="55.52508"></scales>
<clustering>
<clus scale="   32.077">  2  5  1 -1</clus>
<clus scale="   55.525">  1  6  2 -1</clus>
<clus scale="  110.259">  1  4  2 -1</clus>
<clus scale="   32.077">  2  3  1 -1</clus>
</clustering>
</event>
<event>
 6    0  0.1361744E+002  0.1672995E+03  0.7546771E-02  0.1180694E+00
          3   -1    0    0  505    0 -0.00000000000E+00  0.00000000000E+00  0.90645943143E+02  0.90645943143E+02  0.00000000000E+00 0. -1.
         21   -1    0    0  501  502  0.00000000000E+00 -0.00000000000E+00 -0.58677528552E+03  0.58677528552E+03  0.00000000000E+00 0. -1.
         21    1    1    2  503  504 -0.67606847742E+02  0.52218282133E+02 -0.22079112719E+03  0.23674069506E+03  0.00000000000E+00 0. -1.
         21    1    1    2  504  502 -0.30020503552E+02  0.83998356299E+02 -0.20866642079E+03  0.22693309512E+03  0.00000000000E+00 0. -1.
         21    1    1    2  505  503  0.58712681221E+02 -0.24587833598E+01 -0.42111487851E+02  0.72295241619E+02  0.00000000000E+00 0. -1.
          3    1    1    2  501    0  0.38914670073E+02 -0.13375785507E+03 -0.24560306544E+02  0.14145219687E+03  0.00000000000E+00 0. -1.
<scales pt_clust_3="48.67030" pt_clust_4="48.67030" pt_clust_5="58.76414" pt_clust_6="159.73607"></scales>
<clustering>
<clus scale="   48.670">  3  4 -1 -1</clus>
<clus scale="   58.764">  1  5  2 -1</clus>
<clus scale="  159.736">  1  6  2 -1</clus>
<clus scale="  167.300">  2  3  1 -1</clus>
</clustering>
</event>
<event>
 6    0  0.1361744E+002  0.9705682E+02  0.7546771E-02  0.1286610E+00
         -4   -1    0    0    0  501 -0.00000000000E+00  0.00000000000E+00  0.76250269580E+03  0.76250269580E+03  0.00000000000E+00 0.  1.
         21   -1    0    0  504  502  0.00000000000E+00 -0.00000000000E+00 -0.51745498432E+02  0.51745498432E+02  0.00000000000E+00 0.  1.
         21    1    1    2  503  502  0.50033189358E+01 -0.41255683109E+02  0.83600289755E+01  0.42390502163E+02  0.00000000000E+00 0.  1.
         21    1    1    2  504  501 -0.35727879321E+02 -0.22084390714E+02  0.12363979349E+03  0.13057947852E+03  0.00000000000E+00 0.  1.
         21    1    1    2  505  503  0.26875798318E+02  0.13313295061E+03  0.13307003206E+03  0.19014290548E+03  0.00000000000E+00 0.  1.
         -4    1    1    2    0  505  0.38487620674E+01 -0.69792876790E+02  0.44568734284E+03  0.45113530807E+03  0.00000000000E+00 0.  1.
<scales pt_clust_3="41.55797" pt_clust_4="43.90645" pt_clust_5="97.05682" pt_clust_6="14000.00000"></scales>
<clustering>
<clus scale="   41.558">  2  3  1 -1</clus>
<clus scale="   43.906">  1  4  2 -1</clus>
<clus scale="   97.057">  2  5  1 -1</clus>
<clus scale="   41.558">  2  3  1 -1</clus>
</clustering>
</event>
<event>
 6    0  0.1361744E+002  0.2509317E+03  0.7546771E-02  0.1112717E+00
          2   -1    0    0  505    0 -0.00000000000E+00  0.00000000000E+00  0.16896532170E+04  0.16896532170E+04  0.00000000000E+00 0.  1.
         21   -1    0    0  501  502  0.00000000000E+00 -0.00000000000E+00 -0.76095651839E+02  0.76095651839E+02  0.00000000000E+00 0.  1.
         21    1    1    2  503  504  0.40818530356E+02  0.91482263032E+02  0.13266537698E+03  0.16623856087E+03  0.00000000000E+00 0.  1.
         21    1    1    2  504  502  0.54401281290E+02  0.12507881255E+03  0.58447782615E+02  0.14839256062E+03  0.00000000000E+00 0.  1.
         21    1    1    2  505  503  0.33900731213E+02 -0.92099960631E+01  0.32079131741E+03  0.32270908405E+03  0.00000000000E+00 0. -1.
          2    1    1    2  501    0 -0.12912054286E+03 -0.20735107952E+03  0.11016530882E+04  0.11284086633E+04  0.00000000000E+00 0.  1.
<scales pt_clust_3="69.23316" pt_clust_4="69.23316" pt_clust_5="35.12953" pt_clust_6="237.62099"></scales>
<clustering>
<clus scale="   35.130">  1  5  2 -1</clus>
<clus scale="   69.233">  3  4 -1 -1</clus>
<clus scale="  237.621">  1  6  2 -1</clus>
<clus scale="  250.932">  2  3  1 -1</clus>
</clustering>
</event>
<event>
 6    0  0.1361744E+002  0.1034020E+03  0.7546771E-02  0.1273300E+00
         21   -1    0    0  505  502  0.00000000000E+00  0.00000000000E+00  0.78129495134E+02  0.78129495134E+02  0.00000000000E+00 0.  1.
          2   -1    0    0  503    0 -0.00000000000E+00 -0.00000000000E+00 -0.26637391404E+04  0.26637391404E+04  0.00000000000E+00 0. -1.
         21    1    1    2  503  504  0.64929441484E+02  0.54495147956E+01 -0.62236362121E+03  0.62576513692E+03  0.00000000000E+00 0. -1.
         21    1    1    2  504  502  0.30292758117E+02  0.93923944624E+02  0.23695455359E+02  0.10149302032E+03  0.00000000000E+00 0.  1.
         21    1    1    2  505  501  0.33751267416E+02 -0.13973998369E+02 -0.20097607878E+02  0.41693339096E+02  0.00000000000E+00 0.  1.
          2    1    1    2  501    0 -0.12897346702E+03 -0.85399461051E+02 -0.19668438715E+04  0.19729171392E+04  0.00000000000E+00 0. -1.
<scales pt_clust_3="65.97911" pt_clust_4="14000.00000" pt_clust_5="36.52972" pt_clust_6="103.40199"></scales>
<clustering>
<clus scale="   36.530">  1  5  2 -1</clus>
<clus scale="   65.979">  2  3  1 -1</clus>
<clus scale="  103.402">  2  6  1 -1</clus>
<clus scale="   36.530">  1  3  2 -1</clus>
</clustering>
</event>
<event>
 6    0  0.1361744E+002  0.1461406E+03  0.7546771E-02  0.1205297E+00
         -2   -1    0    0    0  501 -0.00000000000E+00  0.00000000000E+00  0.41070287358E+03  0.41070287358E+03  0.00000000000E+00 0.  1.
         21   -1    0    0  503  502  0.00000000000E+00 -0.00000000000E+00 -0.60420793492E+03  0.60420793492E+03  0.00000000000E+00 0. -1.
         21    1    1    2  503  505 -0.11816099817E+03  0.13505375016E+02 -0.44978317379E+03  0.46524114185E+03  0.00000000000E+00 0. -1.
         21    1    1    2  504  502 -0.22223859237E+02  0.10037115513E+03  0.19880692894E+03  0.22381345736E+03  0.00000000000E+00 0.  1.
         21    1    1    2  505  501  0.11906379500E+03 -0.14604854223E+03 -0.63526783672E+02  0.19885174430E+03  0.00000000000E+00 0. -1.
         -2    1    1    2    0  504  0.21321062408E+02  0.32172012080E+02  0.12099796719E+03  0.12700446499E+03  0.00000000000E+00 0.  1.
<scales pt_clust_3="118.93030" pt_clust_4="34.82078" pt_clust_5="134.63854" pt_clust_6="34.82078"></scales>
<clustering>
<clus scale="   34.821">  4  6 -1 -1</clus>
<clus scale="  118.930">  2  3  1 -1</clus>
<clus scale="  134.639">  2  5  1 -1</clus>
<clus scale="  118.930">  2  3  1 -1</clus>
</clustering>
</event>
<event>
 6    0  0.1361744E+002  0.1268787E+03  0.7546771E-02  0.1232162E+00
         21   -1    0    0  504  502  0.00000000000E+00  0.00000000000E+00  0.63618016758E+03  0.63618016758E+03  0.00000000000E+00 0. -1.
          2   -1    0    0  505    0 -0.00000000000E+00 -0.00000000000E+00 -0.13318810753E+03  0.13318810753E+03  0.00000000000E+00 0.  1.
         21    1    1    2  503  501 -0.27253084675E+02  0.26230417360E+02 -0.20386056281E+02  0.42969253075E+02  0.00000000000E+00 0.  1.
         21    1    1    2  504  503 -0.17385245802E+02  0.45208369115E+02  0.15282772608E+03  0.16031954737E+03  0.00000000000E+00 0.  1.
         21    1    1    2  505  502  0.13137351910E+03 -0.63350871872E+02  0.43429795120E+03  0.45813430880E+03  0.00000000000E+00 0. -1.
          2    1    1    2  501    0 -0.86735188625E+02 -0.80879146033E+01 -0.63747560941E+02  0.10794516587E+03  0.00000000000E+00 0.  1.
<scales pt_clust_3="32.10812" pt_clust_4="48.43597" pt_clust_5="117.14943" pt_clust_6="32.10812"></scales>
<clustering>
<clus scale="   32.108">  3  6 -1 -1</clus>
<clus scale="   48.436">  1  4  2 -1</clus>
<clus scale="  117.149">  1  5  2 -1</clus>
<clus scale="   48.436">  1  3  2 -1</clus>
</clustering>
</event>
<event>
 6    0  0.1361744E+002  0.2758356E+03  0.7546771E-02  0.1097985E+00
          2   -1    0    0  503    0 -0.00000000000E+00  0.00000000000E+00  0.21207174506E+04  0.21207174506E+04  0.00000000000E+00 0. -1.
         21   -1    0    0  505  502  0.00000000000E+00 -0.00000000000E+00 -0.32422408093E+03  0.32422408093E+03  0.00000000000E+00 0. -1.
         21    1    1    2  503  504 -0.15380270785E+03  0.69602111626E+02  0.29217299175E+03  0.33743856329E+03  0.00000000000E+00 0.  1.
         21    1    1    2  504  502  0.62747709673E+02  0.36523430720E+03 -0.52831253030E+02  0.37433209256E+03  0.00000000000E+00 0. -1.
         21    1    1    2  505  501  0.15594300635E+03 -0.18550737053E+03  0.11510655786E+03  0.26829223882E+03  0.00000000000E+00 0.  1.
          2    1    1    2  501    0 -0.64888008176E+02 -0.24932904829E+03  0.14420450731E+04  0.14648786369E+04  0.00000000000E+00 0. -1.
<scales pt_clust_3="168.81862" pt_clust_4="275.83564" pt_clust_5="226.31662" pt_clust_6="14000.00000"></scales>
<clustering>
<clus scale="  168.819">  1  3  2 -1</clus>
<clus scale="  226.317">  2  5  1 -1</clus>
<clus scale="  275.836">  2  4  1 -1</clus>
<clus scale="  226.317">  2  3  1 -1</clus>
</clustering>
</event>
<event>
 6    0  0.1361744E+002  0.1399916E+03  0.7546771E-02  0.1213340E+00
          2   -1    0    0  504    0 -0.00000000000E+00  0.00000000000E+00  0.49708338481E+03  0.49708338481E+03  0.00000000000E+00 0.  1.
         21   -1    0    0  501  502  0.00000000000E+00 -0.00000000000E+00 -0.48403358836E+03  0.48403358836E+03  0.00000000000E+00 0. -1.
         21    1    1    2  503  502 -0.32619567268E+02 -0.45174848012E+02 -0.11714930246E+03  0.12972571884E+03  0.00000000000E+00 0. -1.
         21    1    1    2  504  505  0.48374973057E+02 -0.57674316281E+02  0.63167342482E+02  0.98267888616E+02  0.00000000000E+00 0.  1.
         21    1    1    2  505  503  0.14054680275E+02  0.18495861905E+03 -0.31264351919E+03  0.36352880888E+03  0.00000000000E+00 0. -1.
          2    1    1    2  501    0 -0.29810086064E+02 -0.82109454753E+02  0.37967527562E+03  0.38959455683E+03  0.00000000000E+00 0.  1.
<scales pt_clust_3="55.72076" pt_clust_4="75.98574" pt_clust_5="14000.00000" pt_clust_6="139.99158"></scales>
<clustering>
<clus scale="   55.721">  2  3  1 -1</clus>
<clus scale="   75.986">  1  4  2 -1</clus>
<clus scale="  139.992">  1  6  2 -1</clus>
<clus scale="   55.721">  2  3  1 -1</clus>
</clustering>
</event>
<event>
 6    0  0.1361744E+002  0.9681779E+02  0.7546771E-02  0.1287134E+00
         21   -1    0    0  501  502  0.00000000000E+00  0.00000000000E+00  0.24512760435E+03  0.24512760435E+03  0.00000000000E+00 0. -1.
          2   -1    0    0  504    0 -0.00000000000E+00 -0.00000000000E+00 -0.30224869503E+03  0.30224869503E+03  0.00000000000E+00 0. -1.
         21    1    1    2  503  502  0.48251498126E+01 -0.41734345524E+02  0.90654074438E+02  0.99915959082E+02  0.00000000000E+00 0. -1.
         21    1    1    2  504  505 -0.36065251517E+02 -0.39598559426E+01 -0.31941165576E+02  0.48338606563E+02  0.00000000000E+00 0.  1.
         21    1    1    2  505  503  0.84374268632E+02  0.84399295155E+02  0.11098297949E+03  0.16297079483E+03  0.00000000000E+00 0. -1.
          2    1    1    2  501    0 -0.53134166928E+02 -0.38705093689E+02 -0.22681697903E+03  0.23615093891E+03  0.00000000000E+00 0. -1.
<scales pt_clust_3="42.01356" pt_clust_4="36.28199" pt_clust_5="14000.00000" pt_clust_6="96.81779"></scales>
<clustering>
<clus scale="   36.282">  2  4  1 -1</clus>
<clus scale="   42.014">  1  3  2 -1</clus>
<clus scale="   96.818">  2  6  1 -1</clus>
<clus scale="   42.014">  1  3  2 -1</clus>
</clustering>
</event>
<event>
 6    0  0.1361744E+002  0.7119266E+02  0.7546771E-02  0.1356084E+00
          2   -1    0    0  504    0 -0.00000000000E+00  0.00000000000E+00  0.27839844093E+04  0.27839844093E+04  0.00000000000E+00 0.  1.
         21   -1    0    0  501  502  0.00000000000E+00 -0.00000000000E+00 -0.14341927866E+02  0.14341927866E+02  0.00000000000E+00 0. -1.
         21    1    1    2  503  505  0.17182880721E+02 -0.71707345248E+02  0.26670713954E+03  0.27671265427E+03  0.00000000000E+00 0. -1.
         21    1    1    2  504  503 -0.44279412123E+02 -0.42294647487E+02  0.15173967335E+03  0.16362894613E+03  0.00000000000E+00 0. -1.
         21    1    1    2  505  502 -0.10486552348E+02  0.52070934627E+02  0.25188686613E+03  0.25742638431E+03  0.00000000000E+00 0.  1.
          2    1    1    2  501    0  0.37583083751E+02  0.61931058108E+02  0.20993088024E+04  0.21005583524E+04  0.00000000000E+00 0.  1.
<scales pt_clust_3="50.79678" pt_clust_4="14000.00000" pt_clust_5="53.11638" pt_clust_6="71.19266"></scales>
<clustering>
<clus scale="   53.116">  2  5  1 -1</clus>
<clus scale="   50.797">  2  3  1 -1</clus>
<clus scale="   71.193">  1  6  2 -1</clus>
<clus scale="   53.116">  2  3  1 -1</clus>
</clustering>
</event>
<event>
 6    0  0.1361744E+002  0.9087094E+02  0.7546771E-02  0.1300756E+00
          1   -1    0    0  504    0 -0.00000000000E+00  0.00000000000E+00  0.21396026483E+04  0.21396026483E+04  0.00000000000E+00 0.  1.
         21   -1    0    0  505  502  0.00000000000E+00 -0.00000000000E+00 -0.81447183731E+02  0.81447183731E+02  0.00000000000E+00 0.  1.
         21    1    1    2  503  501 -0.58384310253E+02 -0.12144439479E+02  0.37736005839E+03  0.38204296717E+03  0.00000000000E+00 0.  1.
         21    1    1    2  504  502 -0.29117690511E+02  0.36478518246E+02  0.84156741726E+02  0.96233462849E+02  0.00000000000E+00 0. -1.
         21    1    1    2  505  503  0.12591706852E+03 -0.64715545630E+02 -0.35459555329E+01  0.14161844439E+03  0.00000000000E+00 0.  1.
          1    1    1    2  501    0 -0.38415067752E+02  0.40381466862E+02  0.16001846200E+04  0.16011549577E+04  0.00000000000E+00 0.  1.
<scales pt_clust_3="14000.00000" pt_clust_4="46.67464" pt_clust_5="90.87094" pt_clust_6="56.03408"></scales>
<clustering>
<clus scale="   46.675">  2  4  1 -1</clus>
<clus scale="   56.034">  1  6  2 -1</clus>
<clus scale="   90.871">  2  5  1 -1</clus>
<clus scale="   46.675">  2  3  1 -1</clus>
</clustering>
</event>
<event>
 6    0  0.1361744E+002  0.2164618E+03  0.7546771E-02  0.1136549E+00
          1   -1    0    0  504    0 -0.00000000000E+00  0.00000000000E+00  0.12207649389E+04  0.12207649389E+04  0.00000000000E+00 0. -1.
         21   -1    0    0  503  502  0.00000000000E+00 -0.00000000000E+00 -0.99396927242E+02  0.99396927242E+02  0.00000000000E+00 0. -1.
         21    1    1    2  503  505 -0.17201634652E+02  0.37310314938E+02 -0.30305279197E+02  0.51052578610E+02  0.00000000000E+00 0. -1.
         21    1    1    2  504  502 -0.40280423849E+02  0.16572717865E+03  0.10854863994E+03  0.20216532225E+03  0.00000000000E+00 0. -1.
         21    1    1    2  505  501  0.11265152276E+02 -0.16156112110E+03  0.73710221771E+03  0.75468442336E+03  0.00000000000E+00 0. -1.
          1    1    1    2  501    0  0.46216906225E+02 -0.41476372487E+02  0.30602243322E+03  0.31225954194E+03  0.00000000000E+00 0. -1.
<scales pt_clust_3="41.08474" pt_clust_4="202.78989" pt_clust_5="46.96041" pt_clust_6="46.96041"></scales>
<clustering>
<clus scale="   41.085">  2  3  1 -1</clus>
<clus scale="   46.960">  5  6 -1 -1</clus>
<clus scale="  202.790">  2  4  1 -1</clus>
<clus scale="   41.085">  2  3  1 -1</clus>
</clustering>
</event>
<event>
 6    0  0.1361744E+002  0.1044901E+03  0.7546771E-02  0.1271128E+00
         21   -1    0    0  505  502  0.00000000000E+00  0.00000000000E+00  0.17782851680E+02  0.17782851680E+02  0.00000000000E+00 0.  1.
          2   -1    0    0  503    0 -0.00000000000E+00 -0.00000000000E+00 -0.32212831882E+04  0.32212831882E+04  0.00000000000E+00 0.  1.
         21    1    1    2  503  504 -0.11744515496E+03  0.19256679651E+02 -0.26565113284E+03  0.29109226805E+03  0.00000000000E+00 0.  1.
         21    1    1    2  504  502 -0.15851132284E+02  0.30112858458E+02 -0.13906823360E+03  0.14317128286E+03  0.00000000000E+00 0.  1.
         21    1    1    2  505  501  0.30352999820E+02 -0.40974196309E+02 -0.33510591161E+03  0.33896336285E+03  0.00000000000E+00 0.  1.
          2    1    1    2  501    0  0.10294328743E+03 -0.83953418004E+01 -0.24636750585E+04  0.24658391262E+04  0.00000000000E+00 0.  1.
<scales pt_clust_3="104.49009" pt_clust_4="34.03003" pt_clust_5="46.87291" pt_clust_6="14000.00000"></scales>
<clustering>
<clus scale="   34.030">  1  4  2 -1</clus>
<clus scale="   46.873">  1  5  2 -1</clus>
<clus scale="  104.490">  1  3  2 -1</clus>
<clus scale="   34.030">  1  3  2 -1</clus>
</clustering>
</event>
<event>
 6    0  0.1361744E+002  0.1363108E+03  0.7546771E-02  0.1218381E+00
          1   -1    0    0  503    0 -0.00000000000E+00  0.00000000000E+00  0.18549922114E+04  0.18549922114E+04  0.00000000000E+00 0.  1.
         21   -1    0    0  504  502  0.00000000000E+00 -0.00000000000E+00 -0.24821371289E+03  0.24821371289E+03  0.00000000000E+00 0. -1.
         21    1    1    2  503  502  0.70749462802E+02  0.10885531944E+03 -0.20496995454E+03  0.24262656351E+03  0.00000000000E+00 0. -1.
         21    1    1    2  504  505 -0.32563212567E+02  0.16183535782E+02 -0.67417623532E+01  0.36982712214E+02  0.00000000000E+00 0.  1.
         21    1    1    2  505  501 -0.89760171067E+01 -0.69653047688E+02  0.11644558966E+04  0.11665717513E+04  0.00000000000E+00 0.  1.
          1    1    1    2  501    0 -0.29210233128E+02 -0.55385807538E+02  0.65403431885E+03  0.65702489727E+03  0.00000000000E+00 0.  1.
<scales pt_clust_3="130.67316" pt_clust_4="36.36303" pt_clust_5="36.64979" pt_clust_6="36.64979"></scales>
<clustering>
<clus scale="   36.363">  2  4  1 -1</clus>
<clus scale="   36.650">  5  6 -1 -1</clus>
<clus scale="  130.673">  2  3  1 -1</clus>
<clus scale="   36.363">  2  3  1 -1</clus>
</clustering>
</event>
<event>
 6    0  0.1361744E+002  0.8871233E+02  0.7546771E-02  0.1306000E+00
          1   -1    0    0  505    0 -0.00000000000E+00  0.00000000000E+00  0.15757474656E+04  0.15757474656E+04  0.00000000000E+00 0. -1.
         21   -1    0    0  503  502  0.00000000000E+00 -0.00000000000E+00 -0.11101518460E+04  0.11101518460E+04  0.00000000000E+00 0.  1.
         21    1    1    2  503  501 -0.67326838024E+02  0.46926024977E+02 -0.53742364525E+03  0.54365350124E+03  0.00000000000E+00 0.  1.
         21    1    1    2  504  502  0.43324143500E+02 -0.10050165233E+03 -0.55844562651E+03  0.56906860860E+03  0.00000000000E+00 0.  1.
         21    1    1    2  505  504 -0.52721630113E+02  0.28602690852E+02  0.18782774229E+03  0.19717237377E+03  0.00000000000E+00 0. -1.
          1    1    1    2  501    0  0.76724324637E+02  0.24972936497E+02  0.13736371490E+04  0.13760048280E+04  0.00000000000E+00 0. -1.
<scales pt_clust_3="88.71233" pt_clust_4="14000.00000" pt_clust_5="59.98070" pt_clust_6="58.68014"></scales>
<clustering>
<clus scale="   59.981">  1  5  2 -1</clus>
<clus scale="   58.680">  1  6  2 -1</clus>
<clus scale="   88.712">  2  3  1 -1</clus>
<clus scale="   88.712">  2  3  1 -1</clus>
</clustering>
</event>
<event>
 6    0  0.1361744E+002  0.9540088E+02  0.7546771E-02  0.1290276E+00
         21   -1    0    0  504  502  0.00000000000E+00  0.00000000000E+00  0.23788293254E+03  0.23788293254E+03  0.00000000000E+00 0.  1.
          2   -1    0    0  505    0 -0.00000000000E+00 -0.00000000000E+00 -0.25709967260E+03  0.25709967260E+03  0.00000000000E+00 0. -1.
         21    1    1    2  503  502 -0.37090729438E+02 -0.40384900592E+02  0.63353292416E+02  0.83787242860E+02  0.00000000000E+00 0.  1.
         21    1    1    2  504  501  0.75885619567E+02 -0.16847072605E+02  0.97079449114E+02  0.12436587375E+03  0.00000000000E+00 0.  1.
         21    1    1    2  505  503 -0.76033508881E+02 -0.41154976939E+02 -0.97593501051E+01  0.87006157909E+02  0.00000000000E+00 0.  1.
          2    1    1    2  501    0  0.37238618752E+02  0.98386950136E+02 -0.16989013149E+03  0.19982333062E+03  0.00000000000E+00 0. -1.
<scales pt_clust_3="54.83304" pt_clust_4="67.31508" pt_clust_5="14000.00000" pt_clust_6="95.40088"></scales>
<clustering>
<clus scale="   54.833">  1  3  2 -1</clus>
<clus scale="   67.315">  1  4  2 -1</clus>
<clus scale="   95.401">  2  6  1 -1</clus>
<clus scale="   54.833">  1  3  2 -1</clus>
</clustering>
</event>
<event>
 6    0  0.1361744E+002  0.1458170E+03  0.7546771E-02  0.1205709E+00
         21   -1    0    0  503  502  0.00000000000E+00  0.00000000000E+00  0.45096850613E+02  0.45096850613E+02  0.00000000000E+00 0. -1.
          2   -1    0    0  505    0 -0.00000000000E+00 -0.00000000000E+00 -0.15495400649E+04  0.15495400649E+04  0.00000000000E+00 0.  1.
         21    1    1    2  503  501  0.33910347737E+02 -0.10382485753E+03 -0.44130841381E+03  0.45462361226E+03  0.00000000000E+00 0.  1.
         21    1    1    2  504  502 -0.31837847859E+02  0.45419770654E+02 -0.23861827614E+02  0.60382041533E+02  0.00000000000E+00 0. -1.
         21    1    1    2  505  504 -0.11790995786E+01  0.95215164698E+02 -0.94547395413E+02  0.13418840428E+03  0.00000000000E+00 0. -1.
          2    1    1    2  501    0 -0.89340029944E+00 -0.36810077819E+02 -0.94472557740E+03  0.94544285739E+03  0.00000000000E+00 0.  1.
<scales pt_clust_3="135.25523" pt_clust_4="42.38982" pt_clust_5="42.38982" pt_clust_6="36.82092"></scales>
<clustering>
<clus scale="   36.821">  2  6  1 -1</clus>
<clus scale="   42.390">  4  5 -1 -1</clus>
<clus scale="  135.255">  2  3  1 -1</clus>
<clus scale="  145.817">  1  3  2 -1</clus>
</clustering>
</event>
<event>
 6    0  0.1361744E+002  0.1609385E+03  0.7546771E-02  0.1187641E+00
          2   -1    0    0  502    0 -0.00000000000E+00  0.00000000000E+00  0.17465914636E+04  0.17465914636E+04  0.00000000000E+00 0.  1.
         21   -1    0    0  503  502  0.00000000000E+00 -0.00000000000E+00 -0.10077491371E+04  0.10077491371E+04  0.00000000000E+00 0. -1.
         21    1    1    2  503  504 -0.84671154196E+02  0.73699561165E+01 -0.64529504661E+03  0.65086804944E+03  0.00000000000E+00 0. -1.
         21    1    1    2  504  505 -0.69141027775E+02 -0.18703931819E+02 -0.33745747531E+03  0.34497516785E+03  0.00000000000E+00 0. -1.
         21    1    1    2  505  501  0.81486202495E+02  0.16328080622E+03  0.71425327720E+03  0.73719628788E+03  0.00000000000E+00 0.  1.
          2    1    1    2  501    0  0.72325979476E+02 -0.15194683052E+03  0.10073415712E+04  0.10213010955E+04  0.00000000000E+00 0.  1.
<scales pt_clust_3="160.93848" pt_clust_4="42.21411" pt_clust_5="156.87298" pt_clust_6="14000.00000"></scales>
<clustering>
<clus scale="   42.214">  3  4 -1 -1</clus>
<clus scale="  160.938">  2  3  1 -1</clus>
<clus scale="  156.873">  2  5  1 -1</clus>
<clus scale="  160.938">  2  3  1 -1</clus>
</clustering>
</event>
<event>
 6    0  0.1361744E+002  0.1176154E+03  0.7546771E-02  0.1247084E+00
          1   -1    0    0  504    0 -0.00000000000E+00  0.00000000000E+00  0.10781297610E+04  0.10781297610E+04  0.00000000000E+00 0.  1.
         21   -1    0    0  503  502  0.00000000000E+00 -0.00000000000E+00 -0.32189241935E+03  0.32189241935E+03  0.00000000000E+00 0.  1.
         21    1    1    2  503  501 -0.63029214630E+02  0.15089639346E+02 -0.46694385983E+02  0.79879564313E+02  0.00000000000E+00 0.  1.
         21    1    1    2  504  505  0.66897223548E+02 -0.56827457112E+02  0.23524329188E+03  0.25108565227E+03  0.00000000000E+00 0.  1.
         21    1    1    2  505  502 -0.48955041383E+02 -0.62078325570E+02 -0.24040740933E+03  0.25307318515E+03  0.00000000000E+00 0.  1.
          1    1    1    2  501    0  0.45087032465E+02  0.10381614334E+03  0.80809584506E+03  0.81598377859E+03  0.00000000000E+00 0.  1.
<scales pt_clust_3="64.81033" pt_clust_4="86.00990" pt_clust_5="117.61542" pt_clust_6="14000.00000"></scales>
<clustering>
<clus scale="   64.810">  2  3  1 -1</clus>
<clus scale="   86.010">  1  4  2 -1</clus>
<clus scale="  117.615">  2  5  1 -1</clus>
<clus scale="   64.810">  2  3  1 -1</clus>
</clustering>
</event>
<event>
 6    0  0.1361744E+002  0.9070405E+02  0.7546771E-02  0.1301156E+00
         21   -1    0    0  504  502  0.00000000000E+00  0.00000000000E+00  0.13329015254E+03  0.13329015254E+03  0.00000000000E+00 0.  1.
          2   -1    0    0  505    0 -0.00000000000E+00 -0.00000000000E+00 -0.70112846105E+03  0.70112846105E+03  0.00000000000E+00 0. -1.
         21    1    1    2  503  501 -0.26672002791E+02  0.65331749109E+02  0.61954867601E+02  0.93904413070E+02  0.00000000000E+00 0.  1.
         21    1    1    2  504  503 -0.48865376481E+02 -0.98997117642E+01  0.35867869533E+02  0.61419324130E+02  0.00000000000E+00 0. -1.
         21    1    1    2  505  502  0.27275724663E+02  0.24237676845E+02 -0.11620124212E+03  0.12179556152E+03  0.00000000000E+00 0.  1.
          2    1    1    2  501    0  0.48261654610E+02 -0.79669714190E+02 -0.54945980353E+03  0.55729931487E+03  0.00000000000E+00 0. -1.
<scales pt_clust_3="90.70405" pt_clust_4="49.16743" pt_clust_5="36.48877" pt_clust_6="14000.00000"></scales>
<clustering>
<clus scale="   36.489">  2  5  1 -1</clus>
<clus scale="   49.167">  1  4  2 -1</clus>
<clus scale="   90.704">  1  3  2 -1</clus>
<clus scale="   49.167">  1  3  2 -1</clus>
</clustering>
</event>
<event>
 6    0  0.1361744E+002  0.1710827E+03  0.7546771E-02  0.1176723E+00
         21   -1    0    0  504  502  0.00000000000E+00  0.00000000000E+00  0.47894420426E+03  0.47894420426E+03  0.00000000000E+00 0.  1.
          2   -1    0    0  503    0 -0.00000000000E+00 -0.00000000000E+00 -0.26652163876E+03  0.26652163876E+03  0.00000000000E+00 0. -1.
         21    1    1    2  503  505  0.58611750288E+02 -0.10636334221E+03  0.15242500892E+03  0.19488940757E+03  0.00000000000E+00 0.  1.
         21    1    1    2  504  501 -0.59087179101E+02  0.10752817065E+03 -0.12124977323E+03  0.17249669482E+03  0.00000000000E+00 0. -1.
         21    1    1    2  505  502 -0.24450067920E+01 -0.53721627862E+02  0.26977625860E+03  0.27508402546E+03  0.00000000000E+00 0.  1.
          2    1    1    2  501    0  0.29204356051E+01  0.52556799421E+02 -0.88528928801E+02  0.10299571517E+03  0.00000000000E+00 0. -1.
<scales pt_clust_3="161.74745" pt_clust_4="36.51019" pt_clust_5="53.77724" pt_clust_6="36.51019"></scales>
<clustering>
<clus scale="   36.510">  4  6 -1 -1</clus>
<clus scale="   53.777">  1  5  2 -1</clus>
<clus scale="  161.747">  1  3  2 -1</clus>
<clus scale="   53.777">  1  3  2 -1</clus>
</clustering>
</event>
<event>
 6    0  0.1361744E+002  0.9099125E+02  0.7546771E-02  0.1300469E+00
         21   -1    0    0  504  502  0.00000000000E+00  0.00000000000E+00  0.53096928212E+02  0.53096928212E+02  0.00000000000E+00 0. -1.
          2   -1    0    0  503    0 -0.00000000000E+00 -0.00000000000E+00 -0.67835294980E+03  0.67835294980E+03  0.00000000000E+00 0. -1.
         21    1    1    2  503  505 -0.42115126879E+02  0.92590906382E+01 -0.15886902223E+03  0.16461707353E+03  0.00000000000E+00 0.  1.
         21    1    1    2  504  501 -0.64198047654E+02 -0.65077320841E+02 -0.31137038603E+02  0.96571021448E+02  0.00000000000E+00 0. -1.
         21    1    1    2  505  502 -0.14497909542E+02  0.34957987021E+02 -0.34613825205E+02  0.51287104938E+02  0.00000000000E+00 0. -1.
          2    1    1    2  501    0  0.12081108408E+03  0.20860243182E+02 -0.40063613555E+03  0.41897467810E+03  0.00000000000E+00 0. -1.
<scales pt_clust_3="44.55666" pt_clust_4="90.99125" pt_clust_5="37.84508" pt_clust_6="14000.00000"></scales>
<clustering>
<clus scale="   37.845">  1  5  2 -1</clus>
<clus scale="   44.557">  2  3  1 -1</clus>
<clus scale="   90.991">  1  4  2 -1</clus>
<clus scale="   37.845">  1  3  2 -1</clus>
</clustering>
</event>
<event>
 6    0  0.1361744E+002  0.3018744E+03  0.7546771E-02  0.1084307E+00
          2   -1    0    0  503    0 -0.00000000000E+00  0.00000000000E+00  0.41245897452E+04  0.41245897452E+04  0.00000000000E+00 0.  1.
         21   -1    0    0  505  502  0.00000000000E+00 -0.00000000000E+00 -0.52664480850E+02  0.52664480850E+02  0.00000000000E+00 0.  1.
         21    1    1    2  503  502  0.65909855892E+02 -0.25971237667E+03  0.36206072149E+03  0.45042490356E+03  0.00000000000E+00 0.  1.
         21    1    1    2  504  501 -0.72804454614E+02  0.15398410792E+03  0.19346834985E+04  0.19421667883E+04  0.00000000000E+00 0.  1.
         21    1    1    2  505  504 -0.24088252957E+02 -0.24485530267E+02  0.14572274466E+03  0.14971607607E+03  0.00000000000E+00 0.  1.
          2    1    1    2  501    0  0.30982851678E+02  0.13021379902E+03  0.16294582996E+04  0.16349464581E+04  0.00000000000E+00 0.  1.
<scales pt_clust_3="284.62823" pt_clust_4="88.84839" pt_clust_5="34.34800" pt_clust_6="88.84839"></scales>
<clustering>
<clus scale="   34.348">  2  5  1 -1</clus>
<clus scale="   88.848">  4  6 -1 -1</clus>
<clus scale="  284.628">  2  3  1 -1</clus>
<clus scale="   34.348">  2  3  1 -1</clus>
</clustering>
</event>
<event>
 6    0  0.1361744E+002  0.2102497E+03  0.7546771E-02  0.1141368E+00
         21   -1    0    0  505  502  0.00000000000E+00  0.00000000000E+00  0.25924877069E+03  0.25924877069E+03  0.00000000000E+00 0.  1.
          1   -1    0    0  504    0 -0.00000000000E+00 -0.00000000000E+00 -0.67773283055E+03  0.67773283055E+03  0.00000000000E+00 0. -1.
         21    1    1    2  503  502  0.25842782121E+02  0.68233377634E+02  0.24825444918E+02  0.77071044670E+02  0.00000000000E+00 0.  1.
         21    1    1    2  504  503  0.57526100665E+02  0.26386509420E+02 -0.54474821441E+02  0.83504528668E+02  0.00000000000E+00 0.  1.
         21    1    1    2  505  501 -0.11262775869E+03  0.13315459218E+03  0.12434353698E+03  0.21418793765E+03  0.00000000000E+00 0.  1.
          1    1    1    2  501    0  0.29258875907E+02 -0.22777447923E+03 -0.51317822031E+03  0.56221809025E+03  0.00000000000E+00 0. -1.
<scales pt_clust_3="74.92085" pt_clust_4="63.28902" pt_clust_5="210.24973" pt_clust_6="14000.00000"></scales>
<clustering>
<clus scale="   63.289">  2  4  1 -1</clus>
<clus scale="   74.921">  1  3  2 -1</clus>
<clus scale="  210.250">  1  5  2 -1</clus>
<clus scale="   74.921">  1  3  2 -1</clus>
</clustering>
</event>
<event>
 6    0  0.1361744E+002  0.1226073E+03  0.7546771E-02  0.1238857E+00
         21   -1    0    0  505  502  0.00000000000E+00  0.00000000000E+00  0.41825451263E+03  0.41825451263E+03  0.00000000000E+00 0.  1.
          1   -1    0    0  504    0 -0.00000000000E+00 -0.00000000000E+00 -0.40118737787E+03  0.40118737787E+03  0.00000000000E+00 0. -1.
         21    1    1    2  503  502  0.73351412736E+02  0.61831915459E+02  0.36496845473E+03  0.37736664991E+03  0.00000000000E+00 0.  1.
         21    1    1    2  504  503 -0.48903343751E+02 -0.14117689509E+01 -0.76668758977E+02  0.90948494900E+02  0.00000000000E+00 0. -1.
         21    1    1    2  505  501  0.18521946929E+02  0.24000943210E+02  0.25516023828E+02  0.39625437095E+02  0.00000000000E+00 0. -1.
          1    1    1    2  501    0 -0.42970015914E+02 -0.84421089718E+02 -0.29674858482E+03  0.31150130858E+03  0.00000000000E+00 0. -1.
<scales pt_clust_3="14000.00000" pt_clust_4="48.57010" pt_clust_5="30.31679" pt_clust_6="122.60725"></scales>
<clustering>
<clus scale="   30.317">  1  5  2 -1</clus>
<clus scale="   48.570">  2  4  1 -1</clus>
<clus scale="  122.607">  2  6  1 -1</clus>
<clus scale="   30.317">  1  3  2 -1</clus>
</clustering>
</event>
<event>
 6    0  0.1361744E+002  0.1095590E+03  0.7546771E-02  0.1261389E+00
          3   -1    0    0  503    0 -0.00000000000E+00  0.00000000000E+00  0.80473795382E+03  0.80473795382E+03  0.00000000000E+00 0.  1.
         21   -1    0    0  504  502  0.00000000000E+00 -0.00000000000E+00 -0.54333531369E+02  0.54333531369E+02  0.00000000000E+00 0. -1.
         21    1    1    2  503  505 -0.29103700017E+02 -0.18551254381E+02  0.99570627314E+02  0.10538256126E+03  0.00000000000E+00 0. -1.
         21    1    1    2  504  501  0.71278601736E+02 -0.53711040988E+02  0.13524564188E+02  0.90268648078E+02  0.00000000000E+00 0. -1.
         21    1    1    2  505  502  0.30030552486E+01 -0.34110192888E+02  0.30984188265E+02  0.46179470786E+02  0.00000000000E+00 0.  1.
          3    1    1    2  501    0 -0.45177956968E+02  0.10637248826E+03  0.60632504269E+03  0.61724080507E+03  0.00000000000E+00 0.  1.
<scales pt_clust_3="35.54617" pt_clust_4="14000.00000" pt_clust_5="34.24213" pt_clust_6="109.55905"></scales>
<clustering>
<clus scale="   34.242">  2  5  1 -1</clus>
<clus scale="   35.546">  1  3  2 -1</clus>
<clus scale="  109.559">  1  6  2 -1</clus>
<clus scale="   34.242">  2  3  1 -1</clus>
</clustering>
</event>
<event>
 6    0  0.1361744E+002  0.1316438E+03  0.7546771E-02  0.1225037E+00
         21   -1    0    0  505  502  0.00000000000E+00  0.00000000000E+00  0.84010017494E+02  0.84010017494E+02  0.00000000000E+00 0.  1.
          2   -1    0    0  503    0 -0.00000000000E+00 -0.00000000000E+00 -0.87330097032E+03  0.87330097032E+03  0.00000000000E+00 0.  1.
         21    1    1    2  503  502  0.80376363999E+02 -0.59251943761E+02  0.33868636856E+02  0.10544305236E+03  0.00000000000E+00 0.  1.
         21    1    1    2  504  501 -0.46983966137E+02  0.12356784126E+02 -0.30133899466E+03  0.30523003275E+03  0.00000000000E+00 0.  1.
         21    1    1    2  505  504 -0.34436588261E+01 -0.32099603852E+02 -0.20486047652E+02  0.38235082084E+02  0.00000000000E+00 0. -1.
          2    1    1    2  501    0 -0.29948739036E+02  0.78994763487E+02 -0.50133454737E+03  0.50840282062E+03  0.00000000000E+00 0.  1.
<scales pt_clust_3="117.81434" pt_clust_4="44.84666" pt_clust_5="32.28379" pt_clust_6="44.84666"></scales>
<clustering>
<clus scale="   32.284">  1  5  2 -1</clus>
<clus scale="   44.847">  4  6 -1 -1</clus>
<clus scale="  117.814">  1  3  2 -1</clus>
<clus scale="   32.284">  1  3  2 -1</clus>
</clustering>
</event>
<event>
 6    0  0.1361744E+002  0.7658426E+02  0.7546771E-02  0.1339034E+00
         21   -1    0    0  504  502  0.00000000000E+00  0.00000000000E+00  0.57140310977E+02  0.57140310977E+02  0.00000000000E+00 0. -1.
          1   -1    0    0  505    0 -0.00000000000E+00 -0.00000000000E+00 -0.12074816863E+04  0.12074816863E+04  0.00000000000E+00 0.  1.
         21    1    1    2  503  502 -0.10451051831E+02  0.52153847136E+02 -0.40935906266E+02  0.67119272026E+02  0.00000000000E+00 0. -1.
         21    1    1    2  504  501  0.19853967609E+02 -0.10473578416E+03 -0.28334630151E+02  0.11030238338E+03  0.00000000000E+00 0. -1.
         21    1    1    2  505  503  0.31915178611E+02  0.46889655479E+02 -0.32003778122E+03  0.32502522952E+03  0.00000000000E+00 0.  1.
          1    1    1    2  501    0 -0.41318094389E+02  0.56922815481E+01 -0.76103305771E+03  0.76217511237E+03  0.00000000000E+00 0.  1.
<scales pt_clust_3="14000.00000" pt_clust_4="76.58426" pt_clust_5="51.04751" pt_clust_6="41.70836"></scales>
<clustering>
<clus scale="   41.708">  2  6  1 -1</clus>
<clus scale="   51.048">  2  5  1 -1</clus>
<clus scale="   76.584">  2  4  1 -1</clus>
<clus scale="   76.584">  1  3  2 -1</clus>
</clustering>
</event>
<event>
 6    0  0.1361744E+002  0.1639016E+03  0.7546771E-02  0.1184361E+00
         21   -1    0    0  504  502  0.00000000000E+00  0.00000000000E+00  0.17938541299E+04  0.17938541299E+04  0.00000000000E+00 0.  1.
          1   -1    0    0  505    0 -0.00000000000E+00 -0.00000000000E+00 -0.32887089445E+03  0.32887089445E+03  0.00000000000E+00 0.  1.
         21    1    1    2  503  502 -0.15976473124E+03 -0.18479062402E+01  0.52935654207E+03  0.55294351677E+03  0.00000000000E+00 0. -1.
         21    1    1    2  504  501  0.16565682707E+03 -0.12670965944E+02  0.11818644888E+04  0.11934849842E+04  0.00000000000E+00 0.  1.
         21    1    1    2  505  503 -0.21018555308E+02  0.69705887061E+02  0.40903356103E+02  0.83509130630E+02  0.00000000000E+00 0. -1.
          1    1    1    2  501    0  0.15126459482E+02 -0.55187014877E+02 -0.28714115156E+03  0.29278739267E+03  0.00000000000E+00 0.  1.
<scales pt_clust_3="163.90158" pt_clust_4="14000.00000" pt_clust_5="41.49194" pt_clust_6="57.22252"></scales>
<clustering>
<clus scale="   57.223">  2  6  1 -1</clus>
<clus scale="   41.492">  2  5  1 -1</clus>
<clus scale="  163.902">  2  3  1 -1</clus>
<clus scale="  163.902">  1  3  2 -1</clus>
</clustering>
</event>
<event>
 6    0  0.1361744E+002  0.1580457E+03  0.7546771E-02  0.1190921E+00
          1   -1    0    0  505    0 -0.00000000000E+00  0.00000000000E+00  0.11606716726E+03  0.11606716726E+03  0.00000000000E+00 0.  1.
         21   -1    0    0  504  502  0.00000000000E+00 -0.00000000000E+00 -0.12358523829E+04  0.12358523829E+04  0.00000000000E+00 0.  1.
         21    1    1    2  503  501  0.10151038268E+02  0.10276900362E+03 -0.60187026486E+03  0.61066547914E+03  0.00000000000E+00 0.  1.
         21    1    1    2  504  503  0.23406564639E+02  0.42849642100E+02 -0.56539354750E+03  0.56749786136E+03  0.00000000000E+00 0.  1.
         21    1    1    2  505  502  0.13148770253E+02 -0.30461271247E+02  0.36002493253E+02  0.48958745139E+02  0.00000000000E+00 0.  1.
          1    1    1    2  501    0 -0.46706373159E+02 -0.11515737447E+03  0.11476103507E+02  0.12479746448E+03  0.00000000000E+00 0.  1.
<scales pt_clust_3="39.31187" pt_clust_4="39.31187" pt_clust_5="33.17799" pt_clust_6="147.46282"></scales>
<clustering>
<clus scale="   33.178">  1  5  2 -1</clus>
<clus scale="   39.312">  3  4 -1 -1</clus>
<clus scale="  147.463">  1  6  2 -1</clus>
<clus scale="  158.046">  2  3  1 -1</clus>
</clustering>
</event>
<event>
 6    0  0.1361744E+002  0.1193406E+03  0.7546771E-02  0.1244189E+00
          2   -1    0    0  503    0 -0.00000000000E+00  0.00000000000E+00  0.13913321365E+04  0.13913321365E+04  0.00000000000E+00 0.  1.
         21   -1    0    0  505  502  0.00000000000E+00 -0.00000000000E+00 -0.29403283019E+02  0.29403283019E+02  0.00000000000E+00 0.  1.
         21    1    1    2  503  504 -0.16929030701E+02 -0.93767850922E+02  0.22644200561E+03  0.24567251343E+03  0.00000000000E+00 0.  1.
         21    1    1    2  504  502  0.75886493093E+02 -0.16283828006E+02  0.23370251375E+03  0.24625350316E+03  0.00000000000E+00 0.  1.
         21    1    1    2  505  501 -0.32581041860E+02 -0.22485851270E+02  0.39227808921E+02  0.55731129441E+02  0.00000000000E+00 0.  1.
          2    1    1    2  501    0 -0.26376420532E+02  0.13253753020E+03  0.86255652517E+03  0.87307827345E+03  0.00000000000E+00 0.  1.
<scales pt_clust_3="119.34057" pt_clust_4="70.08586" pt_clust_5="39.58709" pt_clust_6="14000.00000"></scales>
<clustering>
<clus scale="   39.587">  2  5  1 -1</clus>
<clus scale="   70.086">  2  4  1 -1</clus>
<clus scale="  119.341">  2  3  1 -1</clus>
<clus scale="   39.587">  2  3  1 -1</clus>
</clustering>
</event>
<event>
 6    0  0.1361744E+002  0.1155189E+03  0.7546771E-02  0.1250678E+00
         21   -1    0    0  504  502  0.00000000000E+00  0.00000000000E+00  0.23876795612E+03  0.23876795612E+03  0.00000000000E+00 0. -1.
         -1   -1    0    0    0  501 -0.00000000000E+00 -0.00000000000E+00 -0.22518289345E+03  0.22518289345E+03  0.00000000000E+00 0. -1.
         21    1    1    2  503  502  0.93535432705E+02 -0.49795537920E+02  0.10398324958E+03  0.14846207921E+03  0.00000000000E+00 0. -1.
         21    1    1    2  504  505  0.22228458848E+02  0.30311644835E+02  0.72446829826E+02  0.81617665656E+02  0.00000000000E+00 0.  1.
         21    1    1    2  505  501 -0.54932978692E+00 -0.37791520180E+02 -0.25043366162E+02  0.45339507600E+02  0.00000000000E+00 0. -1.
         -1    1    1    2    0  503 -0.11521456177E+03  0.57275413265E+02 -0.13780165057E+03  0.18853159711E+03  0.00000000000E+00 0. -1.
<scales pt_clust_3="14000.00000" pt_clust_4="37.58856" pt_clust_5="35.89958" pt_clust_6="115.51895"></scales>
<clustering>
<clus scale="   37.589">  1  4  2 -1</clus>
<clus scale="   35.900">  2  5  1 -1</clus>
<clus scale="  115.519">  2  6  1 -1</clus>
<clus scale="   37.589">  1  3  2 -1</clus>
</clustering>
</event>
<event>
 6    0  0.1361744E+002  0.2590518E+03  0.7546771E-02  0.1107714E+00
         -1   -1    0    0    0  501 -0.00000000000E+00  0.00000000000E+00  0.79803625685E+03  0.79803625685E+03  0.00000000000E+00 0. -1.
         21   -1    0    0  504  502  0.00000000000E+00 -0.00000000000E+00 -0.64009718334E+03  0.64009718334E+03  0.00000000000E+00 0.  1.
         21    1    1    2  503  505  0.14952479761E+02  0.66028609027E+02 -0.19058550825E+03  0.20225278692E+03  0.00000000000E+00 0.  1.
         21    1    1    2  504  503 -0.29884565400E+02  0.18747792094E+03 -0.39464610387E+03  0.43793447614E+03  0.00000000000E+00 0.  1.
         21    1    1    2  505  501 -0.29406498025E+02 -0.14692017142E+02  0.29843358746E+02  0.44398463431E+02  0.00000000000E+00 0.  1.
         -1    1    1    2    0  502  0.44338583664E+02 -0.23881451283E+03  0.71332732689E+03  0.75354771370E+03  0.00000000000E+00 0. -1.
<scales pt_clust_3="31.90891" pt_clust_4="31.90891" pt_clust_5="32.87244" pt_clust_6="253.48107"></scales>
<clustering>
<clus scale="   31.909">  3  4 -1 -1</clus>
<clus scale="   32.872">  1  5  2 -1</clus>
<clus scale="  253.481">  1  6  2 -1</clus>
<clus scale="  259.052">  2  3  1 -1</clus>
</clustering>
</event>
<event>
 6    0  0.1361744E+002  0.8892384E+02  0.7546771E-02  0.1305479E+00
          1   -1    0    0  503    0 -0.00000000000E+00  0.00000000000E+00  0.47122667092E+03  0.47122667092E+03  0.00000000000E+00 0.  1.
         21   -1    0    0  501  502  0.00000000000E+00 -0.00000000000E+00 -0.90931995454E+03  0.90931995454E+03  0.00000000000E+00 0.  1.
         21    1    1    2  503  504  0.98677718314E+02 -0.18808393037E+02  0.14304214408E+03  0.17479159798E+03  0.00000000000E+00 0.  1.
         21    1    1    2  504  505 -0.30168993398E+02  0.31151671011E+02 -0.35483708241E+03  0.35747720183E+03  0.00000000000E+00 0.  1.
         21    1    1    2  505  502  0.26935002834E+01  0.43845837506E+02 -0.52974603650E+03  0.53156427231E+03  0.00000000000E+00 0.  1.
          1    1    1    2  501    0 -0.71202225200E+02 -0.56189115480E+02  0.30344769121E+03  0.31671355335E+03  0.00000000000E+00 0.  1.
<scales pt_clust_3="86.31524" pt_clust_4="38.83747" pt_clust_5="88.92384" pt_clust_6="14000.00000"></scales>
<clustering>
<clus scale="   38.837">  4  5 -1 -1</clus>
<clus scale="   88.924">  2  4  1 -1</clus>
<clus scale="   86.315">  2  3  1 -1</clus>
<clus scale="   88.924">  2  3  1 -1</clus>
</clustering>
</event>
<event>
 6    0  0.1361744E+002  0.2189722E+03  0.7546771E-02  0.1134652E+00
         -2   -1    0    0    0  501 -0.00000000000E+00  0.00000000000E+00  0.35026227965E+02  0.35026227965E+02  0.00000000000E+00 0.  1.
         21   -1    0    0  504  502  0.00000000000E+00 -0.00000000000E+00 -0.21422425002E+04  0.21422425002E+04  0.00000000000E+00 0.  1.
         21    1    1    2  503  505 -0.82281988113E+02 -0.43591227763E+02 -0.72112055714E+03  0.72710754269E+03  0.00000000000E+00 0.  1.
         21    1    1    2  504  503 -0.12177434625E+03 -0.27700718120E+02 -0.77865829978E+03  0.78860957958E+03  0.00000000000E+00 0.  1.
         21    1    1    2  505  501 -0.11173059284E+02  0.37893498072E+02 -0.14669507817E+03  0.15192169170E+03  0.00000000000E+00 0. -1.
         -2    1    1    2    0  502  0.21522939365E+03  0.33398447812E+02 -0.46074233719E+03  0.50962991423E+03  0.00000000000E+00 0.  1.
<scales pt_clust_3="31.61171" pt_clust_4="31.61171" pt_clust_5="39.50638" pt_clust_6="215.89020"></scales>
<clustering>
<clus scale="   31.612">  3  4 -1 -1</clus>
<clus scale="   39.506">  1  5  2 -1</clus>
<clus scale="  215.890">  1  6  2 -1</clus>
<clus scale="  218.972">  2  3  1 -1</clus>
</clustering>
</event>
<event>
 6    0  0.1361744E+002  0.1540562E+03  0.7546771E-02  0.1195575E+00
         21   -1    0    0  504  502  0.00000000000E+00  0.00000000000E+00  0.31451550839E+03  0.31451550839E+03  0.00000000000E+00 0.  1.
          2   -1    0    0  503    0 -0.00000000000E+00 -0.00000000000E+00 -0.20061189845E+04  0.20061189845E+04  0.00000000000E+00 0.  1.
         21    1    1    2  503  505  0.32805978533E+02 -0.96804963441E+01 -0.72309884603E+02  0.79991647366E+02  0.00000000000E+00 0. -1.
         21    1    1    2  504  501 -0.60920310337E+02 -0.70741078565E+01  0.28183474531E+03  0.28843049575E+03  0.00000000000E+00 0.  1.
         21    1    1    2  505  502 -0.10631953401E+03  0.42099247931E+02 -0.11971241904E+03  0.16555136140E+03  0.00000000000E+00 0.  1.
          2    1    1    2  501    0  0.13443386581E+03 -0.25344643730E+02 -0.17814159178E+04  0.17866609884E+04  0.00000000000E+00 0.  1.
<scales pt_clust_3="34.20445" pt_clust_4="61.27589" pt_clust_5="154.05623" pt_clust_6="14000.00000"></scales>
<clustering>
<clus scale="   34.204">  2  3  1 -1</clus>
<clus scale="   61.276">  1  4  2 -1</clus>
<clus scale="  154.056">  1  5  2 -1</clus>
<clus scale="   61.276">  1  3  2 -1</clus>
</clustering>
</event>
<event>
 6    0  0.1361744E+002  0.1153845E+03  0.7546771E-02  0.1250911E+00
          2   -1    0    0  505    0 -0.00000000000E+00  0.00000000000E+00  0.39947147909E+03  0.39947147909E+03  0.00000000000E+00 0. -1.
         21   -1    0    0  503  502  0.00000000000E+00 -0.00000000000E+00 -0.15343114423E+04  0.15343114423E+04  0.00000000000E+00 0.  1.
         21    1    1    2  503  501 -0.13013578149E+03  0.20447624590E+01 -0.65237100390E+03  0.66522735167E+03  0.00000000000E+00 0.  1.
         21    1    1    2  504  502  0.75950732854E+02 -0.10160012911E+03 -0.84658988791E+03  0.85604061724E+03  0.00000000000E+00 0.  1.
         21    1    1    2  505  504  0.90148611164E+01  0.42352044929E+02  0.22313506393E+01  0.43358302046E+02  0.00000000000E+00 0. -1.
          2    1    1    2  501    0  0.45170187518E+02  0.57203321720E+02  0.36188957800E+03  0.36915665038E+03  0.00000000000E+00 0. -1.
<scales pt_clust_3="115.38448" pt_clust_4="14000.00000" pt_clust_5="43.30085" pt_clust_6="112.11739"></scales>
<clustering>
<clus scale="   43.301">  1  5  2 -1</clus>
<clus scale="  112.117">  1  6  2 -1</clus>
<clus scale="  115.384">  1  3  2 -1</clus>
<clus scale="  115.384">  2  3  1 -1</clus>
</clustering>
</event>
<event>
 6    0  0.1361744E+002  0.2052109E+03  0.7546771E-02  0.1145416E+00
         21   -1    0    0  505  502  0.00000000000E+00  0.00000000000E+00  0.10393560276E+04  0.10393560276E+04  0.00000000000E+00 0. -1.
          2   -1    0    0  503    0 -0.00000000000E+00 -0.00000000000E+00 -0.12992335766E+04  0.12992335766E+04  0.00000000000E+00 0.  1.
         21    1    1    2  503  502  0.32441296415E+02  0.21091127130E+01  0.59845082066E+02  0.68105212113E+02  0.00000000000E+00 0. -1.
         21    1    1    2  504  501 -0.66493136400E+02 -0.11004688036E+03 -0.64216942677E+03  0.65491467058E+03  0.00000000000E+00 0.  1.
         21    1    1    2  505  504  0.41908416023E+02  0.17561730790E+03  0.95876368745E+03  0.97561547883E+03  0.00000000000E+00 0. -1.
          2    1    1    2  501    0 -0.78565760375E+01 -0.67679540251E+02 -0.63631689180E+03  0.63995424269E+03  0.00000000000E+00 0.  1.
<scales pt_clust_3="32.50978" pt_clust_4="51.71861" pt_clust_5="192.53007" pt_clust_6="51.71861"></scales>
<clustering>
<clus scale="   32.510">  1  3  2 -1</clus>
<clus scale="   51.719">  4  6 -1 -1</clus>
<clus scale="  192.530">  1  5  2 -1</clus>
<clus scale="   32.510">  1  3  2 -1</clus>
</clustering>
</event>
<event>
 6    0  0.1361744E+002  0.7603704E+02  0.7546771E-02  0.1340689E+00
          2   -1    0    0  504    0 -0.00000000000E+00  0.00000000000E+00  0.89616335510E+02  0.89616335510E+02  0.00000000000E+00 0. -1.
         21   -1    0    0  505  502  0.00000000000E+00 -0.00000000000E+00 -0.54185009173E+03  0.54185009173E+03  0.00000000000E+00 0. -1.
         21    1    1    2  503  501  0.12268898952E+02  0.77768479847E+02 -0.20083026867E+03  0.21571105477E+03  0.00000000000E+00 0.  1.
         21    1    1    2  504  502  0.47439573533E+02 -0.19682427972E+02 -0.28184382010E+02  0.58585582673E+02  0.00000000000E+00 0.  1.
         21    1    1    2  505  503  0.11448573073E+02 -0.74770228213E+02 -0.26320582007E+03  0.27385938102E+03  0.00000000000E+00 0. -1.
          2    1    1    2  501    0 -0.71157045558E+02  0.16684176338E+02  0.39986714523E+02  0.83310408779E+02  0.00000000000E+00 0. -1.
<scales pt_clust_3="76.03704" pt_clust_4="51.36060" pt_clust_5="14000.00000" pt_clust_6="31.85872"></scales>
<clustering>
<clus scale="   51.361">  1  4  2 -1</clus>
<clus scale="   31.859">  1  6  2 -1</clus>
<clus scale="   76.037">  1  3  2 -1</clus>
<clus scale="   76.037">  2  3  1 -1</clus>
</clustering>
</event>
<event>
 6    0  0.1361744E+002  0.1393100E+03  0.7546771E-02  0.1214260E+00
         21   -1    0    0  505  502  0.00000000000E+00  0.00000000000E+00  0.36528466946E+03  0.36528466946E+03  0.00000000000E+00 0.  1.
          2   -1    0    0  503    0 -0.00000000000E+00 -0.00000000000E+00 -0.43612429838E+03  0.43612429838E+03  0.00000000000E+00 0. -1.
         21    1    1    2  503  504  0.11609666712E+01 -0.45738916725E+02 -0.30551179742E+02  0.55016097011E+02  0.00000000000E+00 0.  1.
         21    1    1    2  504  502  0.34479554951E+02  0.10279111309E+02  0.29284270315E+02  0.46390390458E+02  0.00000000000E+00 0.  1.
         21    1    1    2  505  501  0.92726203139E+02 -0.69696731440E+02  0.28544680017E+03  0.30811630734E+03  0.00000000000E+00 0.  1.
          2    1    1    2  501    0 -0.12836672476E+03  0.10515653686E+03 -0.35501951966E+03  0.39188617302E+03  0.00000000000E+00 0. -1.
<scales pt_clust_3="45.42099" pt_clust_4="35.97916" pt_clust_5="14000.00000" pt_clust_6="139.31005"></scales>
<clustering>
<clus scale="   35.979">  1  4  2 -1</clus>
<clus scale="   45.421">  2  3  1 -1</clus>
<clus scale="  139.310">  2  6  1 -1</clus>
<clus scale="   35.979">  1  3  2 -1</clus>
</clustering>
</event>
<event>
 6    0  0.1361744E+002  0.1492973E+03  0.7546771E-02  0.1201339E+00
         21   -1    0    0  504  502  0.00000000000E+00  0.00000000000E+00  0.21992962190E+03  0.21992962190E+03  0.00000000000E+00 0. -1.
          1   -1    0    0  505    0 -0.00000000000E+00 -0.00000000000E+00 -0.22459172287E+04  0.22459172287E+04  0.00000000000E+00 0.  1.
         21    1    1    2  503  502  0.14123670150E+03  0.51013285965E+02  0.18513677825E+03  0.23838160134E+03  0.00000000000E+00 0. -1.
         21    1    1    2  504  501 -0.12616804681E+03  0.53357272284E+01 -0.98278328795E+03  0.99086317778E+03  0.00000000000E+00 0.  1.
         21    1    1    2  505  503  0.23286699978E+02 -0.21002063063E+02 -0.65787839375E+02  0.72879330804E+02  0.00000000000E+00 0.  1.
          1    1    1    2  501    0 -0.38355354664E+02 -0.35346950130E+02 -0.11625532578E+04  0.11637227407E+04  0.00000000000E+00 0.  1.
<scales pt_clust_3="149.29725" pt_clust_4="14000.00000" pt_clust_5="31.35852" pt_clust_6="53.29329"></scales>
<clustering>
<clus scale="   31.359">  2  5  1 -1</clus>
<clus scale="   53.293">  2  6  1 -1</clus>
<clus scale="  149.297">  1  3  2 -1</clus>
<clus scale="  149.297">  1  3  2 -1</clus>
</clustering>
</event>
<event>
 6    0  0.1361744E+002  0.1046919E+03  0.7546771E-02  0.1270728E+00
         21   -1    0    0  505  502  0.00000000000E+00  0.00000000000E+00  0.99172795024E+03  0.99172795024E+03  0.00000000000E+00 0.  1.
         -1   -1    0    0    0  501 -0.00000000000E+00 -0.00000000000E+00 -0.70423842074E+02  0.70423842074E+02  0.00000000000E+00 0. -1.
         21    1    1    2  503  502 -0.44828512428E+02  0.58020735263E+01  0.10815839253E+03  0.11722413343E+03  0.00000000000E+00 0.  1.
         21    1    1    2  504  503 -0.63216358286E+02 -0.91068879381E+02  0.64257056409E+02  0.12813593581E+03  0.00000000000E+00 0.  1.
         21    1    1    2  505  501  0.14362413916E+03  0.15039453901E+02  0.71774682225E+03  0.73213016559E+03  0.00000000000E+00 0.  1.
         -1    1    1    2    0  504 -0.35579268450E+02  0.70227351954E+02  0.31141836982E+02  0.84661557489E+02  0.00000000000E+00 0. -1.
<scales pt_clust_3="45.20243" pt_clust_4="104.69190" pt_clust_5="14000.00000" pt_clust_6="80.43897"></scales>
<clustering>
<clus scale="   45.202">  1  3  2 -1</clus>
<clus scale="   80.439">  2  6  1 -1</clus>
<clus scale="  104.692">  2  4  1 -1</clus>
<clus scale="   45.202">  1  3  2 -1</clus>
</clustering>
</event>
<event>
 6    0  0.1361744E+002  0.8009719E+02  0.7546771E-02  0.1328776E+00
         -2   -1    0    0    0  501 -0.00000000000E+00  0.00000000000E+00  0.13225774379E+03  0.13225774379E+03  0.00000000000E+00 0.  1.
         21   -1    0    0  505  502  0.00000000000E+00 -0.00000000000E+00 -0.12325881984E+04  0.12325881984E+04  0.00000000000E+00 0.  1.
         21    1    1    2  503  502 -0.54600386261E+02 -0.87137665412E+02 -0.44118392208E+03  0.45300930235E+03  0.00000000000E+00 0.  1.
         21    1    1    2  504  501  0.19536808047E+02 -0.33879016009E+02 -0.15536808735E+02  0.42081670833E+02  0.00000000000E+00 0.  1.
         21    1    1    2  505  504 -0.99493325729E+01  0.77316885358E+02 -0.74578960307E+03  0.74985266688E+03  0.00000000000E+00 0.  1.
         -2    1    1    2    0  503  0.45012910787E+02  0.43699796063E+02  0.10217987931E+03  0.11990230210E+03  0.00000000000E+00 0.  1.
<scales pt_clust_3="14000.00000" pt_clust_4="39.10850" pt_clust_5="80.09719" pt_clust_6="64.38915"></scales>
<clustering>
<clus scale="   39.108">  1  4  2 -1</clus>
<clus scale="   64.389">  1  6  2 -1</clus>
<clus scale="   80.097">  2  5  1 -1</clus>
<clus scale="   80.097">  2  3  1 -1</clus>
</clustering>
</event>
<event>
 6    0  0.1361744E+002  0.1640340E+03  0.7546771E-02  0.1184216E+00
          2   -1    0    0  504    0 -0.00000000000E+00  0.00000000000E+00  0.15287947284E+04  0.15287947284E+04  0.00000000000E+00 0.  1.
         21   -1    0    0  503  502  0.00000000000E+00 -0.00000000000E+00 -0.42355482200E+03  0.42355482200E+03  0.00000000000E+00 0.  1.
         21    1    1    2  503  501  0.12708987939E+03 -0.10561817630E+03 -0.34885966342E+03  0.38601826560E+03  0.00000000000E+00 0.  1.
         21    1    1    2  504  505  0.10855321647E+02 -0.11492925269E+03  0.68119583172E+03  0.69090833856E+03  0.00000000000E+00 0.  1.
         21    1    1    2  505  502 -0.41606259553E+02  0.18203639133E+03  0.13823540191E+03  0.23233027126E+03  0.00000000000E+00 0.  1.
          2    1    1    2  501    0 -0.96338941484E+02  0.38511037663E+02  0.63466833619E+03  0.64309267500E+03  0.00000000000E+00 0.  1.
<scales pt_clust_3="14000.00000" pt_clust_4="106.24162" pt_clust_5="164.03401" pt_clust_6="103.75110"></scales>
<clustering>
<clus scale="  103.751">  1  6  2 -1</clus>
<clus scale="  106.242">  1  4  2 -1</clus>
<clus scale="  164.034">  1  5  2 -1</clus>
<clus scale="  164.034">  2  3  1 -1</clus>
</clustering>
</event>
<event>
 6    0  0.1361744E+002  0.1007789E+03  0.7546771E-02  0.1278666E+00
         21   -1    0    0  503  502  0.00000000000E+00  0.00000000000E+00  0.11498205226E+03  0.11498205226E+03  0.00000000000E+00 0.  1.
         -1   -1    0    0    0  501 -0.00000000000E+00 -0.00000000000E+00 -0.87215870041E+03  0.87215870041E+03  0.00000000000E+00 0.  1.
         21    1    1    2  503  505  0.24611142716E+02 -0.17659822427E+02  0.55512545074E+02  0.63239389106E+02  0.00000000000E+00 0.  1.
         21    1    1    2  504  502  0.82826218639E+02  0.49492261043E+02  0.93802446817E+00  0.96491172068E+02  0.00000000000E+00 0.  1.
         21    1    1    2  505  501 -0.42243691337E+02 -0.60594260178E+02 -0.30506740609E+03  0.31388264699E+03  0.00000000000E+00 0.  1.
         -1    1    1    2    0  504 -0.65193670018E+02  0.28761821562E+02 -0.50855981161E+03  0.51352754451E+03  0.00000000000E+00 0.  1.
<scales pt_clust_3="30.29154" pt_clust_4="14000.00000" pt_clust_5="100.77894" pt_clust_6="69.93260"></scales>
<clustering>
<clus scale="   30.292">  1  3  2 -1</clus>
<clus scale="   69.933">  2  6  1 -1</clus>
<clus scale="  100.779">  2  5  1 -1</clus>
<clus scale="   30.292">  1  3  2 -1</clus>
</clustering>
</event>
<event>
 6    0  0.1361744E+002  0.1868408E+03  0.7546771E-02  0.1161342E+00
          2   -1    0    0  503    0 -0.00000000000E+00  0.00000000000E+00  0.97604722542E+03  0.97604722542E+03  0.00000000000E+00 0. -1.
         21   -1    0    0  505  502  0.00000000000E+00 -0.00000000000E+00 -0.10128633446E+03  0.10128633446E+03  0.00000000000E+00 0. -1.
         21    1    1    2  503  504  0.43658393381E+02 -0.68237614413E+02  0.45413189404E+02  0.92869721143E+02  0.00000000000E+00 0. -1.
         21    1    1    2  504  502 -0.67611169013E+01 -0.98342779294E+02 -0.35758240157E+01  0.98639755973E+02  0.00000000000E+00 0. -1.
         21    1    1    2  505  501 -0.77620611540E+02 -0.11212321584E+01  0.73032778773E+02  0.10658331611E+03  0.00000000000E+00 0. -1.
          2    1    1    2  501    0  0.40723335061E+02  0.16770162587E+03  0.75989074680E+03  0.77924076665E+03  0.00000000000E+00 0. -1.
<scales pt_clust_3="69.12907" pt_clust_4="69.12907" pt_clust_5="77.62871" pt_clust_6="170.57082"></scales>
<clustering>
<clus scale="   69.129">  3  4 -1 -1</clus>
<clus scale="   77.629">  2  5  1 -1</clus>
<clus scale="  170.571">  1  6  2 -1</clus>
<clus scale="   77.629">  2  3  1 -1</clus>
</clustering>
</event>
<event>
 6    0  0.1361744E+002  0.1296549E+03  0.7546771E-02  0.1227969E+00
         21   -1    0    0  504  502  0.00000000000E+00  0.00000000000E+00  0.11820569048E+03  0.11820569048E+03  0.00000000000E+00 0. -1.
          2   -1    0    0  505    0 -0.00000000000E+00 -0.00000000000E+00 -0.13675421172E+04  0.13675421172E+04  0.00000000000E+00 0.  1.
         21    1    1    2  503  502  0.41488635918E+02 -0.34725900372E+02 -0.11848974731E+03  0.13025749608E+03  0.00000000000E+00 0. -1.
         21    1    1    2  504  501 -0.13166383269E+03 -0.46307726904E+01  0.63047304577E+02  0.14605400203E+03  0.00000000000E+00 0. -1.
         21    1    1    2  505  503  0.15228585169E+02  0.50412171818E+02 -0.10086486881E+03  0.11378496664E+03  0.00000000000E+00 0.  1.
          2    1    1    2  501    0  0.74946611601E+02 -0.11055498755E+02 -0.10930291151E+04  0.10956513429E+04  0.00000000000E+00 0.  1.
<scales pt_clust_3="52.28169" pt_clust_4="129.65491" pt_clust_5="52.66210" pt_clust_6="14000.00000"></scales>
<clustering>
<clus scale="   52.662">  2  5  1 -1</clus>
<clus scale="   52.282">  2  3  1 -1</clus>
<clus scale="  129.655">  1  4  2 -1</clus>
<clus scale="  129.655">  1  3  2 -1</clus>
</clustering>
</event>
<event>
 6    0  0.1361744E+002  0.1092037E+03  0.7546771E-02  0.1262052E+00
          2   -1    0    0  505    0 -0.00000000000E+00  0.00000000000E+00  0.26188703927E+04  0.26188703927E+04  0.00000000000E+00 0. -1.
         21   -1    0    0  501  502  0.00000000000E+00 -0.00000000000E+00 -0.12504061719E+02  0.12504061719E+02  0.00000000000E+00 0. -1.
         21    1    1    2  503  504  0.18655160150E+01  0.46781902602E+02  0.42698605464E+03  0.42954524490E+03  0.00000000000E+00 0. -1.
         21    1    1    2  504  502 -0.34088050730E+02 -0.30862644792E+02  0.10040458660E+03  0.11043359569E+03  0.00000000000E+00 0. -1.
         21    1    1    2  505  503 -0.77091319670E+02  0.40334199644E+02  0.48946368906E+03  0.49713642206E+03  0.00000000000E+00 0. -1.
          2    1    1    2  501    0  0.10931385438E+03 -0.56253457454E+02  0.15895120007E+04  0.15942591917E+04  0.00000000000E+00 0. -1.
<scales pt_clust_3="41.69732" pt_clust_4="45.98367" pt_clust_5="14000.00000" pt_clust_6="109.20368"></scales>
<clustering>
<clus scale="   45.984">  2  4  1 -1</clus>
<clus scale="   41.697">  2  3  1 -1</clus>
<clus scale="  109.204">  1  6  2 -1</clus>
<clus scale="   45.984">  2  3  1 -1</clus>
</clustering>
</event>
<event>
 6    0  0.1361744E+002  0.1372524E+03  0.7546771E-02  0.1217075E+00
         21   -1    0    0  504  502  0.00000000000E+00  0.00000000000E+00  0.22185990956E+03  0.22185990956E+03  0.00000000000E+00 0. -1.
          4   -1    0    0  503    0 -0.00000000000E+00 -0.00000000000E+00 -0.28623954665E+03  0.28623954665E+03  0.00000000000E+00 0. -1.
         21    1    1    2  503  505  0.10330638942E+03  0.89479849340E+02 -0.12972326917E+03  0.18843295916E+03  0.00000000000E+00 0. -1.
         21    1    1    2  504  501 -0.44088402156E+02  0.73952881924E+01  0.13181218254E+01  0.44723762557E+02  0.00000000000E+00 0. -1.
         21    1    1    2  505  502 -0.10983047012E+03 -0.29369580104E+02  0.12640847266E+03  0.17001295940E+03  0.00000000000E+00 0. -1.
          4    1    1    2  501    0  0.50612482855E+02 -0.67505557427E+02 -0.62382962393E+02  0.10492977509E+03  0.00000000000E+00 0. -1.
<scales pt_clust_3="14000.00000" pt_clust_4="44.70433" pt_clust_5="137.25238" pt_clust_6="80.97658"></scales>
<clustering>
<clus scale="   44.704">  1  4  2 -1</clus>
<clus scale="   80.977">  2  6  1 -1</clus>
<clus scale="  137.252">  1  5  2 -1</clus>
<clus scale="   44.704">  1  3  2 -1</clus>
</clustering>
</event>
<event>
 6    0  0.1361744E+002  0.1481098E+03  0.7546771E-02  0.1202815E+00
         21   -1    0    0  505  502  0.00000000000E+00  0.00000000000E+00  0.10136272798E+03  0.10136272798E+03  0.00000000000E+00 0. -1.
          1   -1    0    0  502    0 -0.00000000000E+00 -0.00000000000E+00 -0.74814842075E+03  0.74814842075E+03  0.00000000000E+00 0. -1.
         21    1    1    2  503  501 -0.72415203044E+02  0.29040096329E+02 -0.30247120465E+03  0.31237176323E+03  0.00000000000E+00 0. -1.
         21    1    1    2  504  503  0.49013874526E+02 -0.29470467870E+02 -0.16340546043E+02  0.59480095978E+02  0.00000000000E+00 0. -1.
         21    1    1    2  505  504  0.66219112229E+02 -0.38917625444E+02  0.52326352827E+02  0.92938687287E+02  0.00000000000E+00 0. -1.
          1    1    1    2  501    0 -0.42817783711E+02  0.39347996985E+02 -0.38030029491E+03  0.38472060223E+03  0.00000000000E+00 0. -1.
<scales pt_clust_3="36.68148" pt_clust_4="54.44444" pt_clust_5="54.44444" pt_clust_6="140.57327"></scales>
<clustering>
<clus scale="   36.681">  3  6 -1 -1</clus>
<clus scale="   54.444">  4  5 -1 -1</clus>
<clus scale="  140.573">  2  3  1 -1</clus>
<clus scale="  148.110">  1  3  2 -1</clus>
</clustering>
</event>
<event>
 6    0  0.1361744E+002  0.1178188E+03  0.7546771E-02  0.1246739E+00
         21   -1    0    0  504  502  0.00000000000E+00  0.00000000000E+00  0.90530633359E+03  0.90530633359E+03  0.00000000000E+00 0.  1.
         -4   -1    0    0    0  501 -0.00000000000E+00 -0.00000000000E+00 -0.14604071567E+03  0.14604071567E+03  0.00000000000E+00 0. -1.
         21    1    1    2  503  501 -0.36072962920E+02  0.55859845647E+01 -0.11090287127E+02  0.38150443587E+02  0.00000000000E+00 0.  1.
         21    1    1    2  504  503 -0.83378499384E+02 -0.81811044494E+02  0.70465859918E+03  0.71427499085E+03  0.00000000000E+00 0.  1.
         21    1    1    2  505  502  0.55487516232E+02  0.11728207186E+03  0.14121999295E+03  0.19177339556E+03  0.00000000000E+00 0. -1.
         -4    1    1    2    0  505  0.63963946072E+02 -0.41057011930E+02 -0.75522687087E+02  0.10714821926E+03  0.00000000000E+00 0. -1.
<scales pt_clust_3="36.50290" pt_clust_4="14000.00000" pt_clust_5="117.81882" pt_clust_6="52.10249"></scales>
<clustering>
<clus scale="   36.503">  2  3  1 -1</clus>
<clus scale="   52.102">  2  6  1 -1</clus>
<clus scale="  117.819">  2  5  1 -1</clus>
<clus scale="  117.819">  1  3  2 -1</clus>
</clustering>
</event>
<event>
 6    0  0.1361744E+002  0.1147401E+03  0.7546771E-02  0.1252035E+00
          3   -1    0    0  505    0 -0.00000000000E+00  0.00000000000E+00  0.59234866997E+03  0.59234866997E+03  0.00000000000E+00 0.  1.
         21   -1    0    0  504  502  0.00000000000E+00 -0.00000000000E+00 -0.16153847005E+03  0.16153847005E+03  0.00000000000E+00 0. -1.
         21    1    1    2  503  501  0.10276682256E+02  0.34448426329E+02 -0.16106204179E+02  0.39391802292E+02  0.00000000000E+00 0. -1.
         21    1    1    2  504  503  0.74897889419E+02  0.32434083184E+02  0.37413193611E+01  0.81704718725E+02  0.00000000000E+00 0. -1.
         21    1    1    2  505  502  0.14420246163E+02 -0.44254268331E+02 -0.83881467849E+02  0.95929580492E+02  0.00000000000E+00 0. -1.
          3    1    1    2  501    0 -0.99594817838E+02 -0.22628241181E+02  0.52705655259E+03  0.53686103851E+03  0.00000000000E+00 0.  1.
<scales pt_clust_3="35.01395" pt_clust_4="35.01395" pt_clust_5="46.54443" pt_clust_6="101.89113"></scales>
<clustering>
<clus scale="   35.014">  3  4 -1 -1</clus>
<clus scale="   46.544">  2  5  1 -1</clus>
<clus scale="  101.891">  1  6  2 -1</clus>
<clus scale="   46.544">  2  3  1 -1</clus>
</clustering>
</event>
<event>
 6    0  0.1361744E+002  0.1315033E+03  0.7546771E-02  0.1225242E+00
         21   -1    0    0  505  502  0.00000000000E+00  0.00000000000E+00  0.13212693191E+03  0.13212693191E+03  0.00000000000E+00 0.  1.
          2   -1    0    0  504    0 -0.00000000000E+00 -0.00000000000E+00 -0.34757981407E+03  0.34757981407E+03  0.00000000000E+00 0.  1.
         21    1    1    2  503  502 -0.13679114740E+02  0.82769706733E+02  0.52540841036E+02  0.98987284585E+02  0.00000000000E+00 0.  1.
         21    1    1    2  504  503 -0.37967370614E+02  0.23659190986E+02  0.30769284892E+02  0.54295740553E+02  0.00000000000E+00 0.  1.
         21    1    1    2  505  501  0.54469839932E+02 -0.68704808277E+02 -0.15833731981E+03  0.18099177050E+03  0.00000000000E+00 0.  1.
          2    1    1    2  501    0 -0.28233545779E+01 -0.37724089442E+02 -0.14042568827E+03  0.14543195035E+03  0.00000000000E+00 0.  1.
<scales pt_clust_3="128.66666" pt_clust_4="36.95214" pt_clust_5="37.72591" pt_clust_6="37.72591"></scales>
<clustering>
<clus scale="   36.952">  3  4 -1 -1</clus>
<clus scale="   37.726">  5  6 -1 -1</clus>
<clus scale="  128.667">  1  3  2 -1</clus>
<clus scale="  128.667">  1  3  2 -1</clus>
</clustering>
</event>
<event>
 6    0  0.1361744E+002  0.9038348E+02  0.7546771E-02  0.1301926E+00
         21   -1    0    0  504  502  0.00000000000E+00  0.00000000000E+00  0.14773896992E+04  0.14773896992E+04  0.00000000000E+00 0. -1.
         -1   -1    0    0    0  501 -0.00000000000E+00 -0.00000000000E+00 -0.17886760185E+02  0.17886760185E+02  0.00000000000E+00 0. -1.
         21    1    1    2  503  505 -0.38213799906E+02  0.18474342986E+01  0.30319678567E+03  0.30560104443E+03  0.00000000000E+00 0. -1.
         21    1    1    2  504  503 -0.36700122677E+02 -0.33192851610E+02  0.63617831694E+03  0.63809992583E+03  0.00000000000E+00 0. -1.
         21    1    1    2  505  501  0.35376869648E+02 -0.67834661445E+02  0.20153585152E+03  0.21556846626E+03  0.00000000000E+00 0. -1.
         -1    1    1    2    0  502  0.39537052935E+02  0.99180078756E+02  0.31859198488E+03  0.33600702285E+03  0.00000000000E+00 0. -1.
<scales pt_clust_3="34.63220" pt_clust_4="34.63220" pt_clust_5="76.50532" pt_clust_6="81.35027"></scales>
<clustering>
<clus scale="   34.632">  3  4 -1 -1</clus>
<clus scale="   76.505">  2  5  1 -1</clus>
<clus scale="   81.350">  2  6  1 -1</clus>
<clus scale="   90.383">  1  3  2 -1</clus>
</clustering>
</event>
<event>
 6    0  0.1361744E+002  0.1276655E+03  0.7546771E-02  0.1230961E+00
          2   -1    0    0  505    0 -0.00000000000E+00  0.00000000000E+00  0.15636212014E+04  0.15636212014E+04  0.00000000000E+00 0. -1.
         21   -1    0    0  503  502  0.00000000000E+00 -0.00000000000E+00 -0.93338280700E+02  0.93338280700E+02  0.00000000000E+00 0.  1.
         21    1    1    2  503  501  0.28956467380E+02  0.37309324478E+02  0.41066906676E+03  0.41337579161E+03  0.00000000000E+00 0. -1.
         21    1    1    2  504  502 -0.64458706298E+02 -0.10439455303E+03 -0.43639861051E+02  0.13022129239E+03  0.00000000000E+00 0.  1.
         21    1    1    2  505  504 -0.20764199426E+02  0.30173705621E+02  0.81004772162E+02  0.88900942636E+02  0.00000000000E+00 0.  1.
          2    1    1    2  501    0  0.56266438345E+02  0.36911522929E+02  0.10222489428E+04  0.10244614554E+04  0.00000000000E+00 0. -1.
<scales pt_clust_3="30.78365" pt_clust_4="122.26294" pt_clust_5="36.62792" pt_clust_6="30.78365"></scales>
<clustering>
<clus scale="   30.784">  3  6 -1 -1</clus>
<clus scale="   36.628">  1  5  2 -1</clus>
<clus scale="  122.263">  2  4  1 -1</clus>
<clus scale="  122.263">  2  3  1 -1</clus>
</clustering>
</event>
<event>
 6    0  0.1361744E+002  0.1433211E+03  0.7546771E-02  0.1208929E+00
          3   -1    0    0  504    0 -0.00000000000E+00  0.00000000000E+00  0.67927134838E+03  0.67927134838E+03  0.00000000000E+00 0. -1.
         21   -1    0    0  503  502  0.00000000000E+00 -0.00000000000E+00 -0.74428171369E+03  0.74428171369E+03  0.00000000000E+00 0.  1.
         21    1    1    2  503  501 -0.34707186930E+02 -0.22008192583E+03 -0.57594531089E+03  0.61753837455E+03  0.00000000000E+00 0.  1.
         21    1    1    2  504  505  0.24416125136E+02  0.17599805048E+02  0.41131327636E+02  0.50967503543E+02  0.00000000000E+00 0. -1.
         21    1    1    2  505  502 -0.63549500911E+02  0.11377641264E+03 -0.10587780837E+03  0.16790986107E+03  0.00000000000E+00 0. -1.
          3    1    1    2  501    0  0.73840562705E+02  0.88705708141E+02  0.57568142631E+03  0.58713732291E+03  0.00000000000E+00 0. -1.
<scales pt_clust_3="143.32113" pt_clust_4="30.09818" pt_clust_5="130.49884" pt_clust_6="14000.00000"></scales>
<clustering>
<clus scale="   30.098">  1  4  2 -1</clus>
<clus scale="  130.499">  2  5  1 -1</clus>
<clus scale="  143.321">  2  3  1 -1</clus>
<clus scale="  130.499">  2  3  1 -1</clus>
</clustering>
</event>
<event>
 6    0  0.1361744E+002  0.1359402E+03  0.7546771E-02  0.1218899E+00
          2   -1    0    0  503    0 -0.00000000000E+00  0.00000000000E+00  0.90702943100E+03  0.90702943100E+03  0.00000000000E+00 0.  1.
         21   -1    0    0  504  502  0.00000000000E+00 -0.00000000000E+00 -0.26076432900E+03  0.26076432900E+03  0.00000000000E+00 0.  1.
         21    1    1    2  503  505  0.15589797171E+02  0.36553686151E+02  0.91402548930E+02  0.99667646194E+02  0.00000000000E+00 0.  1.
         21    1    1    2  504  501  0.41932533334E+02 -0.40120070208E+02 -0.37747920312E+02  0.69230505366E+02  0.00000000000E+00 0. -1.
         21    1    1    2  505  502  0.79779812178E+02 -0.26757143689E+02 -0.18786790930E+03  0.20585216665E+03  0.00000000000E+00 0.  1.
          2    1    1    2  501    0 -0.13730214268E+03  0.30323527745E+02  0.78047838269E+03  0.79304344179E+03  0.00000000000E+00 0.  1.
<scales pt_clust_3="39.73932" pt_clust_4="57.76693" pt_clust_5="135.94017" pt_clust_6="14000.00000"></scales>
<clustering>
<clus scale="   39.739">  1  3  2 -1</clus>
<clus scale="   57.767">  2  4  1 -1</clus>
<clus scale="  135.940">  2  5  1 -1</clus>
<clus scale="   57.767">  2  3  1 -1</clus>
</clustering>
</event>
<event>
 6    0  0.1361744E+002  0.1443638E+03  0.7546771E-02  0.1207575E+00
          1   -1    0    0  503    0 -0.00000000000E+00  0.00000000000E+00  0.25234716435E+03  0.25234716435E+03  0.00000000000E+00 0.  1.
         21   -1    0    0  504  502  0.00000000000E+00 -0.00000000000E+00 -0.91641698030E+03  0.91641698030E+03  0.00000000000E+00 0. -1.
         21    1    1    2  503  502 -0.93492622492E+02  0.36415831044E+02  0.10866007431E+02  0.10092102521E+03  0.00000000000E+00 0. -1.
         21    1    1    2  504  505 -0.14380836684E+03 -0.39261239773E+02 -0.65381088449E+03  0.67059001185E+03  0.00000000000E+00 0. -1.
         21    1    1    2  505  501  0.11365737883E+03  0.72379414857E+02 -0.15278442963E+03  0.20371514768E+03  0.00000000000E+00 0. -1.
          1    1    1    2  501    0  0.12364361050E+03 -0.69534006128E+02  0.13165949074E+03  0.19353795991E+03  0.00000000000E+00 0.  1.
<scales pt_clust_3="100.33436" pt_clust_4="14000.00000" pt_clust_5="144.36385" pt_clust_6="60.76261"></scales>
<clustering>
<clus scale="  100.334">  1  3  2 -1</clus>
<clus scale="   60.763">  1  6  2 -1</clus>
<clus scale="  144.364">  1  5  2 -1</clus>
<clus scale="  144.364">  2  3  1 -1</clus>
</clustering>
</event>
<event>
 6    0  0.1361744E+002  0.1215738E+03  0.7546771E-02  0.1240523E+00
         21   -1    0    0  503  502  0.00000000000E+00  0.00000000000E+00  0.31008601606E+02  0.31008601606E+02  0.00000000000E+00 0.  1.
          2   -1    0    0  505    0 -0.00000000000E+00 -0.00000000000E+00 -0.10800702401E+04  0.10800702401E+04  0.00000000000E+00 0. -1.
         21    1    1    2  503  501 -0.40486845829E+02 -0.28215865423E+02 -0.17347326018E+02  0.52309171918E+02  0.00000000000E+00 0.  1.
         21    1    1    2  504  502  0.13836161595E+02  0.66111624754E+02 -0.23401585484E+03  0.24356848444E+03  0.00000000000E+00 0.  1.
         21    1    1    2  505  504 -0.26001518522E+02  0.54615950247E+02 -0.33490548930E+03  0.34032435668E+03  0.00000000000E+00 0.  1.
          2    1    1    2  501    0  0.52652202757E+02 -0.92511709578E+02 -0.46279296830E+03  0.47487682863E+03  0.00000000000E+00 0. -1.
<scales pt_clust_3="49.34896" pt_clust_4="47.65840" pt_clust_5="47.65840" pt_clust_6="110.65248"></scales>
<clustering>
<clus scale="   47.658">  4  5 -1 -1</clus>
<clus scale="   49.349">  1  3  2 -1</clus>
<clus scale="  110.652">  2  6  1 -1</clus>
<clus scale="   49.349">  1  3  2 -1</clus>
</clustering>
</event>
<event>
 6    0  0.1361744E+002  0.1267709E+03  0.7546771E-02  0.1232327E+00
         21   -1    0    0  505  502  0.00000000000E+00  0.00000000000E+00  0.19891484664E+03  0.19891484664E+03  0.00000000000E+00 0.  1.
          2   -1    0    0  503    0 -0.00000000000E+00 -0.00000000000E+00 -0.17283626474E+04  0.17283626474E+04  0.00000000000E+00 0.  1.
         21    1    1    2  503  502  0.14641084901E+03  0.27968703974E+02  0.14211000186E+03  0.20594571551E+03  0.00000000000E+00 0.  1.
         21    1    1    2  504  501 -0.47789305247E+02 -0.19737426698E+02 -0.99644124145E+03  0.99778180549E+03  0.00000000000E+00 0.  1.
         21    1    1    2  505  504 -0.30404842313E+02 -0.30791806245E+01  0.12149936252E+02  0.32887029971E+02  0.00000000000E+00 0.  1.
          2    1    1    2  501    0 -0.68216701451E+02 -0.51520966519E+01 -0.68726649739E+03  0.69066294305E+03  0.00000000000E+00 0.  1.
<scales pt_clust_3="119.05389" pt_clust_4="37.82470" pt_clust_5="30.56036" pt_clust_6="37.82470"></scales>
<clustering>
<clus scale="   30.560">  1  5  2 -1</clus>
<clus scale="   37.825">  4  6 -1 -1</clus>
<clus scale="  119.054">  1  3  2 -1</clus>
<clus scale="   30.560">  1  3  2 -1</clus>
</clustering>
</event>
<event>
 6    0  0.1361744E+002  0.2101980E+03  0.7546771E-02  0.1141409E+00
          1   -1    0    0  505    0 -0.00000000000E+00  0.00000000000E+00  0.17625914604E+04  0.17625914604E+04  0.00000000000E+00 0.  1.
         21   -1    0    0  503  502  0.00000000000E+00 -0.00000000000E+00 -0.88630496500E+03  0.88630496500E+03  0.00000000000E+00 0. -1.
         21    1    1    2  503  501  0.51899115298E+02  0.56441791403E+02 -0.49594248105E+02  0.91316939451E+02  0.00000000000E+00 0.  1.
         21    1    1    2  504  502  0.11127932160E+03 -0.19022955742E+03 -0.79230230495E+03  0.82238270553E+03  0.00000000000E+00 0. -1.
         21    1    1    2  505  504 -0.39018493620E+02  0.82702654454E+01  0.10397851103E+03  0.11136593236E+03  0.00000000000E+00 0.  1.
          1    1    1    2  501    0 -0.12415994328E+03  0.12551750057E+03  0.16142045374E+04  0.16238308481E+04  0.00000000000E+00 0.  1.
<scales pt_clust_3="76.42095" pt_clust_4="14000.00000" pt_clust_5="39.88534" pt_clust_6="210.19800"></scales>
<clustering>
<clus scale="   39.885">  1  5  2 -1</clus>
<clus scale="   76.421">  2  3  1 -1</clus>
<clus scale="  210.198">  1  6  2 -1</clus>
<clus scale="   76.421">  2  3  1 -1</clus>
</clustering>
</event>
<event>
 6    0  0.1361744E+002  0.1240185E+03  0.7546771E-02  0.1236611E+00
          4   -1    0    0  504    0 -0.00000000000E+00  0.00000000000E+00  0.37716677293E+03  0.37716677293E+03  0.00000000000E+00 0. -1.
         21   -1    0    0  501  502  0.00000000000E+00 -0.00000000000E+00 -0.55341536086E+03  0.55341536086E+03  0.00000000000E+00 0.  1.
         21    1    1    2  503  505 -0.75421347050E+02 -0.19064885820E+02 -0.27767192975E+03  0.28836357265E+03  0.00000000000E+00 0.  1.
         21    1    1    2  504  503 -0.31174225960E+02 -0.15774147345E+02  0.30966285812E+02  0.46685832387E+02  0.00000000000E+00 0. -1.
         21    1    1    2  505  502 -0.38384366195E+02  0.18578798981E+02 -0.24462534590E+03  0.24831450057E+03  0.00000000000E+00 0.  1.
          4    1    1    2  501    0  0.14497993920E+03  0.16260234184E+02  0.31508240190E+03  0.34721822818E+03  0.00000000000E+00 0. -1.
<scales pt_clust_3="35.25523" pt_clust_4="34.93789" pt_clust_5="35.25523" pt_clust_6="114.47117"></scales>
<clustering>
<clus scale="   34.938">  1  4  2 -1</clus>
<clus scale="   35.255">  3  5 -1 -1</clus>
<clus scale="  114.471">  1  6  2 -1</clus>
<clus scale="  124.018">  2  3  1 -1</clus>
</clustering>
</event>
<event>
 6    0  0.1361744E+002  0.8247414E+02  0.7546771E-02  0.1322173E+00
          4   -1    0    0  504    0 -0.00000000000E+00  0.00000000000E+00  0.44500494835E+02  0.44500494835E+02  0.00000000000E+00 0.  1.
         21   -1    0    0  503  502  0.00000000000E+00 -0.00000000000E+00 -0.50714001819E+03  0.50714001819E+03  0.00000000000E+00 0.  1.
         21    1    1    2  503  501 -0.18746808205E+01  0.69755014590E+02 -0.21463521194E+03  0.22569348837E+03  0.00000000000E+00 0.  1.
         21    1    1    2  504  505  0.15313798406E+02  0.30265143369E+02 -0.18662664935E+02  0.38714162618E+02  0.00000000000E+00 0. -1.
         21    1    1    2  505  502 -0.31910355304E+02  0.27837960611E+02 -0.41787532334E+02  0.59493030560E+02  0.00000000000E+00 0.  1.
          4    1    1    2  501    0  0.18471237719E+02 -0.12785811857E+03 -0.18755411414E+03  0.22773983147E+03  0.00000000000E+00 0.  1.
<scales pt_clust_3="82.47414" pt_clust_4="33.91889" pt_clust_5="45.28595" pt_clust_6="14000.00000"></scales>
<clustering>
<clus scale="   33.919">  1  4  2 -1</clus>
<clus scale="   45.286">  1  5  2 -1</clus>
<clus scale="   82.474">  2  3  1 -1</clus>
<clus scale="   82.474">  2  3  1 -1</clus>
</clustering>
</event>
