<event>
 5    0  0.5576108E-005  0.3610680E+03  0.7546771E-02  0.1058162E+00
         21   -1    0    0  502  501  0.00000000000E+00  0.00000000000E+00  0.37743777545E+03  0.37743777545E+03  0.00000000000E+00 0. -1.
         21   -1    0    0  501  502 -0.00000000000E+00 -0.00000000000E+00 -0.34540826364E+03  0.34540826364E+03  0.00000000000E+00 0. -1.
         25    1    1    2    0    0  0.52852511524E+02 -0.61090263686E+01  0.77160359891E+02  0.15623517311E+03  0.12500000000E+03 0.  0.
         25    1    1    2    0    0 -0.20386660281E+03  0.13214426071E+01 -0.20392599393E+03  0.31428354865E+03  0.12500000000E+03 0.  0.
         25    1    1    2    0    0  0.15101409129E+03  0.47875837616E+01  0.15879514585E+03  0.25232731733E+03  0.12500000000E+03 0.  0.
</event>
<event>
 5    0  0.5576108E-005  0.2665722E+03  0.7546771E-02  0.1103258E+00
         21   -1    0    0  502  501  0.00000000000E+00  0.00000000000E+00  0.49826615598E+03  0.49826615598E+03  0.00000000000E+00 0.  1.
         21   -1    0    0  501  502 -0.00000000000E+00 -0.00000000000E+00 -0.14261607266E+03  0.14261607266E+03  0.00000000000E+00 0.  1.
         25    1    1    2    0    0 -0.80858055498E+02  0.45331692107E+02  0.15910314349E+03  0.22255740320E+03  0.12500000000E+03 0.  0.
         25    1    1    2    0    0  0.13548961125E+03  0.19529013635E+02  0.20728030337E+02  0.18653007364E+03  0.12500000000E+03 0.  0.
         25    1    1    2    0    0 -0.54631555747E+02 -0.64860705742E+02  0.17581890949E+03  0.23179475181E+03  0.12500000000E+03 0.  0.
</event>
<event>
 5    0  0.5576108E-005  0.3025785E+03  0.7546771E-02  0.1083959E+00
         21   -1    0    0  502  501  0.00000000000E+00  0.00000000000E+00  0.14008877967E+03  0.14008877967E+03  0.00000000000E+00 0. -1.
         21   -1    0    0  501  502 -0.00000000000E+00 -0.00000000000E+00 -0.65354111035E+03  0.65354111035E+03  0.00000000000E+00 0. -1.
         25    1    1    2    0    0 -0.10158128641E+03  0.11364344728E+03 -0.65204107426E+02  0.20762987859E+03  0.12500000000E+03 0.  0.
         25    1    1    2    0    0  0.56008091130E+02  0.67477854241E+02 -0.18438590089E+03  0.23940202073E+03  0.12500000000E+03 0.  0.
         25    1    1    2    0    0  0.45573195280E+02 -0.18112130152E+03 -0.26386232237E+03  0.34659799070E+03  0.12500000000E+03 0.  0.
</event>
<event>
 5    0  0.5576108E-005  0.3718667E+03  0.7546771E-02  0.1053981E+00
         21   -1    0    0  502  501  0.00000000000E+00  0.00000000000E+00  0.20693283997E+03  0.20693283997E+03  0.00000000000E+00 0. -1.
         21   -1    0    0  501  502 -0.00000000000E+00 -0.00000000000E+00 -0.66825969809E+03  0.66825969809E+03  0.00000000000E+00 0. -1.
         25    1    1    2    0    0 -0.34690073694E+02  0.14286586789E+03 -0.18120273467E+03  0.26471397483E+03  0.12500000000E+03 0.  0.
         25    1    1    2    0    0  0.17675391986E+03 -0.14397186703E+03  0.14416223736E+02  0.26038946635E+03  0.12500000000E+03 0.  0.
         25    1    1    2    0    0 -0.14206384617E+03  0.11059991368E+01 -0.29454034720E+03  0.35008909687E+03  0.12500000000E+03 0.  0.
</event>
<event>
 5    0  0.5576108E-005  0.6679875E+03  0.7546771E-02  0.9773600E-01
         21   -1    0    0  502  501  0.00000000000E+00  0.00000000000E+00  0.91713901172E+03  0.91713901172E+03  0.00000000000E+00 0. -1.
         21   -1    0    0  501  502 -0.00000000000E+00 -0.00000000000E+00 -0.48652086910E+03  0.48652086910E+03  0.00000000000E+00 0. -1.
         25    1    1    2    0    0  0.18743091960E+03  0.27882499018E+03  0.74465534977E+03  0.82644438089E+03  0.12500000000E+03 0.  0.
         25    1    1    2    0    0  0.11019837163E+02 -0.10658777971E+03 -0.21293971170E+03  0.26916670004E+03  0.12500000000E+03 0.  0.
         25    1    1    2    0    0 -0.19845075676E+03 -0.17223721046E+03 -0.10109749546E+03  0.30804879989E+03  0.12500000000E+03 0.  0.
</event>
<event>
 5    0  0.5576108E-005  0.2529690E+03  0.7546771E-02  0.1111443E+00
         21   -1    0    0  502  501  0.00000000000E+00  0.00000000000E+00  0.62221708975E+03  0.62221708975E+03  0.00000000000E+00 0. -1.
         21   -1    0    0  501  502 -0.00000000000E+00 -0.00000000000E+00 -0.10284726039E+03  0.10284726039E+03  0.00000000000E+00 0. -1.
         25    1    1    2    0    0  0.33855656372E+02  0.10279281453E+03  0.99594320881E+02  0.19301968018E+03  0.12500000000E+03 0.  0.
         25    1    1    2    0    0 -0.49369019532E+02 -0.37629229266E+02  0.34404348650E+03  0.37127372596E+03  0.12500000000E+03 0.  0.
         25    1    1    2    0    0  0.15513363160E+02 -0.65163585261E+02  0.75732021980E+02  0.16077094400E+03  0.12500000000E+03 0.  0.
</event>
<event>
 5    0  0.5576108E-005  0.2718471E+03  0.7546771E-02  0.1100227E+00
         21   -1    0    0  502  501  0.00000000000E+00  0.00000000000E+00  0.16987857203E+03  0.16987857203E+03  0.00000000000E+00 0. -1.
         21   -1    0    0  501  502 -0.00000000000E+00 -0.00000000000E+00 -0.43502147537E+03  0.43502147537E+03  0.00000000000E+00 0. -1.
         25    1    1    2    0    0 -0.80149800886E+02  0.15476353096E+03 -0.10482527740E+03  0.23872385696E+03  0.12500000000E+03 0.  0.
         25    1    1    2    0    0  0.70999113843E+02 -0.11936929533E+03 -0.44940235386E+02  0.19218357784E+03  0.12500000000E+03 0.  0.
         25    1    1    2    0    0  0.91506870428E+01 -0.35394235631E+02 -0.11537739055E+03  0.17399261260E+03  0.12500000000E+03 0.  0.
</event>
<event>
 5    0  0.5576108E-005  0.2386275E+03  0.7546771E-02  0.1120711E+00
         21   -1    0    0  502  501  0.00000000000E+00  0.00000000000E+00  0.15129571003E+04  0.15129571003E+04  0.00000000000E+00 0. -1.
         21   -1    0    0  501  502 -0.00000000000E+00 -0.00000000000E+00 -0.37636949596E+02  0.37636949596E+02  0.00000000000E+00 0. -1.
         25    1    1    2    0    0 -0.89047187701E+01 -0.37887091529E+01  0.10345051616E+04  0.10420746507E+04  0.12500000000E+03 0.  0.
         25    1    1    2    0    0  0.43884299037E+00  0.69350136288E+01  0.18126469761E+03  0.22029565950E+03  0.12500000000E+03 0.  0.
         25    1    1    2    0    0  0.84658757797E+01 -0.31463044759E+01  0.25955029149E+03  0.28822373965E+03  0.12500000000E+03 0.  0.
</event>
<event>
 5    0  0.5576108E-005  0.2397979E+03  0.7546771E-02  0.1119928E+00
         21   -1    0    0  502  501  0.00000000000E+00  0.00000000000E+00  0.45706307453E+02  0.45706307453E+02  0.00000000000E+00 0.  1.
         21   -1    0    0  501  502 -0.00000000000E+00 -0.00000000000E+00 -0.12580988096E+04  0.12580988096E+04  0.00000000000E+00 0.  1.
         25    1    1    2    0    0  0.94974892204E+02 -0.59929212223E+01 -0.45478961877E+03  0.48115978904E+03  0.12500000000E+03 0.  0.
         25    1    1    2    0    0 -0.12309126571E+03  0.14870336274E+02 -0.30494657843E+03  0.35212214115E+03  0.12500000000E+03 0.  0.
         25    1    1    2    0    0  0.28116373501E+02 -0.88774150521E+01 -0.45265630492E+03  0.47052318682E+03  0.12500000000E+03 0.  0.
</event>
<event>
 5    0  0.5576108E-005  0.2348439E+03  0.7546771E-02  0.1123276E+00
         21   -1    0    0  502  501  0.00000000000E+00  0.00000000000E+00  0.10537728629E+04  0.10537728629E+04  0.00000000000E+00 0.  1.
         21   -1    0    0  501  502 -0.00000000000E+00 -0.00000000000E+00 -0.52337342022E+02  0.52337342022E+02  0.00000000000E+00 0.  1.
         25    1    1    2    0    0  0.70469236527E+02  0.89092737517E+02  0.38516091125E+03  0.42056789788E+03  0.12500000000E+03 0.  0.
         25    1    1    2    0    0  0.43510723387E+01 -0.16041993014E+02  0.17960297420E+03  0.21945046300E+03  0.12500000000E+03 0.  0.
         25    1    1    2    0    0 -0.74820308866E+02 -0.73050744503E+02  0.43667163545E+03  0.46609184406E+03  0.12500000000E+03 0.  0.
</event>
<event>
 5    0  0.5576108E-005  0.4047513E+03  0.7546771E-02  0.1042147E+00
         21   -1    0    0  502  501  0.00000000000E+00  0.00000000000E+00  0.14903947387E+03  0.14903947387E+03  0.00000000000E+00 0.  1.
         21   -1    0    0  501  502 -0.00000000000E+00 -0.00000000000E+00 -0.10991959481E+04  0.10991959481E+04  0.00000000000E+00 0.  1.
         25    1    1    2    0    0 -0.21787265196E+03 -0.27419739478E+03 -0.42085018903E+03  0.56159824197E+03  0.12500000000E+03 0.  0.
         25    1    1    2    0    0  0.13860044836E+03  0.11734435831E+03 -0.29352115503E+03  0.36709596996E+03  0.12500000000E+03 0.  0.
         25    1    1    2    0    0  0.79272203592E+02  0.15685303646E+03 -0.23578513021E+03  0.31954121008E+03  0.12500000000E+03 0.  0.
</event>
<event>
 5    0  0.5576108E-005  0.2095258E+03  0.7546771E-02  0.1141942E+00
         21   -1    0    0  502  501  0.00000000000E+00  0.00000000000E+00  0.22797103621E+03  0.22797103621E+03  0.00000000000E+00 0.  1.
         21   -1    0    0  501  502 -0.00000000000E+00 -0.00000000000E+00 -0.19257291687E+03  0.19257291687E+03  0.00000000000E+00 0.  1.
         25    1    1    2    0    0 -0.12044642268E+02 -0.60163956063E+02 -0.16566057997E+02  0.14022913140E+03  0.12500000000E+03 0.  0.
         25    1    1    2    0    0  0.17289489731E+02  0.78369150442E+01 -0.18017574129E+02  0.12771051903E+03  0.12500000000E+03 0.  0.
         25    1    1    2    0    0 -0.52448474623E+01  0.52327041019E+02  0.69981751468E+02  0.15260430264E+03  0.12500000000E+03 0.  0.
</event>
<event>
 5    0  0.5576108E-005  0.2431842E+03  0.7546771E-02  0.1117690E+00
         21   -1    0    0  502  501  0.00000000000E+00  0.00000000000E+00  0.14802641137E+04  0.14802641137E+04  0.00000000000E+00 0.  1.
         21   -1    0    0  501  502 -0.00000000000E+00 -0.00000000000E+00 -0.39951358048E+02  0.39951358048E+02  0.00000000000E+00 0.  1.
         25    1    1    2    0    0  0.27300247841E+02 -0.60100947205E+02  0.23505555173E+03  0.27428733071E+03  0.12500000000E+03 0.  0.
         25    1    1    2    0    0  0.72475188557E+02  0.24627306323E+01  0.60872570300E+03  0.62564422757E+03  0.12500000000E+03 0.  0.
         25    1    1    2    0    0 -0.99775436398E+02  0.57638216572E+02  0.59653150089E+03  0.62028391344E+03  0.12500000000E+03 0.  0.
</event>
<event>
 5    0  0.5576108E-005  0.2807495E+03  0.7546771E-02  0.1095280E+00
         21   -1    0    0  502  501  0.00000000000E+00  0.00000000000E+00  0.39430669068E+03  0.39430669068E+03  0.00000000000E+00 0. -1.
         21   -1    0    0  501  502 -0.00000000000E+00 -0.00000000000E+00 -0.19989584153E+03  0.19989584153E+03  0.00000000000E+00 0. -1.
         25    1    1    2    0    0  0.66329405138E+02  0.58589573033E+02 -0.47843047082E+01  0.15323256059E+03  0.12500000000E+03 0.  0.
         25    1    1    2    0    0 -0.12898379760E+03  0.23594212729E+02 -0.37264831644E+01  0.18119711254E+03  0.12500000000E+03 0.  0.
         25    1    1    2    0    0  0.62654392460E+02 -0.82183785762E+02  0.20292163703E+03  0.25977285907E+03  0.12500000000E+03 0.  0.
</event>
<event>
 5    0  0.5576108E-005  0.2238817E+03  0.7546771E-02  0.1131022E+00
         21   -1    0    0  502  501  0.00000000000E+00  0.00000000000E+00  0.19097944555E+04  0.19097944555E+04  0.00000000000E+00 0.  1.
         21   -1    0    0  501  502 -0.00000000000E+00 -0.00000000000E+00 -0.26245243774E+02  0.26245243774E+02  0.00000000000E+00 0.  1.
         25    1    1    2    0    0  0.39226833885E+02  0.75445319153E+02  0.56890323533E+03  0.58864813926E+03  0.12500000000E+03 0.  0.
         25    1    1    2    0    0  0.38398397124E+02 -0.32012473539E+02  0.46891962256E+03  0.48786252960E+03  0.12500000000E+03 0.  0.
         25    1    1    2    0    0 -0.77625231009E+02 -0.43432845614E+02  0.84572635386E+03  0.85952903045E+03  0.12500000000E+03 0.  0.
</event>
<event>
 5    0  0.5576108E-005  0.2386852E+03  0.7546771E-02  0.1120672E+00
         21   -1    0    0  502  501  0.00000000000E+00  0.00000000000E+00  0.22808313309E+03  0.22808313309E+03  0.00000000000E+00 0. -1.
         21   -1    0    0  501  502 -0.00000000000E+00 -0.00000000000E+00 -0.24978018977E+03  0.24978018977E+03  0.00000000000E+00 0. -1.
         25    1    1    2    0    0  0.63231268496E+02 -0.53115888968E+02  0.12461028526E+02  0.15033219285E+03  0.12500000000E+03 0.  0.
         25    1    1    2    0    0 -0.63497691148E+02  0.10456401278E+03  0.30744709479E+02  0.17758329513E+03  0.12500000000E+03 0.  0.
         25    1    1    2    0    0  0.26642265173E+00 -0.51448123811E+02 -0.64902794691E+02  0.14994783487E+03  0.12500000000E+03 0.  0.
</event>
<event>
 5    0  0.5576108E-005  0.3122885E+03  0.7546771E-02  0.1079254E+00
         21   -1    0    0  502  501  0.00000000000E+00  0.00000000000E+00  0.77252353518E+02  0.77252353518E+02  0.00000000000E+00 0.  1.
         21   -1    0    0  501  502 -0.00000000000E+00 -0.00000000000E+00 -0.12624098516E+04  0.12624098516E+04  0.00000000000E+00 0.  1.
         25    1    1    2    0    0  0.19041849940E+02  0.54183389501E+02 -0.53460516759E+03  0.55202003311E+03  0.12500000000E+03 0.  0.
         25    1    1    2    0    0 -0.11158623498E+03  0.58612990333E+01 -0.66682927436E+02  0.18043684623E+03  0.12500000000E+03 0.  0.
         25    1    1    2    0    0  0.92544385045E+02 -0.60044688535E+02 -0.58386940304E+03  0.60720532576E+03  0.12500000000E+03 0.  0.
</event>
<event>
 5    0  0.5576108E-005  0.2659984E+03  0.7546771E-02  0.1103592E+00
         21   -1    0    0  502  501  0.00000000000E+00  0.00000000000E+00  0.15953715826E+03  0.15953715826E+03  0.00000000000E+00 0. -1.
         21   -1    0    0  501  502 -0.00000000000E+00 -0.00000000000E+00 -0.44350266557E+03  0.44350266557E+03  0.00000000000E+00 0. -1.
         25    1    1    2    0    0  0.38712880492E+02 -0.20023347780E+02 -0.81876184779E+02  0.15565452517E+03  0.12500000000E+03 0.  0.
         25    1    1    2    0    0 -0.14378670025E+03  0.10154827089E+03 -0.96019874329E+02  0.23628686539E+03  0.12500000000E+03 0.  0.
         25    1    1    2    0    0  0.10507381976E+03 -0.81524923110E+02 -0.10606944821E+03  0.21109843327E+03  0.12500000000E+03 0.  0.
</event>
<event>
 5    0  0.5576108E-005  0.2900391E+03  0.7546771E-02  0.1090329E+00
         21   -1    0    0  502  501  0.00000000000E+00  0.00000000000E+00  0.46628746695E+03  0.46628746695E+03  0.00000000000E+00 0. -1.
         21   -1    0    0  501  502 -0.00000000000E+00 -0.00000000000E+00 -0.18040946393E+03  0.18040946393E+03  0.00000000000E+00 0. -1.
         25    1    1    2    0    0  0.60147044414E+02  0.13809362392E+03  0.75171554805E+02  0.20967422009E+03  0.12500000000E+03 0.  0.
         25    1    1    2    0    0 -0.14312498561E+03 -0.52063034608E+02  0.55636167635E+02  0.20473325140E+03  0.12500000000E+03 0.  0.
         25    1    1    2    0    0  0.82977941196E+02 -0.86030589315E+02  0.15507028058E+03  0.23228945939E+03  0.12500000000E+03 0.  0.
</event>
<event>
 5    0  0.5576108E-005  0.2977846E+03  0.7546771E-02  0.1086353E+00
         21   -1    0    0  502  501  0.00000000000E+00  0.00000000000E+00  0.58211057427E+02  0.58211057427E+02  0.00000000000E+00 0.  1.
         21   -1    0    0  501  502 -0.00000000000E+00 -0.00000000000E+00 -0.15233471852E+04  0.15233471852E+04  0.00000000000E+00 0.  1.
         25    1    1    2    0    0 -0.12264028603E+03 -0.43686664326E+02 -0.75908252495E+03  0.78024383630E+03  0.12500000000E+03 0.  0.
         25    1    1    2    0    0  0.12237176253E+03 -0.41002977270E+02 -0.57148165633E+03  0.59905957628E+03  0.12500000000E+03 0.  0.
         25    1    1    2    0    0  0.26852350119E+00  0.84689641596E+02 -0.13457194652E+03  0.20225483007E+03  0.12500000000E+03 0.  0.
</event>
<event>
 5    0  0.6052296E-005  0.2661370E+03  0.7546771E-02  0.1103511E+00
         21   -1    0    0  502  501  0.00000000000E+00  0.00000000000E+00  0.75400232150E+02  0.75400232150E+02  0.00000000000E+00 0.  1.
         21   -1    0    0  501  502 -0.00000000000E+00 -0.00000000000E+00 -0.93937217159E+03  0.93937217159E+03  0.00000000000E+00 0.  1.
         25    1    1    2    0    0 -0.13184073779E+03 -0.15484423310E+02 -0.28047995063E+03  0.33453811474E+03  0.12500000000E+03 0.  0.
         25    1    1    2    0    0 -0.33160902098E+02 -0.11489362544E+02 -0.31067136327E+03  0.33670958827E+03  0.12500000000E+03 0.  0.
         25    1    1    2    0    0  0.16500163989E+03  0.26973785854E+02 -0.27282062554E+03  0.34352470073E+03  0.12500000000E+03 0.  0.
</event>
<event>
 5    0  0.5576108E-005  0.2375549E+03  0.7546771E-02  0.1121432E+00
         21   -1    0    0  502  501  0.00000000000E+00  0.00000000000E+00  0.14284583967E+03  0.14284583967E+03  0.00000000000E+00 0.  1.
         21   -1    0    0  501  502 -0.00000000000E+00 -0.00000000000E+00 -0.39505758913E+03  0.39505758913E+03  0.00000000000E+00 0.  1.
         25    1    1    2    0    0  0.28628049757E+02 -0.41349628200E+02  0.22960562449E+02  0.13668044635E+03  0.12500000000E+03 0.  0.
         25    1    1    2    0    0 -0.60261182868E+01 -0.22945336290E+02 -0.20793708516E+03  0.24377373514E+03  0.12500000000E+03 0.  0.
         25    1    1    2    0    0 -0.22601931470E+02  0.64294964490E+02 -0.67235226751E+02  0.15744924732E+03  0.12500000000E+03 0.  0.
</event>
<event>
 5    0  0.5576108E-005  0.4337661E+03  0.7546771E-02  0.1032677E+00
         21   -1    0    0  502  501  0.00000000000E+00  0.00000000000E+00  0.55703328638E+03  0.55703328638E+03  0.00000000000E+00 0.  1.
         21   -1    0    0  501  502 -0.00000000000E+00 -0.00000000000E+00 -0.33777702948E+03  0.33777702948E+03  0.00000000000E+00 0.  1.
         25    1    1    2    0    0  0.24841122715E+03 -0.15027515793E+03  0.86712974266E+02  0.32777263579E+03  0.12500000000E+03 0.  0.
         25    1    1    2    0    0 -0.30365313891E+03  0.72293713745E+02  0.20500660675E+03  0.39380746390E+03  0.12500000000E+03 0.  0.
         25    1    1    2    0    0  0.55241911751E+02  0.77981444181E+02 -0.72463324125E+02  0.17323021617E+03  0.12500000000E+03 0.  0.
</event>
<event>
 5    0  0.5576108E-005  0.2753088E+03  0.7546771E-02  0.1098279E+00
         21   -1    0    0  502  501  0.00000000000E+00  0.00000000000E+00  0.32349394659E+03  0.32349394659E+03  0.00000000000E+00 0. -1.
         21   -1    0    0  501  502 -0.00000000000E+00 -0.00000000000E+00 -0.23430086724E+03  0.23430086724E+03  0.00000000000E+00 0. -1.
         25    1    1    2    0    0 -0.86036663657E+02  0.32583832498E+02 -0.92319292309E+02  0.18058755596E+03  0.12500000000E+03 0.  0.
         25    1    1    2    0    0 -0.45433192677E+02  0.19354681002E+01  0.12882833026E+03  0.18517467352E+03  0.12500000000E+03 0.  0.
         25    1    1    2    0    0  0.13146985633E+03 -0.34519300598E+02  0.52684041396E+02  0.19203258436E+03  0.12500000000E+03 0.  0.
</event>
<event>
 5    0  0.5576108E-005  0.2469339E+03  0.7546771E-02  0.1115258E+00
         21   -1    0    0  502  501  0.00000000000E+00  0.00000000000E+00  0.12453835620E+03  0.12453835620E+03  0.00000000000E+00 0. -1.
         21   -1    0    0  501  502 -0.00000000000E+00 -0.00000000000E+00 -0.48961904072E+03  0.48961904072E+03  0.00000000000E+00 0. -1.
         25    1    1    2    0    0  0.69671207616E+02 -0.27536734781E+02 -0.66316482775E+01  0.14588121089E+03  0.12500000000E+03 0.  0.
         25    1    1    2    0    0  0.33511936027E+02  0.46166739030E+02 -0.14728110501E+03  0.20142279301E+03  0.12500000000E+03 0.  0.
         25    1    1    2    0    0 -0.10318314364E+03 -0.18630004249E+02 -0.21116793122E+03  0.26685339302E+03  0.12500000000E+03 0.  0.
</event>
<event>
 5    0  0.5743073E-005  0.3464932E+03  0.7546771E-02  0.1064064E+00
         21   -1    0    0  502  501  0.00000000000E+00  0.00000000000E+00  0.22102420593E+03  0.22102420593E+03  0.00000000000E+00 0. -1.
         21   -1    0    0  501  502 -0.00000000000E+00 -0.00000000000E+00 -0.54318735219E+03  0.54318735219E+03  0.00000000000E+00 0. -1.
         25    1    1    2    0    0  0.18903063982E+03 -0.75633468532E+02 -0.86435552895E+02  0.25406516715E+03  0.12500000000E+03 0.  0.
         25    1    1    2    0    0 -0.46280607396E+02 -0.89274106726E+02 -0.19974661976E+03  0.25619420926E+03  0.12500000000E+03 0.  0.
         25    1    1    2    0    0 -0.14275003243E+03  0.16490757526E+03 -0.35980973603E+02  0.25395218171E+03  0.12500000000E+03 0.  0.
</event>
<event>
 5    0  0.5576108E-005  0.3546063E+03  0.7546771E-02  0.1060740E+00
         21   -1    0    0  502  501  0.00000000000E+00  0.00000000000E+00  0.12756760071E+03  0.12756760071E+03  0.00000000000E+00 0.  1.
         21   -1    0    0  501  502 -0.00000000000E+00 -0.00000000000E+00 -0.98571738599E+03  0.98571738599E+03  0.00000000000E+00 0.  1.
         25    1    1    2    0    0  0.94961139033E+02 -0.54335888368E+02 -0.34735121976E+03  0.38502970867E+03  0.12500000000E+03 0.  0.
         25    1    1    2    0    0  0.13494007530E+03  0.47937529224E+01 -0.39904660273E+03  0.43942575612E+03  0.12500000000E+03 0.  0.
         25    1    1    2    0    0 -0.22990121434E+03  0.49542135446E+02 -0.11175196279E+03  0.28882952191E+03  0.12500000000E+03 0.  0.
</event>
<event>
 5    0  0.5576108E-005  0.3315634E+03  0.7546771E-02  0.1070447E+00
         21   -1    0    0  502  501  0.00000000000E+00  0.00000000000E+00  0.35557675347E+03  0.35557675347E+03  0.00000000000E+00 0.  1.
         21   -1    0    0  501  502 -0.00000000000E+00 -0.00000000000E+00 -0.30917177626E+03  0.30917177626E+03  0.00000000000E+00 0.  1.
         25    1    1    2    0    0 -0.50478758491E+02 -0.14648146918E+02  0.14757913790E+03  0.20041775174E+03  0.12500000000E+03 0.  0.
         25    1    1    2    0    0  0.20943806271E+02  0.13123652628E+03  0.92312515270E+02  0.20447070530E+03  0.12500000000E+03 0.  0.
         25    1    1    2    0    0  0.29534952220E+02 -0.11658837936E+03 -0.19348667596E+03  0.25986007269E+03  0.12500000000E+03 0.  0.
</event>
<event>
 5    0  0.5576108E-005  0.2921088E+03  0.7546771E-02  0.1089253E+00
         21   -1    0    0  502  501  0.00000000000E+00  0.00000000000E+00  0.76293154742E+02  0.76293154742E+02  0.00000000000E+00 0. -1.
         21   -1    0    0  501  502 -0.00000000000E+00 -0.00000000000E+00 -0.11184168076E+04  0.11184168076E+04  0.00000000000E+00 0. -1.
         25    1    1    2    0    0  0.27683106823E+01  0.88473608442E+02 -0.92701398528E+02  0.17903572890E+03  0.12500000000E+03 0.  0.
         25    1    1    2    0    0  0.47220037739E+02 -0.40655351236E+01 -0.74427937942E+03  0.75618982747E+03  0.12500000000E+03 0.  0.
         25    1    1    2    0    0 -0.49988348422E+02 -0.84408073318E+02 -0.20514287495E+03  0.25948440601E+03  0.12500000000E+03 0.  0.
</event>
<event>
 5    0  0.5576108E-005  0.3440293E+03  0.7546771E-02  0.1065093E+00
         21   -1    0    0  502  501  0.00000000000E+00  0.00000000000E+00  0.59041204846E+02  0.59041204846E+02  0.00000000000E+00 0. -1.
         21   -1    0    0  501  502 -0.00000000000E+00 -0.00000000000E+00 -0.20046367658E+04  0.20046367658E+04  0.00000000000E+00 0. -1.
         25    1    1    2    0    0 -0.47210126210E+02  0.34250351979E+02 -0.42595341379E+03  0.44773116191E+03  0.12500000000E+03 0.  0.
         25    1    1    2    0    0 -0.65122417151E+02  0.20984145668E+03 -0.72974808215E+03  0.77228986110E+03  0.12500000000E+03 0.  0.
         25    1    1    2    0    0  0.11233254336E+03 -0.24409180865E+03 -0.78989406504E+03  0.84365694766E+03  0.12500000000E+03 0.  0.
</event>
<event>
 5    0  0.5576108E-005  0.2398949E+03  0.7546771E-02  0.1119863E+00
         21   -1    0    0  502  501  0.00000000000E+00  0.00000000000E+00  0.30462635612E+02  0.30462635612E+02  0.00000000000E+00 0. -1.
         21   -1    0    0  501  502 -0.00000000000E+00 -0.00000000000E+00 -0.18891847525E+04  0.18891847525E+04  0.00000000000E+00 0. -1.
         25    1    1    2    0    0 -0.71035781919E+02 -0.59672639676E+02 -0.50534512219E+03  0.52877745674E+03  0.12500000000E+03 0.  0.
         25    1    1    2    0    0  0.10069517905E+03  0.72616110603E+02 -0.56011962423E+03  0.58717255731E+03  0.12500000000E+03 0.  0.
         25    1    1    2    0    0 -0.29659397131E+02 -0.12943470927E+02 -0.79325737050E+03  0.80369737410E+03  0.12500000000E+03 0.  0.
</event>
<event>
 5    0  0.5576108E-005  0.3154671E+03  0.7546771E-02  0.1077755E+00
         21   -1    0    0  502  501  0.00000000000E+00  0.00000000000E+00  0.25001063182E+03  0.25001063182E+03  0.00000000000E+00 0.  1.
         21   -1    0    0  501  502 -0.00000000000E+00 -0.00000000000E+00 -0.39806115443E+03  0.39806115443E+03  0.00000000000E+00 0.  1.
         25    1    1    2    0    0 -0.32814279585E+01 -0.31161386798E+02 -0.55960358182E+01  0.12898881895E+03  0.12500000000E+03 0.  0.
         25    1    1    2    0    0  0.15131926827E+03  0.15874587975E+03 -0.11520242148E+02  0.25269644095E+03  0.12500000000E+03 0.  0.
         25    1    1    2    0    0 -0.14803784031E+03 -0.12758449295E+03 -0.13093424463E+03  0.26638652636E+03  0.12500000000E+03 0.  0.
</event>
<event>
 5    0  0.5576108E-005  0.3073082E+03  0.7546771E-02  0.1081643E+00
         21   -1    0    0  502  501  0.00000000000E+00  0.00000000000E+00  0.19159628187E+03  0.19159628187E+03  0.00000000000E+00 0. -1.
         21   -1    0    0  501  502 -0.00000000000E+00 -0.00000000000E+00 -0.49290268647E+03  0.49290268647E+03  0.00000000000E+00 0. -1.
         25    1    1    2    0    0 -0.20799819685E+03 -0.36936789845E+02 -0.18198441321E+03  0.30556652792E+03  0.12500000000E+03 0.  0.
         25    1    1    2    0    0  0.18341557157E+03  0.55777105892E+02 -0.95404474450E+02  0.24795034015E+03  0.12500000000E+03 0.  0.
         25    1    1    2    0    0  0.24582625286E+02 -0.18840316047E+02 -0.23917516940E+02  0.13098210027E+03  0.12500000000E+03 0.  0.
</event>
<event>
 5    0  0.6194626E-005  0.3184914E+03  0.7546771E-02  0.1076346E+00
         21   -1    0    0  502  501  0.00000000000E+00  0.00000000000E+00  0.17206988904E+03  0.17206988904E+03  0.00000000000E+00 0.  1.
         21   -1    0    0  501  502 -0.00000000000E+00 -0.00000000000E+00 -0.58950904933E+03  0.58950904933E+03  0.00000000000E+00 0.  1.
         25    1    1    2    0    0  0.20065970325E+03  0.76520750428E+02 -0.10929160214E+03  0.27145790844E+03  0.12500000000E+03 0.  0.
         25    1    1    2    0    0 -0.15246564638E+03  0.20332162049E+02 -0.93379246576E+02  0.21909781795E+03  0.12500000000E+03 0.  0.
         25    1    1    2    0    0 -0.48194056872E+02 -0.96852912477E+02 -0.21476831158E+03  0.27102321198E+03  0.12500000000E+03 0.  0.
</event>
<event>
 5    0  0.5576108E-005  0.2490984E+03  0.7546771E-02  0.1113876E+00
         21   -1    0    0  502  501  0.00000000000E+00  0.00000000000E+00  0.14237965073E+04  0.14237965073E+04  0.00000000000E+00 0. -1.
         21   -1    0    0  501  502 -0.00000000000E+00 -0.00000000000E+00 -0.43580676049E+02  0.43580676049E+02  0.00000000000E+00 0. -1.
         25    1    1    2    0    0  0.10098618972E+03 -0.12056131332E+02  0.45032278432E+03  0.47828774906E+03  0.12500000000E+03 0.  0.
         25    1    1    2    0    0 -0.18920947288E+02  0.19921734454E+02  0.16059891455E+03  0.20535795360E+03  0.12500000000E+03 0.  0.
         25    1    1    2    0    0 -0.82065242431E+02 -0.78656031216E+01  0.76929413236E+03  0.78373148068E+03  0.12500000000E+03 0.  0.
</event>
<event>
 5    0  0.5576108E-005  0.2937373E+03  0.7546771E-02  0.1088414E+00
         21   -1    0    0  502  501  0.00000000000E+00  0.00000000000E+00  0.92364856611E+02  0.92364856611E+02  0.00000000000E+00 0. -1.
         21   -1    0    0  501  502 -0.00000000000E+00 -0.00000000000E+00 -0.93413889632E+03  0.93413889632E+03  0.00000000000E+00 0. -1.
         25    1    1    2    0    0  0.88732092132E+02 -0.13420602298E+03 -0.29033324972E+03  0.35468723782E+03  0.12500000000E+03 0.  0.
         25    1    1    2    0    0 -0.67180665021E+02  0.17974778205E+03 -0.23630082644E+03  0.32906775515E+03  0.12500000000E+03 0.  0.
         25    1    1    2    0    0 -0.21551427111E+02 -0.45541759070E+02 -0.31513996355E+03  0.34274875996E+03  0.12500000000E+03 0.  0.
</event>
<event>
 5    0  0.5576108E-005  0.5166026E+03  0.7546771E-02  0.1009534E+00
         21   -1    0    0  502  501  0.00000000000E+00  0.00000000000E+00  0.51591690021E+03  0.51591690021E+03  0.00000000000E+00 0. -1.
         21   -1    0    0  501  502 -0.00000000000E+00 -0.00000000000E+00 -0.51728928203E+03  0.51728928203E+03  0.00000000000E+00 0. -1.
         25    1    1    2    0    0  0.11408401281E+01 -0.10943095356E+03 -0.19863663945E+03  0.25895549742E+03  0.12500000000E+03 0.  0.
         25    1    1    2    0    0  0.98841041125E+02  0.32678820542E+03  0.31376890532E+03  0.48024577932E+03  0.12500000000E+03 0.  0.
         25    1    1    2    0    0 -0.99981881253E+02 -0.21735725186E+03 -0.11650464769E+03  0.29400490549E+03  0.12500000000E+03 0.  0.
</event>
<event>
 5    0  0.5576108E-005  0.3364364E+03  0.7546771E-02  0.1068324E+00
         21   -1    0    0  502  501  0.00000000000E+00  0.00000000000E+00  0.20993638027E+03  0.20993638027E+03  0.00000000000E+00 0.  1.
         21   -1    0    0  501  502 -0.00000000000E+00 -0.00000000000E+00 -0.53916069902E+03  0.53916069902E+03  0.00000000000E+00 0.  1.
         25    1    1    2    0    0  0.34782672383E+01 -0.62169652796E+02 -0.80402964699E+02  0.16114217575E+03  0.12500000000E+03 0.  0.
         25    1    1    2    0    0  0.21483225495E+03 -0.24881305629E+02 -0.47669379238E+02  0.25430168473E+03  0.12500000000E+03 0.  0.
         25    1    1    2    0    0 -0.21831052219E+03  0.87050958425E+02 -0.20115197481E+03  0.33365321882E+03  0.12500000000E+03 0.  0.
</event>
<event>
 5    0  0.5576108E-005  0.3077893E+03  0.7546771E-02  0.1081410E+00
         21   -1    0    0  502  501  0.00000000000E+00  0.00000000000E+00  0.10279790448E+03  0.10279790448E+03  0.00000000000E+00 0. -1.
         21   -1    0    0  501  502 -0.00000000000E+00 -0.00000000000E+00 -0.92155812449E+03  0.92155812449E+03  0.00000000000E+00 0. -1.
         25    1    1    2    0    0  0.13981499782E+02  0.13679949742E+03 -0.15171312417E+03  0.23989884718E+03  0.12500000000E+03 0.  0.
         25    1    1    2    0    0 -0.48143764187E+01 -0.99588097305E+02 -0.72248708534E+02  0.17545895027E+03  0.12500000000E+03 0.  0.
         25    1    1    2    0    0 -0.91671233628E+01 -0.37211400115E+02 -0.59479838731E+03  0.60899823152E+03  0.12500000000E+03 0.  0.
</event>
<event>
 5    0  0.5576108E-005  0.2887169E+03  0.7546771E-02  0.1091021E+00
         21   -1    0    0  502  501  0.00000000000E+00  0.00000000000E+00  0.15075369258E+04  0.15075369258E+04  0.00000000000E+00 0.  1.
         21   -1    0    0  501  502 -0.00000000000E+00 -0.00000000000E+00 -0.55293810054E+02  0.55293810054E+02  0.00000000000E+00 0.  1.
         25    1    1    2    0    0  0.89215602192E+02 -0.90812910082E+02  0.34969635815E+03  0.39257986603E+03  0.12500000000E+03 0.  0.
         25    1    1    2    0    0 -0.12215144702E+03  0.85896584982E+01  0.25686450204E+03  0.31080400681E+03  0.12500000000E+03 0.  0.
         25    1    1    2    0    0  0.32935844825E+02  0.82223251583E+02  0.84568225560E+03  0.85944686305E+03  0.12500000000E+03 0.  0.
</event>
<event>
 5    0  0.5576108E-005  0.2665734E+03  0.7546771E-02  0.1103257E+00
         21   -1    0    0  502  501  0.00000000000E+00  0.00000000000E+00  0.22337398838E+04  0.22337398838E+04  0.00000000000E+00 0.  1.
         21   -1    0    0  501  502 -0.00000000000E+00 -0.00000000000E+00 -0.31812726571E+02  0.31812726571E+02  0.00000000000E+00 0.  1.
         25    1    1    2    0    0  0.19583758920E+01 -0.10550370544E+03  0.38247650197E+03  0.41599055477E+03  0.12500000000E+03 0.  0.
         25    1    1    2    0    0 -0.27652626540E+02  0.66541337268E+02  0.42667652638E+03  0.45041122930E+03  0.12500000000E+03 0.  0.
         25    1    1    2    0    0  0.25694250648E+02  0.38962368175E+02  0.13927741289E+04  0.13991508263E+04  0.12500000000E+03 0.  0.
</event>
<event>
 5    0  0.5576108E-005  0.3001315E+03  0.7546771E-02  0.1085175E+00
         21   -1    0    0  502  501  0.00000000000E+00  0.00000000000E+00  0.61971861215E+03  0.61971861215E+03  0.00000000000E+00 0. -1.
         21   -1    0    0  501  502 -0.00000000000E+00 -0.00000000000E+00 -0.14535458149E+03  0.14535458149E+03  0.00000000000E+00 0. -1.
         25    1    1    2    0    0 -0.11090860176E+02  0.71879026787E+02  0.25006130184E+03  0.28886892590E+03  0.12500000000E+03 0.  0.
         25    1    1    2    0    0 -0.12400994256E+03  0.68141723174E+02  0.10163036480E+03  0.21441896218E+03  0.12500000000E+03 0.  0.
         25    1    1    2    0    0  0.13510080274E+03 -0.14002074996E+03  0.12267236402E+03  0.26178530557E+03  0.12500000000E+03 0.  0.
</event>
<event>
 5    0  0.5576108E-005  0.4832752E+03  0.7546771E-02  0.1018239E+00
         21   -1    0    0  502  501  0.00000000000E+00  0.00000000000E+00  0.27267498495E+03  0.27267498495E+03  0.00000000000E+00 0.  1.
         21   -1    0    0  501  502 -0.00000000000E+00 -0.00000000000E+00 -0.85653240716E+03  0.85653240716E+03  0.00000000000E+00 0.  1.
         25    1    1    2    0    0  0.22119146006E+03 -0.35235932926E+03 -0.33234753410E+03  0.54695762390E+03  0.12500000000E+03 0.  0.
         25    1    1    2    0    0 -0.29931286145E+02  0.59593965666E+02 -0.12783862380E+03  0.19082724221E+03  0.12500000000E+03 0.  0.
         25    1    1    2    0    0 -0.19126017392E+03  0.29276536359E+03 -0.12367126432E+03  0.39142252600E+03  0.12500000000E+03 0.  0.
</event>
<event>
 5    0  0.5576108E-005  0.4030987E+03  0.7546771E-02  0.1042712E+00
         21   -1    0    0  502  501  0.00000000000E+00  0.00000000000E+00  0.74934108051E+03  0.74934108051E+03  0.00000000000E+00 0. -1.
         21   -1    0    0  501  502 -0.00000000000E+00 -0.00000000000E+00 -0.21684196105E+03  0.21684196105E+03  0.00000000000E+00 0. -1.
         25    1    1    2    0    0  0.83015042732E+01  0.16873985687E+03  0.94341115000E+02  0.23036340909E+03  0.12500000000E+03 0.  0.
         25    1    1    2    0    0 -0.19242794253E+03 -0.42904407836E+02  0.41875183506E+03  0.47942403011E+03  0.12500000000E+03 0.  0.
         25    1    1    2    0    0  0.18412643826E+03 -0.12583544903E+03  0.19406169394E+02  0.25639560236E+03  0.12500000000E+03 0.  0.
</event>
<event>
 5    0  0.5576108E-005  0.2846636E+03  0.7546771E-02  0.1093169E+00
         21   -1    0    0  502  501  0.00000000000E+00  0.00000000000E+00  0.10950188860E+03  0.10950188860E+03  0.00000000000E+00 0.  1.
         21   -1    0    0  501  502 -0.00000000000E+00 -0.00000000000E+00 -0.74001772691E+03  0.74001772691E+03  0.00000000000E+00 0.  1.
         25    1    1    2    0    0  0.14019251777E+03  0.17571888224E+02 -0.25876792067E+03  0.32023202535E+03  0.12500000000E+03 0.  0.
         25    1    1    2    0    0 -0.15112947737E+03 -0.98056992355E+02 -0.27438512639E+03  0.35123708555E+03  0.12500000000E+03 0.  0.
         25    1    1    2    0    0  0.10936959599E+02  0.80485104130E+02 -0.97362791253E+02  0.17805050461E+03  0.12500000000E+03 0.  0.
</event>
<event>
 5    0  0.5576108E-005  0.2612379E+03  0.7546771E-02  0.1106402E+00
         21   -1    0    0  502  501  0.00000000000E+00  0.00000000000E+00  0.54000097967E+02  0.54000097967E+02  0.00000000000E+00 0.  1.
         21   -1    0    0  501  502 -0.00000000000E+00 -0.00000000000E+00 -0.12637980509E+04  0.12637980509E+04  0.00000000000E+00 0.  1.
         25    1    1    2    0    0  0.66812623916E+02 -0.32849503798E+02 -0.51831126911E+03  0.53834430274E+03  0.12500000000E+03 0.  0.
         25    1    1    2    0    0 -0.15747283740E+03  0.29752516203E+02 -0.43328374351E+03  0.47858406694E+03  0.12500000000E+03 0.  0.
         25    1    1    2    0    0  0.90660213480E+02  0.30969875949E+01 -0.25820294034E+03  0.30086977921E+03  0.12500000000E+03 0.  0.
</event>
<event>
 5    0  0.5576108E-005  0.3306777E+03  0.7546771E-02  0.1070837E+00
         21   -1    0    0  502  501  0.00000000000E+00  0.00000000000E+00  0.14702518462E+03  0.14702518462E+03  0.00000000000E+00 0. -1.
         21   -1    0    0  501  502 -0.00000000000E+00 -0.00000000000E+00 -0.74373476310E+03  0.74373476310E+03  0.00000000000E+00 0. -1.
         25    1    1    2    0    0  0.87341723949E+01 -0.10647719330E+03  0.42288476225E+02  0.16978513975E+03  0.12500000000E+03 0.  0.
         25    1    1    2    0    0 -0.33630020359E+02 -0.40975606845E+02 -0.31259806017E+03  0.34081156941E+03  0.12500000000E+03 0.  0.
         25    1    1    2    0    0  0.24895847964E+02  0.14745280014E+03 -0.32639999454E+03  0.38016323856E+03  0.12500000000E+03 0.  0.
</event>
<event>
 5    0  0.5576108E-005  0.3351652E+03  0.7546771E-02  0.1068874E+00
         21   -1    0    0  502  501  0.00000000000E+00  0.00000000000E+00  0.53332853448E+02  0.53332853448E+02  0.00000000000E+00 0. -1.
         21   -1    0    0  501  502 -0.00000000000E+00 -0.00000000000E+00 -0.21063135866E+04  0.21063135866E+04  0.00000000000E+00 0. -1.
         25    1    1    2    0    0  0.18303997177E+03 -0.34294128287E+02 -0.40639432700E+03  0.46417784040E+03  0.12500000000E+03 0.  0.
         25    1    1    2    0    0 -0.13035617880E+03 -0.99116758542E+02 -0.10215416937E+04  0.10421081024E+04  0.12500000000E+03 0.  0.
         25    1    1    2    0    0 -0.52683792973E+02  0.13341088683E+03 -0.62504471247E+03  0.65336049724E+03  0.12500000000E+03 0.  0.
</event>
<event>
 5    0  0.5613284E-005  0.4014008E+03  0.7546771E-02  0.1043296E+00
         21   -1    0    0  502  501  0.00000000000E+00  0.00000000000E+00  0.22911619317E+03  0.22911619317E+03  0.00000000000E+00 0.  1.
         21   -1    0    0  501  502 -0.00000000000E+00 -0.00000000000E+00 -0.70323535570E+03  0.70323535570E+03  0.00000000000E+00 0.  1.
         25    1    1    2    0    0  0.22538128688E+03 -0.66611629794E+02 -0.47065546034E+02  0.27032202893E+03  0.12500000000E+03 0.  0.
         25    1    1    2    0    0 -0.23634772621E+03 -0.10947770245E+03 -0.26184244380E+03  0.38991291386E+03  0.12500000000E+03 0.  0.
         25    1    1    2    0    0  0.10966439335E+02  0.17608933225E+03 -0.16521117269E+03  0.27211660608E+03  0.12500000000E+03 0.  0.
</event>
<event>
 5    0  0.5576108E-005  0.4290473E+03  0.7546771E-02  0.1034161E+00
         21   -1    0    0  502  501  0.00000000000E+00  0.00000000000E+00  0.15207360937E+03  0.15207360937E+03  0.00000000000E+00 0.  1.
         21   -1    0    0  501  502 -0.00000000000E+00 -0.00000000000E+00 -0.12104770138E+04  0.12104770138E+04  0.00000000000E+00 0. -1.
         25    1    1    2    0    0  0.15023349396E+03  0.42688023420E+02 -0.71375015222E+03  0.74125343159E+03  0.12500000000E+03 0.  0.
         25    1    1    2    0    0  0.14078880160E+03 -0.60091503172E+02 -0.15982836301E+03  0.25417037796E+03  0.12500000000E+03 0.  0.
         25    1    1    2    0    0 -0.29102229556E+03  0.17403479753E+02 -0.18482488920E+03  0.36712681363E+03  0.12500000000E+03 0.  0.
</event>
<event>
 5    0  0.5576108E-005  0.2669937E+03  0.7546771E-02  0.1103013E+00
         21   -1    0    0  502  501  0.00000000000E+00  0.00000000000E+00  0.11141448915E+03  0.11141448915E+03  0.00000000000E+00 0. -1.
         21   -1    0    0  501  502 -0.00000000000E+00 -0.00000000000E+00 -0.63982382127E+03  0.63982382127E+03  0.00000000000E+00 0. -1.
         25    1    1    2    0    0 -0.30071286817E+02 -0.39473120742E+02 -0.15743567078E+03  0.20705892878E+03  0.12500000000E+03 0.  0.
         25    1    1    2    0    0 -0.41925030424E+02  0.11483785831E+03 -0.33442584681E+03  0.37737393774E+03  0.12500000000E+03 0.  0.
         25    1    1    2    0    0  0.71996317241E+02 -0.75364737569E+02 -0.36547814539E+02  0.16680544389E+03  0.12500000000E+03 0.  0.
</event>
<event>
 5    0  0.5576108E-005  0.3600858E+03  0.7546771E-02  0.1058550E+00
         21   -1    0    0  502  501  0.00000000000E+00  0.00000000000E+00  0.10900635792E+03  0.10900635792E+03  0.00000000000E+00 0. -1.
         21   -1    0    0  501  502 -0.00000000000E+00 -0.00000000000E+00 -0.11894885186E+04  0.11894885186E+04  0.00000000000E+00 0. -1.
         25    1    1    2    0    0 -0.27189839050E+02  0.23653953317E+03 -0.30224733323E+03  0.40455987016E+03  0.12500000000E+03 0.  0.
         25    1    1    2    0    0 -0.50312258933E+02 -0.24622331504E+03 -0.60177452525E+03  0.66401417418E+03  0.12500000000E+03 0.  0.
         25    1    1    2    0    0  0.77502097983E+02  0.96837818682E+01 -0.17646030221E+03  0.22992083220E+03  0.12500000000E+03 0.  0.
</event>
<event>
 5    0  0.6358118E-005  0.2783026E+03  0.7546771E-02  0.1096620E+00
         21   -1    0    0  502  501  0.00000000000E+00  0.00000000000E+00  0.55526288484E+03  0.55526288484E+03  0.00000000000E+00 0.  1.
         21   -1    0    0  501  502 -0.00000000000E+00 -0.00000000000E+00 -0.13948768866E+03  0.13948768866E+03  0.00000000000E+00 0.  1.
         25    1    1    2    0    0  0.16399365660E+02 -0.47804679399E+02  0.15956165211E+03  0.20889985014E+03  0.12500000000E+03 0.  0.
         25    1    1    2    0    0  0.78230129705E+02  0.10642126273E+03  0.24637660776E+01  0.18186948204E+03  0.12500000000E+03 0.  0.
         25    1    1    2    0    0 -0.94629495365E+02 -0.58616583331E+02  0.25374977800E+03  0.30398124131E+03  0.12500000000E+03 0.  0.
</event>
<event>
 5    0  0.5576108E-005  0.2619158E+03  0.7546771E-02  0.1105998E+00
         21   -1    0    0  502  501  0.00000000000E+00  0.00000000000E+00  0.63446878260E+02  0.63446878260E+02  0.00000000000E+00 0.  1.
         21   -1    0    0  501  502 -0.00000000000E+00 -0.00000000000E+00 -0.10812179283E+04  0.10812179283E+04  0.00000000000E+00 0.  1.
         25    1    1    2    0    0  0.43276467528E+02 -0.11660634292E+03 -0.18266267375E+03  0.25389081164E+03  0.12500000000E+03 0.  0.
         25    1    1    2    0    0  0.23463017068E+02  0.10687859814E+03 -0.40213483678E+03  0.43509881046E+03  0.12500000000E+03 0.  0.
         25    1    1    2    0    0 -0.66739484596E+02  0.97277447779E+01 -0.43297353950E+03  0.45567518446E+03  0.12500000000E+03 0.  0.
</event>
<event>
 5    0  0.5576108E-005  0.2503768E+03  0.7546771E-02  0.1113067E+00
         21   -1    0    0  502  501  0.00000000000E+00  0.00000000000E+00  0.79739241327E+03  0.79739241327E+03  0.00000000000E+00 0. -1.
         21   -1    0    0  501  502 -0.00000000000E+00 -0.00000000000E+00 -0.78616930896E+02  0.78616930896E+02  0.00000000000E+00 0. -1.
         25    1    1    2    0    0  0.11525885369E+03  0.35240654627E+02  0.17635828427E+03  0.24749495252E+03  0.12500000000E+03 0.  0.
         25    1    1    2    0    0 -0.60711394844E+01  0.37351621963E+02  0.28761973622E+03  0.31588307181E+03  0.12500000000E+03 0.  0.
         25    1    1    2    0    0 -0.10918771421E+03 -0.72592276591E+02  0.25479746189E+03  0.31263131983E+03  0.12500000000E+03 0.  0.
</event>
<event>
 5    0  0.5576108E-005  0.4980458E+03  0.7546771E-02  0.1014290E+00
         21   -1    0    0  502  501  0.00000000000E+00  0.00000000000E+00  0.45064114581E+03  0.45064114581E+03  0.00000000000E+00 0.  1.
         21   -1    0    0  501  502 -0.00000000000E+00 -0.00000000000E+00 -0.55043717673E+03  0.55043717673E+03  0.00000000000E+00 0.  1.
         25    1    1    2    0    0 -0.22117856502E+02  0.83158108339E+02  0.15524938960E+03  0.21709869537E+03  0.12500000000E+03 0.  0.
         25    1    1    2    0    0  0.23105866612E+03  0.14752554934E+03  0.78090376214E+02  0.31124749277E+03  0.12500000000E+03 0.  0.
         25    1    1    2    0    0 -0.20894080961E+03 -0.23068365768E+03 -0.33313579673E+03  0.47273213441E+03  0.12500000000E+03 0.  0.
</event>
<event>
 5    0  0.5576108E-005  0.2329311E+03  0.7546771E-02  0.1124594E+00
         21   -1    0    0  502  501  0.00000000000E+00  0.00000000000E+00  0.58735019433E+03  0.58735019433E+03  0.00000000000E+00 0.  1.
         21   -1    0    0  501  502 -0.00000000000E+00 -0.00000000000E+00 -0.92375701293E+02  0.92375701293E+02  0.00000000000E+00 0.  1.
         25    1    1    2    0    0 -0.10154949418E+03  0.32581577170E+02  0.17983273414E+03  0.24359530210E+03  0.12500000000E+03 0.  0.
         25    1    1    2    0    0  0.64963663919E+02 -0.10434082210E+02  0.69992509833E+02  0.15764865725E+03  0.12500000000E+03 0.  0.
         25    1    1    2    0    0  0.36585830262E+02 -0.22147494960E+02  0.24514924907E+03  0.27848193627E+03  0.12500000000E+03 0.  0.
</event>
<event>
 5    0  0.5576108E-005  0.2613379E+03  0.7546771E-02  0.1106342E+00
         21   -1    0    0  502  501  0.00000000000E+00  0.00000000000E+00  0.49537333932E+03  0.49537333932E+03  0.00000000000E+00 0. -1.
         21   -1    0    0  501  502 -0.00000000000E+00 -0.00000000000E+00 -0.13787075411E+03  0.13787075411E+03  0.00000000000E+00 0. -1.
         25    1    1    2    0    0 -0.54699133815E+01  0.66692993363E+02  0.77141647500E+02  0.16141161388E+03  0.12500000000E+03 0.  0.
         25    1    1    2    0    0 -0.11406134981E+03 -0.79452734150E+02  0.70996975673E+02  0.19997074546E+03  0.12500000000E+03 0.  0.
         25    1    1    2    0    0  0.11953126319E+03  0.12759740787E+02  0.20936396203E+03  0.27186173409E+03  0.12500000000E+03 0.  0.
</event>
<event>
 5    0  0.5585370E-005  0.3085236E+03  0.7546771E-02  0.1081056E+00
         21   -1    0    0  502  501  0.00000000000E+00  0.00000000000E+00  0.71284835070E+03  0.71284835070E+03  0.00000000000E+00 0.  1.
         21   -1    0    0  501  502 -0.00000000000E+00 -0.00000000000E+00 -0.13353025782E+03  0.13353025782E+03  0.00000000000E+00 0.  1.
         25    1    1    2    0    0 -0.35353419085E+02 -0.66975593387E+02 -0.83442477469E+01  0.14639064458E+03  0.12500000000E+03 0.  0.
         25    1    1    2    0    0 -0.86796889348E+02  0.10832837003E+03  0.39297477365E+03  0.43511252393E+03  0.12500000000E+03 0.  0.
         25    1    1    2    0    0  0.12215030843E+03 -0.41352776640E+02  0.19468756698E+03  0.26487544002E+03  0.12500000000E+03 0.  0.
</event>
<event>
 5    0  0.5576108E-005  0.2809213E+03  0.7546771E-02  0.1095187E+00
         21   -1    0    0  502  501  0.00000000000E+00  0.00000000000E+00  0.90854692777E+03  0.90854692777E+03  0.00000000000E+00 0.  1.
         21   -1    0    0  501  502 -0.00000000000E+00 -0.00000000000E+00 -0.86860405824E+02  0.86860405824E+02  0.00000000000E+00 0.  1.
         25    1    1    2    0    0 -0.99278656013E+02 -0.11075445501E+03  0.37814542735E+03  0.42513734847E+03  0.12500000000E+03 0.  0.
         25    1    1    2    0    0  0.20998699412E+02  0.14886089280E+02  0.46192693602E+02  0.13572511180E+03  0.12500000000E+03 0.  0.
         25    1    1    2    0    0  0.78279956601E+02  0.95868365728E+02  0.39734840100E+03  0.43454487332E+03  0.12500000000E+03 0.  0.
</event>
<event>
 5    0  0.5576108E-005  0.3887081E+03  0.7546771E-02  0.1047761E+00
         21   -1    0    0  502  501  0.00000000000E+00  0.00000000000E+00  0.30607575258E+03  0.30607575258E+03  0.00000000000E+00 0. -1.
         21   -1    0    0  501  502 -0.00000000000E+00 -0.00000000000E+00 -0.49364898571E+03  0.49364898571E+03  0.00000000000E+00 0. -1.
         25    1    1    2    0    0  0.58119250043E+02  0.14001629177E+03 -0.17378724856E+03  0.26231549125E+03  0.12500000000E+03 0.  0.
         25    1    1    2    0    0 -0.14666218018E+02  0.85597835109E+02 -0.17360869444E+03  0.23088323047E+03  0.12500000000E+03 0.  0.
         25    1    1    2    0    0 -0.43453032025E+02 -0.22561412688E+03  0.15982270987E+03  0.30652601657E+03  0.12500000000E+03 0.  0.
</event>
<event>
 5    0  0.5576108E-005  0.2619651E+03  0.7546771E-02  0.1105968E+00
         21   -1    0    0  502  501  0.00000000000E+00  0.00000000000E+00  0.60124538713E+03  0.60124538713E+03  0.00000000000E+00 0. -1.
         21   -1    0    0  501  502 -0.00000000000E+00 -0.00000000000E+00 -0.11413927805E+03  0.11413927805E+03  0.00000000000E+00 0. -1.
         25    1    1    2    0    0  0.21257870657E+02 -0.87330100624E+02  0.17419131409E+02  0.15494150406E+03  0.12500000000E+03 0.  0.
         25    1    1    2    0    0 -0.75577496106E+01  0.57334330779E+02  0.37700678411E+03  0.40137695541E+03  0.12500000000E+03 0.  0.
         25    1    1    2    0    0 -0.13700121046E+02  0.29995769845E+02  0.92680193549E+02  0.15906620572E+03  0.12500000000E+03 0.  0.
</event>
<event>
 5    0  0.5576108E-005  0.5995227E+03  0.7546771E-02  0.9906397E-01
         21   -1    0    0  502  501  0.00000000000E+00  0.00000000000E+00  0.12253138218E+03  0.12253138218E+03  0.00000000000E+00 0.  1.
         21   -1    0    0  501  502 -0.00000000000E+00 -0.00000000000E+00 -0.29333507098E+04  0.29333507098E+04  0.00000000000E+00 0.  1.
         25    1    1    2    0    0 -0.11872313710E+03 -0.25410560653E+03 -0.14903250370E+04  0.15216302305E+04  0.12500000000E+03 0.  0.
         25    1    1    2    0    0 -0.27477336957E+03  0.46894688404E+02 -0.39006364970E+03  0.49545349655E+03  0.12500000000E+03 0.  0.
         25    1    1    2    0    0  0.39349650667E+03  0.20721091813E+03 -0.93043064095E+03  0.10387983649E+04  0.12500000000E+03 0.  0.
</event>
<event>
 5    0  0.5576108E-005  0.3576935E+03  0.7546771E-02  0.1059501E+00
         21   -1    0    0  502  501  0.00000000000E+00  0.00000000000E+00  0.30412580764E+03  0.30412580764E+03  0.00000000000E+00 0. -1.
         21   -1    0    0  501  502 -0.00000000000E+00 -0.00000000000E+00 -0.42069636418E+03  0.42069636418E+03  0.00000000000E+00 0. -1.
         25    1    1    2    0    0  0.98639867146E+02 -0.78420726384E+02 -0.91308573036E+02  0.19960433168E+03  0.12500000000E+03 0.  0.
         25    1    1    2    0    0 -0.74610723344E+02  0.26214990548E+03 -0.32304103681E+02  0.30159225470E+03  0.12500000000E+03 0.  0.
         25    1    1    2    0    0 -0.24029143802E+02 -0.18372917910E+03  0.70421201721E+01  0.22362558543E+03  0.12500000000E+03 0.  0.
</event>
<event>
 5    0  0.5576108E-005  0.2363595E+03  0.7546771E-02  0.1122242E+00
         21   -1    0    0  502  501  0.00000000000E+00  0.00000000000E+00  0.47156695571E+03  0.47156695571E+03  0.00000000000E+00 0.  1.
         21   -1    0    0  501  502 -0.00000000000E+00 -0.00000000000E+00 -0.11846845139E+03  0.11846845139E+03  0.00000000000E+00 0.  1.
         25    1    1    2    0    0  0.43818838720E+02 -0.91925399446E+02  0.89847161159E+02  0.18457486844E+03  0.12500000000E+03 0.  0.
         25    1    1    2    0    0 -0.25160264668E+02  0.11024941148E+03  0.92620098323E+02  0.19233162575E+03  0.12500000000E+03 0.  0.
         25    1    1    2    0    0 -0.18658574052E+02 -0.18324012035E+02  0.17063124484E+03  0.21312891291E+03  0.12500000000E+03 0.  0.
</event>
<event>
 5    0  0.5576108E-005  0.2932587E+03  0.7546771E-02  0.1088660E+00
         21   -1    0    0  502  501  0.00000000000E+00  0.00000000000E+00  0.11029670265E+04  0.11029670265E+04  0.00000000000E+00 0. -1.
         21   -1    0    0  501  502 -0.00000000000E+00 -0.00000000000E+00 -0.77972096417E+02  0.77972096417E+02  0.00000000000E+00 0. -1.
         25    1    1    2    0    0 -0.95476519498E+02 -0.63622834523E+02  0.70651141184E+03  0.72659961871E+03  0.12500000000E+03 0.  0.
         25    1    1    2    0    0  0.12178293118E+03  0.81764231008E+02  0.21672961561E+03  0.29002275442E+03  0.12500000000E+03 0.  0.
         25    1    1    2    0    0 -0.26306411684E+02 -0.18141396485E+02  0.10175390266E+03  0.16431674981E+03  0.12500000000E+03 0.  0.
</event>
<event>
 5    0  0.5576108E-005  0.2634883E+03  0.7546771E-02  0.1105065E+00
         21   -1    0    0  502  501  0.00000000000E+00  0.00000000000E+00  0.46813673113E+02  0.46813673113E+02  0.00000000000E+00 0. -1.
         21   -1    0    0  501  502 -0.00000000000E+00 -0.00000000000E+00 -0.14830297396E+04  0.14830297396E+04  0.00000000000E+00 0. -1.
         25    1    1    2    0    0 -0.36847456806E+02  0.27673556203E+02 -0.23996881577E+03  0.27446965830E+03  0.12500000000E+03 0.  0.
         25    1    1    2    0    0  0.99493774972E+02  0.93865986509E+02 -0.74231242692E+03  0.76508991226E+03  0.12500000000E+03 0.  0.
         25    1    1    2    0    0 -0.62646318166E+02 -0.12153954271E+03 -0.45393482384E+03  0.49028384219E+03  0.12500000000E+03 0.  0.
</event>
<event>
 5    0  0.5576108E-005  0.2297449E+03  0.7546771E-02  0.1126819E+00
         21   -1    0    0  502  501  0.00000000000E+00  0.00000000000E+00  0.64165266063E+03  0.64165266063E+03  0.00000000000E+00 0.  1.
         21   -1    0    0  501  502 -0.00000000000E+00 -0.00000000000E+00 -0.82260577801E+02  0.82260577801E+02  0.00000000000E+00 0.  1.
         25    1    1    2    0    0  0.11330323669E+02 -0.52304246855E+02  0.49238375535E+02  0.14461510329E+03  0.12500000000E+03 0.  0.
         25    1    1    2    0    0  0.90644284208E+01  0.10164998753E+02  0.15313588950E+03  0.19814411855E+03  0.12500000000E+03 0.  0.
         25    1    1    2    0    0 -0.20394752090E+02  0.42139248102E+02  0.35701781779E+03  0.38115401659E+03  0.12500000000E+03 0.  0.
</event>
<event>
 5    0  0.5576108E-005  0.2920633E+03  0.7546771E-02  0.1089277E+00
         21   -1    0    0  502  501  0.00000000000E+00  0.00000000000E+00  0.59520946432E+02  0.59520946432E+02  0.00000000000E+00 0. -1.
         21   -1    0    0  501  502 -0.00000000000E+00 -0.00000000000E+00 -0.14331250497E+04  0.14331250497E+04  0.00000000000E+00 0. -1.
         25    1    1    2    0    0  0.13963676970E+03 -0.87480649422E+02 -0.64140862440E+03  0.67392975519E+03  0.12500000000E+03 0.  0.
         25    1    1    2    0    0 -0.10010566254E+03  0.14982670316E+03 -0.47993276808E+03  0.52766433130E+03  0.12500000000E+03 0.  0.
         25    1    1    2    0    0 -0.39531107159E+02 -0.62346053743E+02 -0.25226271078E+03  0.29105190963E+03  0.12500000000E+03 0.  0.
</event>
<event>
 5    0  0.5576108E-005  0.2867096E+03  0.7546771E-02  0.1092080E+00
         21   -1    0    0  502  501  0.00000000000E+00  0.00000000000E+00  0.93568557277E+03  0.93568557277E+03  0.00000000000E+00 0. -1.
         21   -1    0    0  501  502 -0.00000000000E+00 -0.00000000000E+00 -0.87852557927E+02  0.87852557927E+02  0.00000000000E+00 0. -1.
         25    1    1    2    0    0  0.11680398891E+03  0.31683241751E+02  0.55453876839E+03  0.58119295013E+03  0.12500000000E+03 0.  0.
         25    1    1    2    0    0 -0.14960589003E+02 -0.70656687845E+02  0.21486433300E+03  0.25885878072E+03  0.12500000000E+03 0.  0.
         25    1    1    2    0    0 -0.10184339990E+03  0.38973446094E+02  0.78429913451E+02  0.18348639985E+03  0.12500000000E+03 0.  0.
</event>
<event>
 5    0  0.5576108E-005  0.2806811E+03  0.7546771E-02  0.1095318E+00
         21   -1    0    0  502  501  0.00000000000E+00  0.00000000000E+00  0.29807063334E+03  0.29807063334E+03  0.00000000000E+00 0. -1.
         21   -1    0    0  501  502 -0.00000000000E+00 -0.00000000000E+00 -0.26430613540E+03  0.26430613540E+03  0.00000000000E+00 0. -1.
         25    1    1    2    0    0  0.21770914905E+02 -0.37915198812E+00  0.53287267496E+02  0.13761776546E+03  0.12500000000E+03 0.  0.
         25    1    1    2    0    0 -0.79537040587E+02  0.11966309452E+03  0.91630667722E+02  0.21134468596E+03  0.12500000000E+03 0.  0.
         25    1    1    2    0    0  0.57766125682E+02 -0.11928394253E+03 -0.11115343728E+03  0.21341431733E+03  0.12500000000E+03 0.  0.
</event>
<event>
 5    0  0.5576108E-005  0.3529921E+03  0.7546771E-02  0.1061394E+00
         21   -1    0    0  502  501  0.00000000000E+00  0.00000000000E+00  0.89266287430E+03  0.89266287430E+03  0.00000000000E+00 0.  1.
         21   -1    0    0  501  502 -0.00000000000E+00 -0.00000000000E+00 -0.13958622859E+03  0.13958622859E+03  0.00000000000E+00 0.  1.
         25    1    1    2    0    0 -0.36245865224E+02 -0.21996239326E+03  0.22309840253E+03  0.33925670871E+03  0.12500000000E+03 0.  0.
         25    1    1    2    0    0  0.14417773343E+02 -0.23021470960E+01  0.27103377073E+02  0.12873525204E+03  0.12500000000E+03 0.  0.
         25    1    1    2    0    0  0.21828091880E+02  0.22226454036E+03  0.50287486610E+03  0.56425714214E+03  0.12500000000E+03 0.  0.
</event>
<event>
 5    0  0.5576108E-005  0.4266493E+03  0.7546771E-02  0.1034924E+00
         21   -1    0    0  502  501  0.00000000000E+00  0.00000000000E+00  0.88811581497E+03  0.88811581497E+03  0.00000000000E+00 0.  1.
         21   -1    0    0  501  502 -0.00000000000E+00 -0.00000000000E+00 -0.20496162041E+03  0.20496162041E+03  0.00000000000E+00 0.  1.
         25    1    1    2    0    0 -0.24264498605E+03 -0.15832855720E+03  0.18363901654E+03  0.36509287815E+03  0.12500000000E+03 0.  0.
         25    1    1    2    0    0  0.13618396086E+03  0.13038943976E+03  0.28025829842E+02  0.22794280935E+03  0.12500000000E+03 0.  0.
         25    1    1    2    0    0  0.10646102519E+03  0.27939117443E+02  0.47148934819E+03  0.50004174788E+03  0.12500000000E+03 0.  0.
</event>
<event>
 5    0  0.5576108E-005  0.3385654E+03  0.7546771E-02  0.1067409E+00
         21   -1    0    0  502  501  0.00000000000E+00  0.00000000000E+00  0.17548414598E+03  0.17548414598E+03  0.00000000000E+00 0.  1.
         21   -1    0    0  501  502 -0.00000000000E+00 -0.00000000000E+00 -0.65320163360E+03  0.65320163360E+03  0.00000000000E+00 0.  1.
         25    1    1    2    0    0 -0.16180482653E+03  0.17080128602E+03 -0.37083122502E+03  0.45661217531E+03  0.12500000000E+03 0.  0.
         25    1    1    2    0    0  0.35811272341E+02 -0.44071724927E+02 -0.55021055031E+02  0.14790902833E+03  0.12500000000E+03 0.  0.
         25    1    1    2    0    0  0.12599355419E+03 -0.12672956109E+03 -0.51865207577E+02  0.22416457594E+03  0.12500000000E+03 0.  0.
</event>
<event>
 5    0  0.5576108E-005  0.3315575E+03  0.7546771E-02  0.1070450E+00
         21   -1    0    0  502  501  0.00000000000E+00  0.00000000000E+00  0.49292249406E+03  0.49292249406E+03  0.00000000000E+00 0.  1.
         21   -1    0    0  501  502 -0.00000000000E+00 -0.00000000000E+00 -0.22301750191E+03  0.22301750191E+03  0.00000000000E+00 0.  1.
         25    1    1    2    0    0  0.11698199735E+03 -0.10059550061E+03  0.42926361962E+02  0.20315490395E+03  0.12500000000E+03 0.  0.
         25    1    1    2    0    0 -0.19703941492E+03  0.17669744651E+03  0.15354945631E+03  0.33052829556E+03  0.12500000000E+03 0.  0.
         25    1    1    2    0    0  0.80057417572E+02 -0.76101945894E+02  0.73429173873E+02  0.18225679645E+03  0.12500000000E+03 0.  0.
</event>
<event>
 5    0  0.5576108E-005  0.2500790E+03  0.7546771E-02  0.1113255E+00
         21   -1    0    0  502  501  0.00000000000E+00  0.00000000000E+00  0.20095926411E+03  0.20095926411E+03  0.00000000000E+00 0.  1.
         21   -1    0    0  501  502 -0.00000000000E+00 -0.00000000000E+00 -0.31120490846E+03  0.31120490846E+03  0.00000000000E+00 0.  1.
         25    1    1    2    0    0 -0.76521836153E+02  0.52414979662E+02  0.70001752979E+02  0.17066975983E+03  0.12500000000E+03 0.  0.
         25    1    1    2    0    0 -0.81575763642E+01  0.11630623416E+02 -0.71359356505E+02  0.14463393521E+03  0.12500000000E+03 0.  0.
         25    1    1    2    0    0  0.84679412517E+02 -0.64045603078E+02 -0.10888804083E+03  0.19686047753E+03  0.12500000000E+03 0.  0.
</event>
<event>
 5    0  0.5576108E-005  0.2973573E+03  0.7546771E-02  0.1086569E+00
         21   -1    0    0  502  501  0.00000000000E+00  0.00000000000E+00  0.86605915068E+03  0.86605915068E+03  0.00000000000E+00 0. -1.
         21   -1    0    0  501  502 -0.00000000000E+00 -0.00000000000E+00 -0.10209621035E+03  0.10209621035E+03  0.00000000000E+00 0. -1.
         25    1    1    2    0    0 -0.14492524756E+03  0.59715872803E+02  0.57056675666E+03  0.60476502598E+03  0.12500000000E+03 0.  0.
         25    1    1    2    0    0  0.11985271855E+03 -0.21435294354E+02  0.10667829604E+03  0.20452238223E+03  0.12500000000E+03 0.  0.
         25    1    1    2    0    0  0.25072529008E+02 -0.38280578448E+02  0.86717887634E+02  0.15886795282E+03  0.12500000000E+03 0.  0.
</event>
<event>
 5    0  0.5576108E-005  0.3270133E+03  0.7546771E-02  0.1072466E+00
         21   -1    0    0  502  501  0.00000000000E+00  0.00000000000E+00  0.53670082576E+02  0.53670082576E+02  0.00000000000E+00 0.  1.
         21   -1    0    0  501  502 -0.00000000000E+00 -0.00000000000E+00 -0.19925010957E+04  0.19925010957E+04  0.00000000000E+00 0.  1.
         25    1    1    2    0    0  0.43778137164E+02 -0.16522668333E+03 -0.43077948661E+03  0.48001286260E+03  0.12500000000E+03 0.  0.
         25    1    1    2    0    0 -0.13982616193E+02  0.22962848907E+03 -0.11678345906E+04  0.11968238749E+04  0.12500000000E+03 0.  0.
         25    1    1    2    0    0 -0.29795520971E+02 -0.64401805736E+02 -0.34021693590E+03  0.36933444075E+03  0.12500000000E+03 0.  0.
</event>
<event>
 5    0  0.5576108E-005  0.2579895E+03  0.7546771E-02  0.1108357E+00
         21   -1    0    0  502  501  0.00000000000E+00  0.00000000000E+00  0.33693752104E+02  0.33693752104E+02  0.00000000000E+00 0. -1.
         21   -1    0    0  501  502 -0.00000000000E+00 -0.00000000000E+00 -0.19753982676E+04  0.19753982676E+04  0.00000000000E+00 0. -1.
         25    1    1    2    0    0 -0.93100808768E+01  0.10242526972E+03 -0.48708364632E+03  0.51327681810E+03  0.12500000000E+03 0.  0.
         25    1    1    2    0    0  0.31402911061E+02 -0.14969782880E+03 -0.63307573316E+03  0.66317830685E+03  0.12500000000E+03 0.  0.
         25    1    1    2    0    0 -0.22092830184E+02  0.47272559080E+02 -0.82154513603E+03  0.83263689476E+03  0.12500000000E+03 0.  0.
</event>
<event>
 5    0  0.5576108E-005  0.2444101E+03  0.7546771E-02  0.1116889E+00
         21   -1    0    0  502  501  0.00000000000E+00  0.00000000000E+00  0.15404510488E+03  0.15404510488E+03  0.00000000000E+00 0. -1.
         21   -1    0    0  501  502 -0.00000000000E+00 -0.00000000000E+00 -0.38778437764E+03  0.38778437764E+03  0.00000000000E+00 0. -1.
         25    1    1    2    0    0  0.36138691046E+02 -0.64335463311E+01  0.13307745614E+02  0.13095606745E+03  0.12500000000E+03 0.  0.
         25    1    1    2    0    0  0.22162024971E+02  0.88718194857E+02 -0.64610587420E+02  0.16781418729E+03  0.12500000000E+03 0.  0.
         25    1    1    2    0    0 -0.58300716017E+02 -0.82284648526E+02 -0.18243643095E+03  0.24305922778E+03  0.12500000000E+03 0.  0.
</event>
<event>
 5    0  0.6306472E-005  0.2827379E+03  0.7546771E-02  0.1094203E+00
         21   -1    0    0  502  501  0.00000000000E+00  0.00000000000E+00  0.21247781475E+03  0.21247781475E+03  0.00000000000E+00 0. -1.
         21   -1    0    0  501  502 -0.00000000000E+00 -0.00000000000E+00 -0.37623099012E+03  0.37623099012E+03  0.00000000000E+00 0. -1.
         25    1    1    2    0    0 -0.64471659622E+02  0.10295738507E+03 -0.86689423891E+02  0.19467119522E+03  0.12500000000E+03 0.  0.
         25    1    1    2    0    0  0.15873807188E+03 -0.20737465010E+02 -0.76963234054E+02  0.21720073047E+03  0.12500000000E+03 0.  0.
         25    1    1    2    0    0 -0.94266412260E+02 -0.82219920062E+02 -0.10051742035E+00  0.17683687918E+03  0.12500000000E+03 0.  0.
</event>
<event>
 5    0  0.5576108E-005  0.3076915E+03  0.7546771E-02  0.1081458E+00
         21   -1    0    0  502  501  0.00000000000E+00  0.00000000000E+00  0.44294658693E+03  0.44294658693E+03  0.00000000000E+00 0. -1.
         21   -1    0    0  501  502 -0.00000000000E+00 -0.00000000000E+00 -0.21373691843E+03  0.21373691843E+03  0.00000000000E+00 0. -1.
         25    1    1    2    0    0 -0.83786906936E+02 -0.15997815100E+03 -0.23421060907E+02  0.22087734303E+03  0.12500000000E+03 0.  0.
         25    1    1    2    0    0  0.38156341553E+02  0.14964778099E+03  0.22378211956E+03  0.29925541230E+03  0.12500000000E+03 0.  0.
         25    1    1    2    0    0  0.45630565382E+02  0.10330370009E+02  0.28848609848E+02  0.13655075002E+03  0.12500000000E+03 0.  0.
</event>
<event>
 5    0  0.5576108E-005  0.5855955E+03  0.7546771E-02  0.9935750E-01
         21   -1    0    0  502  501  0.00000000000E+00  0.00000000000E+00  0.57267873130E+03  0.57267873130E+03  0.00000000000E+00 0.  1.
         21   -1    0    0  501  502 -0.00000000000E+00 -0.00000000000E+00 -0.59880352095E+03  0.59880352095E+03  0.00000000000E+00 0.  1.
         25    1    1    2    0    0  0.12787689874E+03 -0.41982645337E+03  0.13993418873E+03  0.47729794610E+03  0.12500000000E+03 0.  0.
         25    1    1    2    0    0 -0.16344360749E+02  0.47979362703E+03 -0.12439290224E+03  0.51143685514E+03  0.12500000000E+03 0.  0.
         25    1    1    2    0    0 -0.11153253799E+03 -0.59967173662E+02 -0.41666076143E+02  0.18274745101E+03  0.12500000000E+03 0.  0.
</event>
<event>
 5    0  0.5576108E-005  0.2781882E+03  0.7546771E-02  0.1096683E+00
         21   -1    0    0  502  501  0.00000000000E+00  0.00000000000E+00  0.51487206050E+03  0.51487206050E+03  0.00000000000E+00 0.  1.
         21   -1    0    0  501  502 -0.00000000000E+00 -0.00000000000E+00 -0.15030661174E+03  0.15030661174E+03  0.00000000000E+00 0.  1.
         25    1    1    2    0    0  0.20345050600E+02  0.93999982773E+02  0.29445542329E+03  0.33403430086E+03  0.12500000000E+03 0.  0.
         25    1    1    2    0    0 -0.10518622388E+02 -0.12007755872E+03  0.98957247801E+02  0.19986695179E+03  0.12500000000E+03 0.  0.
         25    1    1    2    0    0 -0.98264282113E+01  0.26077575952E+02 -0.28847222335E+02  0.13127741959E+03  0.12500000000E+03 0.  0.
</event>
<event>
 5    0  0.5576108E-005  0.3198001E+03  0.7546771E-02  0.1075741E+00
         21   -1    0    0  502  501  0.00000000000E+00  0.00000000000E+00  0.11155149290E+04  0.11155149290E+04  0.00000000000E+00 0. -1.
         21   -1    0    0  501  502 -0.00000000000E+00 -0.00000000000E+00 -0.91681525221E+02  0.91681525221E+02  0.00000000000E+00 0. -1.
         25    1    1    2    0    0 -0.13681318266E+02  0.15913748723E+03  0.63297640742E+03  0.66467740346E+03  0.12500000000E+03 0.  0.
         25    1    1    2    0    0 -0.56688988257E+02  0.22097489168E+02  0.10124370079E+03  0.17198031099E+03  0.12500000000E+03 0.  0.
         25    1    1    2    0    0  0.70370306523E+02 -0.18123497640E+03  0.28961329558E+03  0.37053873980E+03  0.12500000000E+03 0.  0.
</event>
<event>
 5    0  0.5576108E-005  0.3190957E+03  0.7546771E-02  0.1076066E+00
         21   -1    0    0  502  501  0.00000000000E+00  0.00000000000E+00  0.89406118596E+03  0.89406118596E+03  0.00000000000E+00 0.  1.
         21   -1    0    0  501  502 -0.00000000000E+00 -0.00000000000E+00 -0.11388714949E+03  0.11388714949E+03  0.00000000000E+00 0.  1.
         25    1    1    2    0    0  0.13758471622E+02 -0.10516939951E+03  0.35617479558E+03  0.39209103936E+03  0.12500000000E+03 0.  0.
         25    1    1    2    0    0  0.13231573553E+03  0.26039201889E+02  0.54329476222E+02  0.19173467577E+03  0.12500000000E+03 0.  0.
         25    1    1    2    0    0 -0.14607420716E+03  0.79130197616E+02  0.36966976466E+03  0.42412262033E+03  0.12500000000E+03 0.  0.
</event>
<event>
 5    0  0.5576108E-005  0.2836056E+03  0.7546771E-02  0.1093736E+00
         21   -1    0    0  502  501  0.00000000000E+00  0.00000000000E+00  0.17961046939E+04  0.17961046939E+04  0.00000000000E+00 0.  1.
         21   -1    0    0  501  502 -0.00000000000E+00 -0.00000000000E+00 -0.44781431156E+02  0.44781431156E+02  0.00000000000E+00 0.  1.
         25    1    1    2    0    0 -0.36353505823E+02  0.11468751788E+03  0.49554834868E+03  0.52504092224E+03  0.12500000000E+03 0.  0.
         25    1    1    2    0    0  0.13244083588E+03 -0.55814696839E+01  0.41083533090E+03  0.44942451750E+03  0.12500000000E+03 0.  0.
         25    1    1    2    0    0 -0.96087330061E+02 -0.10910604820E+03  0.84493958317E+03  0.86642068533E+03  0.12500000000E+03 0.  0.
</event>
<event>
 5    0  0.5576108E-005  0.3441769E+03  0.7546771E-02  0.1065031E+00
         21   -1    0    0  502  501  0.00000000000E+00  0.00000000000E+00  0.67374794790E+03  0.67374794790E+03  0.00000000000E+00 0. -1.
         21   -1    0    0  501  502 -0.00000000000E+00 -0.00000000000E+00 -0.17581905371E+03  0.17581905371E+03  0.00000000000E+00 0. -1.
         25    1    1    2    0    0 -0.22350322484E+02 -0.58867791334E+02 -0.81100696005E+02  0.16176302626E+03  0.12500000000E+03 0.  0.
         25    1    1    2    0    0  0.14399410164E+03  0.25241680115E+02  0.27292285230E+03  0.33389119041E+03  0.12500000000E+03 0.  0.
         25    1    1    2    0    0 -0.12164377916E+03  0.33626111218E+02  0.30610673789E+03  0.35391278494E+03  0.12500000000E+03 0.  0.
</event>
<event>
 5    0  0.5576108E-005  0.3208819E+03  0.7546771E-02  0.1075244E+00
         21   -1    0    0  502  501  0.00000000000E+00  0.00000000000E+00  0.72416565429E+03  0.72416565429E+03  0.00000000000E+00 0. -1.
         21   -1    0    0  501  502 -0.00000000000E+00 -0.00000000000E+00 -0.14218455652E+03  0.14218455652E+03  0.00000000000E+00 0. -1.
         25    1    1    2    0    0  0.82260294424E+02  0.83699736613E+02  0.25139306176E+03  0.30429570068E+03  0.12500000000E+03 0.  0.
         25    1    1    2    0    0  0.11528591492E+03 -0.13219129698E+03  0.16884290039E+03  0.27367554913E+03  0.12500000000E+03 0.  0.
         25    1    1    2    0    0 -0.19754620935E+03  0.48491560367E+02  0.16174513561E+03  0.28837896100E+03  0.12500000000E+03 0.  0.
</event>
<event>
 5    0  0.5576108E-005  0.2882553E+03  0.7546771E-02  0.1091264E+00
         21   -1    0    0  502  501  0.00000000000E+00  0.00000000000E+00  0.84885878190E+02  0.84885878190E+02  0.00000000000E+00 0.  1.
         21   -1    0    0  501  502 -0.00000000000E+00 -0.00000000000E+00 -0.97885667823E+03  0.97885667823E+03  0.00000000000E+00 0.  1.
         25    1    1    2    0    0 -0.40316047391E+02 -0.49096059962E+02 -0.14081690341E+03  0.19872143082E+03  0.12500000000E+03 0.  0.
         25    1    1    2    0    0  0.99539379414E+02  0.14990254419E+03 -0.24431126564E+03  0.32816437242E+03  0.12500000000E+03 0.  0.
         25    1    1    2    0    0 -0.59223332022E+02 -0.10080648423E+03 -0.50884263100E+03  0.53685675318E+03  0.12500000000E+03 0.  0.
</event>
<event>
 5    0  0.5576108E-005  0.5014649E+03  0.7546771E-02  0.1013397E+00
         21   -1    0    0  502  501  0.00000000000E+00  0.00000000000E+00  0.18279279128E+04  0.18279279128E+04  0.00000000000E+00 0.  1.
         21   -1    0    0  501  502 -0.00000000000E+00 -0.00000000000E+00 -0.13756946739E+03  0.13756946739E+03  0.00000000000E+00 0.  1.
         25    1    1    2    0    0 -0.33091265764E+03 -0.15755883068E+03  0.51018170783E+03  0.64049851454E+03  0.12500000000E+03 0.  0.
         25    1    1    2    0    0  0.19370305969E+03 -0.11464704793E+03  0.37357856503E+03  0.45370779714E+03  0.12500000000E+03 0.  0.
         25    1    1    2    0    0  0.13720959796E+03  0.27220587861E+03  0.80659817255E+03  0.87129106852E+03  0.12500000000E+03 0.  0.
</event>
<event>
 5    0  0.5576108E-005  0.3816973E+03  0.7546771E-02  0.1050308E+00
         21   -1    0    0  502  501  0.00000000000E+00  0.00000000000E+00  0.99472544522E+03  0.99472544522E+03  0.00000000000E+00 0.  1.
         21   -1    0    0  501  502 -0.00000000000E+00 -0.00000000000E+00 -0.14646540607E+03  0.14646540607E+03  0.00000000000E+00 0.  1.
         25    1    1    2    0    0  0.62189356721E+02 -0.68720456958E+02  0.51635531721E+03  0.53929382613E+03  0.12500000000E+03 0.  0.
         25    1    1    2    0    0 -0.22306269793E+03  0.30470509178E+00  0.74008435033E+02  0.26619411809E+03  0.12500000000E+03 0.  0.
         25    1    1    2    0    0  0.16087334121E+03  0.68415751866E+02  0.25789628690E+03  0.33570290707E+03  0.12500000000E+03 0.  0.
</event>
<event>
 5    0  0.5576108E-005  0.2452624E+03  0.7546771E-02  0.1116336E+00
         21   -1    0    0  502  501  0.00000000000E+00  0.00000000000E+00  0.63065325911E+02  0.63065325911E+02  0.00000000000E+00 0. -1.
         21   -1    0    0  501  502 -0.00000000000E+00 -0.00000000000E+00 -0.95383046683E+03  0.95383046683E+03  0.00000000000E+00 0. -1.
         25    1    1    2    0    0 -0.20888063118E+02 -0.11750244660E+03 -0.33244652804E+03  0.37468497454E+03  0.12500000000E+03 0.  0.
         25    1    1    2    0    0 -0.21712004318E+02 -0.67332915181E+01 -0.30756505852E+03  0.33277321643E+03  0.12500000000E+03 0.  0.
         25    1    1    2    0    0  0.42600067436E+02  0.12423573812E+03 -0.25075355435E+03  0.30943760177E+03  0.12500000000E+03 0.  0.
</event>
<event>
 5    0  0.5856330E-005  0.2859891E+03  0.7546771E-02  0.1092462E+00
         21   -1    0    0  502  501  0.00000000000E+00  0.00000000000E+00  0.40577198488E+03  0.40577198488E+03  0.00000000000E+00 0. -1.
         21   -1    0    0  501  502 -0.00000000000E+00 -0.00000000000E+00 -0.20156580023E+03  0.20156580023E+03  0.00000000000E+00 0. -1.
         25    1    1    2    0    0 -0.53114710336E+02 -0.10424540595E+03  0.11891611664E+03  0.20845699775E+03  0.12500000000E+03 0.  0.
         25    1    1    2    0    0  0.65806834186E+02 -0.78228546405E+02 -0.15864665595E-01  0.16147831170E+03  0.12500000000E+03 0.  0.
         25    1    1    2    0    0 -0.12692123850E+02  0.18247395236E+03  0.85305932670E+02  0.23740247565E+03  0.12500000000E+03 0.  0.
</event>
<event>
 5    0  0.5576108E-005  0.2478230E+03  0.7546771E-02  0.1114688E+00
         21   -1    0    0  502  501  0.00000000000E+00  0.00000000000E+00  0.11747630872E+03  0.11747630872E+03  0.00000000000E+00 0.  1.
         21   -1    0    0  501  502 -0.00000000000E+00 -0.00000000000E+00 -0.52279688058E+03  0.52279688058E+03  0.00000000000E+00 0.  1.
         25    1    1    2    0    0 -0.42610962502E+02  0.86734487923E+02 -0.17739944424E+03  0.23755868398E+03  0.12500000000E+03 0.  0.
         25    1    1    2    0    0 -0.44351717710E+02 -0.69222995899E+02 -0.19527153388E+03  0.24599770318E+03  0.12500000000E+03 0.  0.
         25    1    1    2    0    0  0.86962680212E+02 -0.17511492024E+02 -0.32649593739E+02  0.15671680214E+03  0.12500000000E+03 0.  0.
</event>
<event>
 5    0  0.5576108E-005  0.2995266E+03  0.7546771E-02  0.1085477E+00
         21   -1    0    0  502  501  0.00000000000E+00  0.00000000000E+00  0.27050699104E+03  0.27050699104E+03  0.00000000000E+00 0.  1.
         21   -1    0    0  501  502 -0.00000000000E+00 -0.00000000000E+00 -0.33165940325E+03  0.33165940325E+03  0.00000000000E+00 0.  1.
         25    1    1    2    0    0 -0.42583276774E+02  0.10240672226E+03 -0.39843758660E+02  0.17179347289E+03  0.12500000000E+03 0.  0.
         25    1    1    2    0    0  0.15998093034E+03  0.39939305632E+02 -0.65848248658E+01  0.20702030366E+03  0.12500000000E+03 0.  0.
         25    1    1    2    0    0 -0.11739765357E+03 -0.14234602789E+03 -0.14723828676E+02  0.22335261774E+03  0.12500000000E+03 0.  0.
</event>
<event>
 5    0  0.5576108E-005  0.3657886E+03  0.7546771E-02  0.1056315E+00
         21   -1    0    0  502  501  0.00000000000E+00  0.00000000000E+00  0.22508220595E+03  0.22508220595E+03  0.00000000000E+00 0. -1.
         21   -1    0    0  501  502 -0.00000000000E+00 -0.00000000000E+00 -0.59445528622E+03  0.59445528622E+03  0.00000000000E+00 0. -1.
         25    1    1    2    0    0 -0.54155427849E+02  0.25954791471E+02 -0.48883688888E+03  0.50812691869E+03  0.12500000000E+03 0.  0.
         25    1    1    2    0    0  0.29583895978E+02 -0.62916025834E+02  0.10610790305E+03  0.17809413325E+03  0.12500000000E+03 0.  0.
         25    1    1    2    0    0  0.24571531871E+02  0.36961234363E+02  0.13355905558E+02  0.13331644024E+03  0.12500000000E+03 0.  0.
</event>
<event>
 5    0  0.5576108E-005  0.2726764E+03  0.7546771E-02  0.1099758E+00
         21   -1    0    0  502  501  0.00000000000E+00  0.00000000000E+00  0.36605867475E+03  0.36605867475E+03  0.00000000000E+00 0. -1.
         21   -1    0    0  501  502 -0.00000000000E+00 -0.00000000000E+00 -0.20311613815E+03  0.20311613815E+03  0.00000000000E+00 0. -1.
         25    1    1    2    0    0  0.44517310784E+02 -0.58670063815E+02  0.23021291826E+02  0.14689774411E+03  0.12500000000E+03 0.  0.
         25    1    1    2    0    0  0.97642564717E+01 -0.10181146844E+02 -0.83995749979E+02  0.15125899137E+03  0.12500000000E+03 0.  0.
         25    1    1    2    0    0 -0.54281567256E+02  0.68851210659E+02  0.22391699475E+03  0.27101807743E+03  0.12500000000E+03 0.  0.
</event>
<event>
 5    0  0.5576108E-005  0.3380418E+03  0.7546771E-02  0.1067633E+00
         21   -1    0    0  502  501  0.00000000000E+00  0.00000000000E+00  0.15277870640E+03  0.15277870640E+03  0.00000000000E+00 0. -1.
         21   -1    0    0  501  502 -0.00000000000E+00 -0.00000000000E+00 -0.74795941394E+03  0.74795941394E+03  0.00000000000E+00 0. -1.
         25    1    1    2    0    0 -0.25836271041E+03  0.48492032755E+01 -0.22588035855E+03  0.36526940918E+03  0.12500000000E+03 0.  0.
         25    1    1    2    0    0  0.14659285595E+03  0.58845429876E+02 -0.24528707125E+03  0.31740037391E+03  0.12500000000E+03 0.  0.
         25    1    1    2    0    0  0.11176985447E+03 -0.63694633151E+02 -0.12401327773E+03  0.21806833725E+03  0.12500000000E+03 0.  0.
</event>
<event>
 5    0  0.5576108E-005  0.3048907E+03  0.7546771E-02  0.1082821E+00
         21   -1    0    0  502  501  0.00000000000E+00  0.00000000000E+00  0.16109254018E+03  0.16109254018E+03  0.00000000000E+00 0.  1.
         21   -1    0    0  501  502 -0.00000000000E+00 -0.00000000000E+00 -0.57704918280E+03  0.57704918280E+03  0.00000000000E+00 0.  1.
         25    1    1    2    0    0 -0.19277720623E+03  0.18517644927E+02 -0.20362980434E+03  0.30756471129E+03  0.12500000000E+03 0.  0.
         25    1    1    2    0    0  0.13478604007E+03 -0.14647014902E+02 -0.86200361922E+01  0.18461071655E+03  0.12500000000E+03 0.  0.
         25    1    1    2    0    0  0.57991166162E+02 -0.38706300252E+01 -0.20370680208E+03  0.24596629513E+03  0.12500000000E+03 0.  0.
</event>
<event>
 5    0  0.5576108E-005  0.2354751E+03  0.7546771E-02  0.1122844E+00
         21   -1    0    0  502  501  0.00000000000E+00  0.00000000000E+00  0.80074270911E+02  0.80074270911E+02  0.00000000000E+00 0.  1.
         21   -1    0    0  501  502 -0.00000000000E+00 -0.00000000000E+00 -0.69246387252E+03  0.69246387252E+03  0.00000000000E+00 0.  1.
         25    1    1    2    0    0  0.76927093270E+02 -0.27914486244E+02 -0.30566133093E+03  0.34022175922E+03  0.12500000000E+03 0.  0.
         25    1    1    2    0    0 -0.30583816721E+01 -0.13282943953E-01 -0.47247322101E+02  0.13366623852E+03  0.12500000000E+03 0.  0.
         25    1    1    2    0    0 -0.73868711598E+02  0.27927769188E+02 -0.25948094858E+03  0.29865014569E+03  0.12500000000E+03 0.  0.
</event>
<event>
 5    0  0.5576108E-005  0.2843794E+03  0.7546771E-02  0.1093321E+00
         21   -1    0    0  502  501  0.00000000000E+00  0.00000000000E+00  0.85689536154E+02  0.85689536154E+02  0.00000000000E+00 0.  1.
         21   -1    0    0  501  502 -0.00000000000E+00 -0.00000000000E+00 -0.94377469434E+03  0.94377469434E+03  0.00000000000E+00 0.  1.
         25    1    1    2    0    0  0.38231910208E+01 -0.14407394385E+03 -0.47018198778E+03  0.50741306617E+03  0.12500000000E+03 0.  0.
         25    1    1    2    0    0  0.69647934522E+02  0.10141663524E+03 -0.11389648014E+03  0.20912574417E+03  0.12500000000E+03 0.  0.
         25    1    1    2    0    0 -0.73471125543E+02  0.42657308605E+02 -0.27400669026E+03  0.31292542015E+03  0.12500000000E+03 0.  0.
</event>
<event>
 5    0  0.5576108E-005  0.2758645E+03  0.7546771E-02  0.1097969E+00
         21   -1    0    0  502  501  0.00000000000E+00  0.00000000000E+00  0.24511290940E+03  0.24511290940E+03  0.00000000000E+00 0.  1.
         21   -1    0    0  501  502 -0.00000000000E+00 -0.00000000000E+00 -0.31047425135E+03  0.31047425135E+03  0.00000000000E+00 0.  1.
         25    1    1    2    0    0 -0.52452836614E+02 -0.64908363422E+02 -0.23572095806E+02  0.15213493817E+03  0.12500000000E+03 0.  0.
         25    1    1    2    0    0 -0.85471629732E+02  0.74725133647E+02 -0.11379816855E+03  0.20362776887E+03  0.12500000000E+03 0.  0.
         25    1    1    2    0    0  0.13792446635E+03 -0.98167702243E+01  0.72008922418E+02  0.19982445371E+03  0.12500000000E+03 0.  0.
</event>
<event>
 5    0  0.5576108E-005  0.2491880E+03  0.7546771E-02  0.1113819E+00
         21   -1    0    0  502  501  0.00000000000E+00  0.00000000000E+00  0.99830204368E+02  0.99830204368E+02  0.00000000000E+00 0. -1.
         21   -1    0    0  501  502 -0.00000000000E+00 -0.00000000000E+00 -0.62200279420E+03  0.62200279420E+03  0.00000000000E+00 0. -1.
         25    1    1    2    0    0  0.78152926426E+02  0.32608524836E+02 -0.22729558643E+03  0.27287264321E+03  0.12500000000E+03 0.  0.
         25    1    1    2    0    0  0.16892167040E+02 -0.40029706267E+02 -0.22160905730E+02  0.13417834562E+03  0.12500000000E+03 0.  0.
         25    1    1    2    0    0 -0.95045093465E+02  0.74211814308E+01 -0.27271609767E+03  0.31478200974E+03  0.12500000000E+03 0.  0.
</event>
<event>
 5    0  0.5576108E-005  0.5472848E+03  0.7546771E-02  0.1002124E+00
         21   -1    0    0  502  501  0.00000000000E+00  0.00000000000E+00  0.32045467666E+03  0.32045467666E+03  0.00000000000E+00 0. -1.
         21   -1    0    0  501  502 -0.00000000000E+00 -0.00000000000E+00 -0.93467405046E+03  0.93467405046E+03  0.00000000000E+00 0. -1.
         25    1    1    2    0    0 -0.60762422224E+02 -0.15688936904E+02 -0.58375689250E+03  0.60027937182E+03  0.12500000000E+03 0.  0.
         25    1    1    2    0    0 -0.39720720231E+02  0.26460203189E+03 -0.15510444325E+03  0.33357811561E+03  0.12500000000E+03 0.  0.
         25    1    1    2    0    0  0.10048314245E+03 -0.24891309498E+03  0.12464196195E+03  0.32127123969E+03  0.12500000000E+03 0.  0.
</event>
<event>
 5    0  0.5576108E-005  0.4010918E+03  0.7546771E-02  0.1043402E+00
         21   -1    0    0  502  501  0.00000000000E+00  0.00000000000E+00  0.69957916512E+03  0.69957916512E+03  0.00000000000E+00 0. -1.
         21   -1    0    0  501  502 -0.00000000000E+00 -0.00000000000E+00 -0.22995911106E+03  0.22995911106E+03  0.00000000000E+00 0. -1.
         25    1    1    2    0    0  0.26358600482E+03  0.75646990655E+02  0.18528368673E+03  0.35377265821E+03  0.12500000000E+03 0.  0.
         25    1    1    2    0    0 -0.35411335384E+02 -0.26335813057E+01  0.27640595156E+03  0.30542781223E+03  0.12500000000E+03 0.  0.
         25    1    1    2    0    0 -0.22817466944E+03 -0.73013409349E+02  0.79304157754E+01  0.27033780574E+03  0.12500000000E+03 0.  0.
</event>
<event>
 5    0  0.5576108E-005  0.2478948E+03  0.7546771E-02  0.1114643E+00
         21   -1    0    0  502  501  0.00000000000E+00  0.00000000000E+00  0.12460955406E+03  0.12460955406E+03  0.00000000000E+00 0. -1.
         21   -1    0    0  501  502 -0.00000000000E+00 -0.00000000000E+00 -0.49315521192E+03  0.49315521192E+03  0.00000000000E+00 0. -1.
         25    1    1    2    0    0  0.99529260259E+02 -0.29131620190E+02 -0.87103397699E+02  0.18430064252E+03  0.12500000000E+03 0.  0.
         25    1    1    2    0    0  0.10269655996E+02  0.79860331735E+02 -0.85743708262E+02  0.17163951155E+03  0.12500000000E+03 0.  0.
         25    1    1    2    0    0 -0.10979891625E+03 -0.50728711545E+02 -0.19569855189E+03  0.26182461191E+03  0.12500000000E+03 0.  0.
</event>
<event>
 5    0  0.5576108E-005  0.3000267E+03  0.7546771E-02  0.1085227E+00
         21   -1    0    0  502  501  0.00000000000E+00  0.00000000000E+00  0.55558287951E+03  0.55558287951E+03  0.00000000000E+00 0. -1.
         21   -1    0    0  501  502 -0.00000000000E+00 -0.00000000000E+00 -0.16202085058E+03  0.16202085058E+03  0.00000000000E+00 0. -1.
         25    1    1    2    0    0 -0.39797343782E+01 -0.35406310162E+02  0.44903759479E+02  0.13751651792E+03  0.12500000000E+03 0.  0.
         25    1    1    2    0    0  0.12411025589E+03 -0.91411600641E+02  0.30023504243E+03  0.35989653659E+03  0.12500000000E+03 0.  0.
         25    1    1    2    0    0 -0.12013052151E+03  0.12681791080E+03  0.48423227021E+02  0.22019067558E+03  0.12500000000E+03 0.  0.
</event>
<event>
 5    0  0.5576108E-005  0.3662660E+03  0.7546771E-02  0.1056130E+00
         21   -1    0    0  502  501  0.00000000000E+00  0.00000000000E+00  0.14191229662E+03  0.14191229662E+03  0.00000000000E+00 0.  1.
         21   -1    0    0  501  502 -0.00000000000E+00 -0.00000000000E+00 -0.94530752477E+03  0.94530752477E+03  0.00000000000E+00 0.  1.
         25    1    1    2    0    0 -0.19826071355E+02 -0.21224129463E+03 -0.51356261420E+03  0.56992192357E+03  0.12500000000E+03 0.  0.
         25    1    1    2    0    0 -0.31506982100E+02 -0.16578822645E+02 -0.84217589112E+01  0.13024389930E+03  0.12500000000E+03 0.  0.
         25    1    1    2    0    0  0.51333053455E+02  0.22882011728E+03 -0.28141085503E+03  0.38705399853E+03  0.12500000000E+03 0.  0.
</event>
<event>
 5    0  0.5576108E-005  0.4763543E+03  0.7546771E-02  0.1020142E+00
         21   -1    0    0  502  501  0.00000000000E+00  0.00000000000E+00  0.25599509636E+03  0.25599509636E+03  0.00000000000E+00 0. -1.
         21   -1    0    0  501  502 -0.00000000000E+00 -0.00000000000E+00 -0.88639760454E+03  0.88639760454E+03  0.00000000000E+00 0. -1.
         25    1    1    2    0    0 -0.26705076745E+03 -0.11731911676E+03 -0.11481772273E+02  0.31754797849E+03  0.12500000000E+03 0.  0.
         25    1    1    2    0    0  0.33376945070E+03  0.70551696418E+02 -0.29426708836E+03  0.46754433734E+03  0.12500000000E+03 0.  0.
         25    1    1    2    0    0 -0.66718683247E+02  0.46767420337E+02 -0.32465364755E+03  0.35730038506E+03  0.12500000000E+03 0.  0.
</event>
<event>
 5    0  0.5576108E-005  0.4194527E+03  0.7546771E-02  0.1037245E+00
         21   -1    0    0  502  501  0.00000000000E+00  0.00000000000E+00  0.17908852472E+03  0.17908852472E+03  0.00000000000E+00 0.  1.
         21   -1    0    0  501  502 -0.00000000000E+00 -0.00000000000E+00 -0.98242232483E+03  0.98242232483E+03  0.00000000000E+00 0.  1.
         25    1    1    2    0    0 -0.53143226493E+01  0.18458545426E+03  0.28863198427E+01  0.22300978183E+03  0.12500000000E+03 0.  0.
         25    1    1    2    0    0  0.78663869979E+02 -0.25602833634E+03 -0.64859767293E+03  0.71277096937E+03  0.12500000000E+03 0.  0.
         25    1    1    2    0    0 -0.73349547330E+02  0.71442882077E+02 -0.15762244703E+03  0.22573009835E+03  0.12500000000E+03 0.  0.
</event>
<event>
 5    0  0.5576108E-005  0.2019437E+03  0.7546771E-02  0.1148109E+00
         21   -1    0    0  502  501  0.00000000000E+00  0.00000000000E+00  0.12812247641E+04  0.12812247641E+04  0.00000000000E+00 0.  1.
         21   -1    0    0  501  502 -0.00000000000E+00 -0.00000000000E+00 -0.31829913063E+02  0.31829913063E+02  0.00000000000E+00 0.  1.
         25    1    1    2    0    0 -0.16821036227E+02 -0.43692572951E+02  0.38262897042E+03  0.40524303473E+03  0.12500000000E+03 0.  0.
         25    1    1    2    0    0  0.28837361471E+01 -0.20997071447E+02  0.46030247203E+03  0.47744377544E+03  0.12500000000E+03 0.  0.
         25    1    1    2    0    0  0.13937300080E+02  0.64689644398E+02  0.40646340856E+03  0.43036786697E+03  0.12500000000E+03 0.  0.
</event>
<event>
 5    0  0.5576108E-005  0.3391804E+03  0.7546771E-02  0.1067146E+00
         21   -1    0    0  502  501  0.00000000000E+00  0.00000000000E+00  0.13199478357E+03  0.13199478357E+03  0.00000000000E+00 0.  1.
         21   -1    0    0  501  502 -0.00000000000E+00 -0.00000000000E+00 -0.87157482144E+03  0.87157482144E+03  0.00000000000E+00 0.  1.
         25    1    1    2    0    0  0.98230767967E+02  0.15882882171E+03 -0.15684322749E+03  0.27404502621E+03  0.12500000000E+03 0.  0.
         25    1    1    2    0    0 -0.15458873085E+03 -0.37730428612E+02 -0.47719463052E+03  0.51832516468E+03  0.12500000000E+03 0.  0.
         25    1    1    2    0    0  0.56357962883E+02 -0.12109839310E+03 -0.10554217986E+03  0.21119941411E+03  0.12500000000E+03 0.  0.
</event>
<event>
 5    0  0.5576108E-005  0.2437863E+03  0.7546771E-02  0.1117296E+00
         21   -1    0    0  502  501  0.00000000000E+00  0.00000000000E+00  0.44213388865E+03  0.44213388865E+03  0.00000000000E+00 0.  1.
         21   -1    0    0  501  502 -0.00000000000E+00 -0.00000000000E+00 -0.13442030690E+03  0.13442030690E+03  0.00000000000E+00 0.  1.
         25    1    1    2    0    0  0.43794224621E+01  0.24856760090E+02  0.14959953476E+03  0.19657583438E+03  0.12500000000E+03 0.  0.
         25    1    1    2    0    0  0.10934154658E+03 -0.26493086643E+02  0.37362966420E+02  0.17227434141E+03  0.12500000000E+03 0.  0.
         25    1    1    2    0    0 -0.11372096904E+03  0.16363265530E+01  0.12075108058E+03  0.20770401976E+03  0.12500000000E+03 0.  0.
</event>
<event>
 5    0  0.5576108E-005  0.3548710E+03  0.7546771E-02  0.1060633E+00
         21   -1    0    0  502  501  0.00000000000E+00  0.00000000000E+00  0.53028706582E+02  0.53028706582E+02  0.00000000000E+00 0.  1.
         21   -1    0    0  501  502 -0.00000000000E+00 -0.00000000000E+00 -0.23748166995E+04  0.23748166995E+04  0.00000000000E+00 0.  1.
         25    1    1    2    0    0 -0.79941432996E+01  0.85683678883E+02 -0.16502105041E+04  0.16571738916E+04  0.12500000000E+03 0.  0.
         25    1    1    2    0    0  0.20495585295E+02 -0.23065870657E+02 -0.59894632722E+03  0.61262860389E+03  0.12500000000E+03 0.  0.
         25    1    1    2    0    0 -0.12501441996E+02 -0.62617808226E+02 -0.72631161615E+02  0.15804291062E+03  0.12500000000E+03 0.  0.
</event>
<event>
 5    0  0.5576108E-005  0.3154624E+03  0.7546771E-02  0.1077757E+00
         21   -1    0    0  502  501  0.00000000000E+00  0.00000000000E+00  0.41958598432E+02  0.41958598432E+02  0.00000000000E+00 0. -1.
         21   -1    0    0  501  502 -0.00000000000E+00 -0.00000000000E+00 -0.23717784644E+04  0.23717784644E+04  0.00000000000E+00 0. -1.
         25    1    1    2    0    0  0.83300284702E+01  0.11583800336E+03 -0.11798202908E+04  0.11920942711E+04  0.12500000000E+03 0.  0.
         25    1    1    2    0    0  0.33816823159E+02  0.94301571659E+02 -0.37162481873E+03  0.40468057754E+03  0.12500000000E+03 0.  0.
         25    1    1    2    0    0 -0.42146851629E+02 -0.21013957502E+03 -0.77837475642E+03  0.81696221426E+03  0.12500000000E+03 0.  0.
</event>
<event>
 5    0  0.5576108E-005  0.3248046E+03  0.7546771E-02  0.1073459E+00
         21   -1    0    0  502  501  0.00000000000E+00  0.00000000000E+00  0.13781853282E+04  0.13781853282E+04  0.00000000000E+00 0.  1.
         21   -1    0    0  501  502 -0.00000000000E+00 -0.00000000000E+00 -0.76548521401E+02  0.76548521401E+02  0.00000000000E+00 0.  1.
         25    1    1    2    0    0  0.77712705790E+02 -0.86766656477E+02  0.10400590075E+04  0.10539997421E+04  0.12500000000E+03 0.  0.
         25    1    1    2    0    0 -0.84928483634E+02  0.91561179320E+02  0.17300753640E+03  0.24729113317E+03  0.12500000000E+03 0.  0.
         25    1    1    2    0    0  0.72157778442E+01 -0.47945228428E+01  0.88570262927E+02  0.15344297434E+03  0.12500000000E+03 0.  0.
</event>
<event>
 5    0  0.5576108E-005  0.2536919E+03  0.7546771E-02  0.1110994E+00
         21   -1    0    0  502  501  0.00000000000E+00  0.00000000000E+00  0.74023448542E+03  0.74023448542E+03  0.00000000000E+00 0. -1.
         21   -1    0    0  501  502 -0.00000000000E+00 -0.00000000000E+00 -0.86944879270E+02  0.86944879270E+02  0.00000000000E+00 0. -1.
         25    1    1    2    0    0 -0.37863789882E+02 -0.74810335854E+02  0.16595601254E+03  0.22404609131E+03  0.12500000000E+03 0.  0.
         25    1    1    2    0    0 -0.54306605525E+02  0.94311965424E+02  0.12236416125E+03  0.20601442227E+03  0.12500000000E+03 0.  0.
         25    1    1    2    0    0  0.92170395407E+02 -0.19501629569E+02  0.36496943236E+03  0.39711885111E+03  0.12500000000E+03 0.  0.
</event>
<event>
 5    0  0.5576108E-005  0.3356913E+03  0.7546771E-02  0.1068646E+00
         21   -1    0    0  502  501  0.00000000000E+00  0.00000000000E+00  0.23851012601E+03  0.23851012601E+03  0.00000000000E+00 0. -1.
         21   -1    0    0  501  502 -0.00000000000E+00 -0.00000000000E+00 -0.47246902099E+03  0.47246902099E+03  0.00000000000E+00 0. -1.
         25    1    1    2    0    0 -0.48883769799E+02  0.14654383911E+03 -0.18471791790E+03  0.27131241940E+03  0.12500000000E+03 0.  0.
         25    1    1    2    0    0  0.97205867736E+02 -0.13595439964E+03  0.10618887584E+03  0.23416587466E+03  0.12500000000E+03 0.  0.
         25    1    1    2    0    0 -0.48322097937E+02 -0.10589439466E+02 -0.15542985292E+03  0.20550085293E+03  0.12500000000E+03 0.  0.
</event>
<event>
 5    0  0.5576108E-005  0.3669302E+03  0.7546771E-02  0.1055873E+00
         21   -1    0    0  502  501  0.00000000000E+00  0.00000000000E+00  0.73069915263E+02  0.73069915263E+02  0.00000000000E+00 0.  1.
         21   -1    0    0  501  502 -0.00000000000E+00 -0.00000000000E+00 -0.18425880665E+04  0.18425880665E+04  0.00000000000E+00 0.  1.
         25    1    1    2    0    0  0.40123912469E+01  0.99796677750E+02 -0.38174142874E+03  0.41391665174E+03  0.12500000000E+03 0.  0.
         25    1    1    2    0    0  0.13529238595E+03 -0.22711067757E+03 -0.10849292662E+04  0.11236457637E+04  0.12500000000E+03 0.  0.
         25    1    1    2    0    0 -0.13930477720E+03  0.12731399982E+03 -0.30284745627E+03  0.37809556632E+03  0.12500000000E+03 0.  0.
</event>
<event>
 5    0  0.5576108E-005  0.3608861E+03  0.7546771E-02  0.1058234E+00
         21   -1    0    0  502  501  0.00000000000E+00  0.00000000000E+00  0.59408754680E+03  0.59408754680E+03  0.00000000000E+00 0.  1.
         21   -1    0    0  501  502 -0.00000000000E+00 -0.00000000000E+00 -0.21922491252E+03  0.21922491252E+03  0.00000000000E+00 0.  1.
         25    1    1    2    0    0 -0.19796505675E+03  0.55442383807E+02  0.30644977744E+02  0.24254512215E+03  0.12500000000E+03 0.  0.
         25    1    1    2    0    0 -0.46673189520E+02 -0.77113083468E+01  0.78915272911E+01  0.13388475305E+03  0.12500000000E+03 0.  0.
         25    1    1    2    0    0  0.24463824627E+03 -0.47731075460E+02  0.33632612924E+03  0.43688258413E+03  0.12500000000E+03 0.  0.
</event>
<event>
 5    0  0.5576108E-005  0.3040579E+03  0.7546771E-02  0.1083230E+00
         21   -1    0    0  502  501  0.00000000000E+00  0.00000000000E+00  0.10865445887E+04  0.10865445887E+04  0.00000000000E+00 0.  1.
         21   -1    0    0  501  502 -0.00000000000E+00 -0.00000000000E+00 -0.85087364167E+02  0.85087364167E+02  0.00000000000E+00 0.  1.
         25    1    1    2    0    0  0.13550241814E+02  0.10616877577E+03  0.40574124899E+03  0.43784287037E+03  0.12500000000E+03 0.  0.
         25    1    1    2    0    0 -0.45854885393E+02 -0.20938947559E+03  0.25896407125E+03  0.35865584228E+03  0.12500000000E+03 0.  0.
         25    1    1    2    0    0  0.32304643579E+02  0.10322069982E+03  0.33675190426E+03  0.37513324018E+03  0.12500000000E+03 0.  0.
</event>
<event>
 5    0  0.5576108E-005  0.4083814E+03  0.7546771E-02  0.1040916E+00
         21   -1    0    0  502  501  0.00000000000E+00  0.00000000000E+00  0.32085213415E+03  0.32085213415E+03  0.00000000000E+00 0. -1.
         21   -1    0    0  501  502 -0.00000000000E+00 -0.00000000000E+00 -0.51978885536E+03  0.51978885536E+03  0.00000000000E+00 0. -1.
         25    1    1    2    0    0 -0.25103768634E+03 -0.31009490984E+02  0.10435408661E+03  0.30082600268E+03  0.12500000000E+03 0.  0.
         25    1    1    2    0    0 -0.28020086415E+02 -0.23173455751E+02 -0.51399224284E+02  0.13996076076E+03  0.12500000000E+03 0.  0.
         25    1    1    2    0    0  0.27905777276E+03  0.54182946735E+02 -0.25189158353E+03  0.39985422607E+03  0.12500000000E+03 0.  0.
</event>
<event>
 5    0  0.5576108E-005  0.3046982E+03  0.7546771E-02  0.1082915E+00
         21   -1    0    0  502  501  0.00000000000E+00  0.00000000000E+00  0.12352757611E+04  0.12352757611E+04  0.00000000000E+00 0. -1.
         21   -1    0    0  501  502 -0.00000000000E+00 -0.00000000000E+00 -0.75158112993E+02  0.75158112993E+02  0.00000000000E+00 0. -1.
         25    1    1    2    0    0  0.16477640907E+03  0.44847733015E+02  0.21286537014E+03  0.30016537100E+03  0.12500000000E+03 0.  0.
         25    1    1    2    0    0 -0.95362786444E+02 -0.45464923151E+02  0.74383587730E+03  0.76162847414E+03  0.12500000000E+03 0.  0.
         25    1    1    2    0    0 -0.69413622629E+02  0.61719013621E+00  0.20341640064E+03  0.24864002892E+03  0.12500000000E+03 0.  0.
</event>
<event>
 5    0  0.5576108E-005  0.2790000E+03  0.7546771E-02  0.1096236E+00
         21   -1    0    0  502  501  0.00000000000E+00  0.00000000000E+00  0.16062074872E+04  0.16062074872E+04  0.00000000000E+00 0. -1.
         21   -1    0    0  501  502 -0.00000000000E+00 -0.00000000000E+00 -0.48462608117E+02  0.48462608117E+02  0.00000000000E+00 0. -1.
         25    1    1    2    0    0 -0.51988968236E+02 -0.13872641484E+03  0.39832658708E+03  0.44298638914E+03  0.12500000000E+03 0.  0.
         25    1    1    2    0    0  0.12406729185E+03  0.52084198540E+02  0.61678163475E+03  0.64354490255E+03  0.12500000000E+03 0.  0.
         25    1    1    2    0    0 -0.72078323612E+02  0.86642216296E+02  0.54263665726E+03  0.56813880362E+03  0.12500000000E+03 0.  0.
</event>
<event>
 5    0  0.5576108E-005  0.2420791E+03  0.7546771E-02  0.1118416E+00
         21   -1    0    0  502  501  0.00000000000E+00  0.00000000000E+00  0.24681209665E+03  0.24681209665E+03  0.00000000000E+00 0.  1.
         21   -1    0    0  501  502 -0.00000000000E+00 -0.00000000000E+00 -0.23743681955E+03  0.23743681955E+03  0.00000000000E+00 0.  1.
         25    1    1    2    0    0  0.22530004124E+02  0.20594663782E+02 -0.21639445542E+02  0.13047990982E+03  0.12500000000E+03 0.  0.
         25    1    1    2    0    0 -0.12029655812E+03  0.45897285766E+02  0.28433794673E+02  0.18169013021E+03  0.12500000000E+03 0.  0.
         25    1    1    2    0    0  0.97766553998E+02 -0.66491949548E+02  0.25809279672E+01  0.17207887617E+03  0.12500000000E+03 0.  0.
</event>
<event>
 5    0  0.5576108E-005  0.3356262E+03  0.7546771E-02  0.1068674E+00
         21   -1    0    0  502  501  0.00000000000E+00  0.00000000000E+00  0.14695852187E+03  0.14695852187E+03  0.00000000000E+00 0.  1.
         21   -1    0    0  501  502 -0.00000000000E+00 -0.00000000000E+00 -0.76650829466E+03  0.76650829466E+03  0.00000000000E+00 0.  1.
         25    1    1    2    0    0  0.67150169831E+02  0.13857490382E+02  0.43019998654E+02  0.14891909089E+03  0.12500000000E+03 0.  0.
         25    1    1    2    0    0  0.60991880469E+02  0.87612884992E+02 -0.20444984467E+03  0.26233712296E+03  0.12500000000E+03 0.  0.
         25    1    1    2    0    0 -0.12814205030E+03 -0.10147037537E+03 -0.45811992677E+03  0.50221060267E+03  0.12500000000E+03 0.  0.
</event>
<event>
 5    0  0.5576108E-005  0.2674296E+03  0.7546771E-02  0.1102760E+00
         21   -1    0    0  502  501  0.00000000000E+00  0.00000000000E+00  0.47205842560E+03  0.47205842560E+03  0.00000000000E+00 0. -1.
         21   -1    0    0  501  502 -0.00000000000E+00 -0.00000000000E+00 -0.15150362862E+03  0.15150362862E+03  0.00000000000E+00 0. -1.
         25    1    1    2    0    0 -0.67431427146E+02 -0.70885353892E+02  0.16734122206E+02  0.15961441542E+03  0.12500000000E+03 0.  0.
         25    1    1    2    0    0 -0.10874072944E+02  0.13811652429E+03  0.13823320209E+03  0.23222368076E+03  0.12500000000E+03 0.  0.
         25    1    1    2    0    0  0.78305500090E+02 -0.67231170402E+02  0.16558747268E+03  0.23172395803E+03  0.12500000000E+03 0.  0.
</event>
<event>
 5    0  0.5576108E-005  0.2428264E+03  0.7546771E-02  0.1117924E+00
         21   -1    0    0  502  501  0.00000000000E+00  0.00000000000E+00  0.72056572099E+03  0.72056572099E+03  0.00000000000E+00 0. -1.
         21   -1    0    0  501  502 -0.00000000000E+00 -0.00000000000E+00 -0.81831087683E+02  0.81831087683E+02  0.00000000000E+00 0. -1.
         25    1    1    2    0    0 -0.22908027971E+02  0.11301140886E+03  0.29979584739E+03  0.34467217235E+03  0.12500000000E+03 0.  0.
         25    1    1    2    0    0  0.97133871794E+01 -0.47594252790E+01  0.75569571921E+02  0.14646761492E+03  0.12500000000E+03 0.  0.
         25    1    1    2    0    0  0.13194640791E+02 -0.10825198358E+03  0.26336921399E+03  0.31125702140E+03  0.12500000000E+03 0.  0.
</event>
<event>
 5    0  0.5576108E-005  0.2701483E+03  0.7546771E-02  0.1101195E+00
         21   -1    0    0  502  501  0.00000000000E+00  0.00000000000E+00  0.27721118145E+03  0.27721118145E+03  0.00000000000E+00 0. -1.
         21   -1    0    0  501  502 -0.00000000000E+00 -0.00000000000E+00 -0.26326538465E+03  0.26326538465E+03  0.00000000000E+00 0. -1.
         25    1    1    2    0    0  0.17236881503E+01  0.55168112029E+02 -0.92096052120E+02  0.16478220323E+03  0.12500000000E+03 0.  0.
         25    1    1    2    0    0  0.11935583931E+03 -0.67883408404E+02  0.61555932800E+02  0.19562235654E+03  0.12500000000E+03 0.  0.
         25    1    1    2    0    0 -0.12107952746E+03  0.12715296375E+02  0.44485916122E+02  0.18007200634E+03  0.12500000000E+03 0.  0.
</event>
<event>
 5    0  0.5576108E-005  0.3539033E+03  0.7546771E-02  0.1061024E+00
         21   -1    0    0  502  501  0.00000000000E+00  0.00000000000E+00  0.20855846751E+04  0.20855846751E+04  0.00000000000E+00 0.  1.
         21   -1    0    0  501  502 -0.00000000000E+00 -0.00000000000E+00 -0.60053922910E+02  0.60053922910E+02  0.00000000000E+00 0.  1.
         25    1    1    2    0    0  0.23097776764E+03 -0.71903613230E+02  0.77605827790E+03  0.82244289130E+03  0.12500000000E+03 0.  0.
         25    1    1    2    0    0 -0.84900776088E+02 -0.45858857002E+02  0.84953085826E+03  0.86408266716E+03  0.12500000000E+03 0.  0.
         25    1    1    2    0    0 -0.14607699156E+03  0.11776247023E+03  0.39994161599E+03  0.45911303952E+03  0.12500000000E+03 0.  0.
</event>
<event>
 5    0  0.5576108E-005  0.4231072E+03  0.7546771E-02  0.1036060E+00
         21   -1    0    0  502  501  0.00000000000E+00  0.00000000000E+00  0.20156651730E+03  0.20156651730E+03  0.00000000000E+00 0.  1.
         21   -1    0    0  501  502 -0.00000000000E+00 -0.00000000000E+00 -0.88814186886E+03  0.88814186886E+03  0.00000000000E+00 0.  1.
         25    1    1    2    0    0  0.19085845498E+03  0.88897458199E+02 -0.49809248169E+03  0.55502326818E+03  0.12500000000E+03 0.  0.
         25    1    1    2    0    0 -0.17403549485E+03 -0.10412970944E+03  0.68607326667E+02  0.24791796048E+03  0.12500000000E+03 0.  0.
         25    1    1    2    0    0 -0.16822960125E+02  0.15232251240E+02 -0.25709019654E+03  0.28676715750E+03  0.12500000000E+03 0.  0.
</event>
<event>
 5    0  0.5576108E-005  0.4603688E+03  0.7546771E-02  0.1024674E+00
         21   -1    0    0  502  501  0.00000000000E+00  0.00000000000E+00  0.59940830714E+03  0.59940830714E+03  0.00000000000E+00 0. -1.
         21   -1    0    0  501  502 -0.00000000000E+00 -0.00000000000E+00 -0.35358102792E+03  0.35358102792E+03  0.00000000000E+00 0. -1.
         25    1    1    2    0    0 -0.14533358512E+02 -0.24489417650E+03  0.37919750245E+03  0.46861511079E+03  0.12500000000E+03 0.  0.
         25    1    1    2    0    0  0.70223627191E+02  0.27119264899E+03 -0.15443693480E+03  0.34344224771E+03  0.12500000000E+03 0.  0.
         25    1    1    2    0    0 -0.55690268679E+02 -0.26298472489E+02  0.21066711561E+02  0.14093197656E+03  0.12500000000E+03 0.  0.
</event>
<event>
 5    0  0.5576108E-005  0.2439296E+03  0.7546771E-02  0.1117202E+00
         21   -1    0    0  502  501  0.00000000000E+00  0.00000000000E+00  0.36191145514E+03  0.36191145514E+03  0.00000000000E+00 0. -1.
         21   -1    0    0  501  502 -0.00000000000E+00 -0.00000000000E+00 -0.16440943023E+03  0.16440943023E+03  0.00000000000E+00 0. -1.
         25    1    1    2    0    0  0.10730600501E+03 -0.66843138642E+02  0.14055730997E+03  0.22663614293E+03  0.12500000000E+03 0.  0.
         25    1    1    2    0    0 -0.85598026726E+02  0.35903587801E+01  0.17590667107E+02  0.15255931445E+03  0.12500000000E+03 0.  0.
         25    1    1    2    0    0 -0.21707978283E+02  0.63252779862E+02  0.39354047833E+02  0.14712542799E+03  0.12500000000E+03 0.  0.
</event>
<event>
 5    0  0.5576108E-005  0.3513752E+03  0.7546771E-02  0.1062052E+00
         21   -1    0    0  502  501  0.00000000000E+00  0.00000000000E+00  0.63833084876E+03  0.63833084876E+03  0.00000000000E+00 0. -1.
         21   -1    0    0  501  502 -0.00000000000E+00 -0.00000000000E+00 -0.19341781306E+03  0.19341781306E+03  0.00000000000E+00 0. -1.
         25    1    1    2    0    0  0.91256422308E+02 -0.16029711673E+03 -0.61846502403E+02  0.23124205955E+03  0.12500000000E+03 0.  0.
         25    1    1    2    0    0 -0.37804815071E+02  0.12060453098E+03  0.32078192306E+03  0.36674336953E+03  0.12500000000E+03 0.  0.
         25    1    1    2    0    0 -0.53451607238E+02  0.39692585751E+02  0.18597761504E+03  0.23376323273E+03  0.12500000000E+03 0.  0.
</event>
<event>
 5    0  0.5576108E-005  0.2190327E+03  0.7546771E-02  0.1134606E+00
         21   -1    0    0  502  501  0.00000000000E+00  0.00000000000E+00  0.10651606730E+04  0.10651606730E+04  0.00000000000E+00 0.  1.
         21   -1    0    0  501  502 -0.00000000000E+00 -0.00000000000E+00 -0.45040442985E+02  0.45040442985E+02  0.00000000000E+00 0.  1.
         25    1    1    2    0    0 -0.64496145273E+01 -0.38613258448E+02  0.15023182196E+03  0.19931678701E+03  0.12500000000E+03 0.  0.
         25    1    1    2    0    0 -0.43518617756E+02  0.21983947875E+02  0.40841859719E+03  0.42989291060E+03  0.12500000000E+03 0.  0.
         25    1    1    2    0    0  0.49968232284E+02  0.16629310573E+02  0.46146981091E+03  0.48099141842E+03  0.12500000000E+03 0.  0.
</event>
<event>
 5    0  0.5576108E-005  0.3768269E+03  0.7546771E-02  0.1052113E+00
         21   -1    0    0  502  501  0.00000000000E+00  0.00000000000E+00  0.51091821260E+03  0.51091821260E+03  0.00000000000E+00 0.  1.
         21   -1    0    0  501  502 -0.00000000000E+00 -0.00000000000E+00 -0.27792812322E+03  0.27792812322E+03  0.00000000000E+00 0.  1.
         25    1    1    2    0    0 -0.11237838414E+03 -0.91426130856E+02  0.67495646864E+02  0.20289973132E+03  0.12500000000E+03 0.  0.
         25    1    1    2    0    0  0.68742332445E+02  0.28698625439E+03  0.13524422148E+03  0.34785430560E+03  0.12500000000E+03 0.  0.
         25    1    1    2    0    0  0.43636051694E+02 -0.19556012353E+03  0.30250221033E+02  0.23809229890E+03  0.12500000000E+03 0.  0.
</event>
<event>
 5    0  0.5576108E-005  0.3499905E+03  0.7546771E-02  0.1062619E+00
         21   -1    0    0  502  501  0.00000000000E+00  0.00000000000E+00  0.77057721295E+02  0.77057721295E+02  0.00000000000E+00 0. -1.
         21   -1    0    0  501  502 -0.00000000000E+00 -0.00000000000E+00 -0.15896308678E+04  0.15896308678E+04  0.00000000000E+00 0. -1.
         25    1    1    2    0    0  0.91707589810E+02  0.38419133413E+02 -0.13795455617E+03  0.21105158471E+03  0.12500000000E+03 0.  0.
         25    1    1    2    0    0 -0.18679289768E+03  0.10732221398E+03 -0.91901521983E+03  0.95216785207E+03  0.12500000000E+03 0.  0.
         25    1    1    2    0    0  0.95085307870E+02 -0.14574134740E+03 -0.45560337047E+03  0.50346915228E+03  0.12500000000E+03 0.  0.
</event>
<event>
 5    0  0.5576108E-005  0.3004107E+03  0.7546771E-02  0.1085036E+00
         21   -1    0    0  502  501  0.00000000000E+00  0.00000000000E+00  0.11613329086E+04  0.11613329086E+04  0.00000000000E+00 0.  1.
         21   -1    0    0  501  502 -0.00000000000E+00 -0.00000000000E+00 -0.77709466777E+02  0.77709466777E+02  0.00000000000E+00 0.  1.
         25    1    1    2    0    0 -0.83109769958E+01  0.86645470102E+02  0.14807376131E+03  0.21243198586E+03  0.12500000000E+03 0.  0.
         25    1    1    2    0    0  0.87328299253E+02  0.10088816187E+03  0.37034829978E+03  0.41302241611E+03  0.12500000000E+03 0.  0.
         25    1    1    2    0    0 -0.79017322257E+02 -0.18753363197E+03  0.56520138074E+03  0.61358797342E+03  0.12500000000E+03 0.  0.
</event>
<event>
 5    0  0.5576108E-005  0.2363326E+03  0.7546771E-02  0.1122260E+00
         21   -1    0    0  502  501  0.00000000000E+00  0.00000000000E+00  0.24255813406E+02  0.24255813406E+02  0.00000000000E+00 0. -1.
         21   -1    0    0  501  502 -0.00000000000E+00 -0.00000000000E+00 -0.23026692924E+04  0.23026692924E+04  0.00000000000E+00 0. -1.
         25    1    1    2    0    0  0.74393040184E+02 -0.34161921956E+02 -0.49614602840E+03  0.51815754635E+03  0.12500000000E+03 0.  0.
         25    1    1    2    0    0  0.41722813815E+02  0.27214587398E+02 -0.65917744345E+03  0.67277137938E+03  0.12500000000E+03 0.  0.
         25    1    1    2    0    0 -0.11611585400E+03  0.69473345573E+01 -0.11230900071E+04  0.11359961801E+04  0.12500000000E+03 0.  0.
</event>
<event>
 5    0  0.5576108E-005  0.3162911E+03  0.7546771E-02  0.1077369E+00
         21   -1    0    0  502  501  0.00000000000E+00  0.00000000000E+00  0.65264862965E+02  0.65264862965E+02  0.00000000000E+00 0.  1.
         21   -1    0    0  501  502 -0.00000000000E+00 -0.00000000000E+00 -0.15328314059E+04  0.15328314059E+04  0.00000000000E+00 0.  1.
         25    1    1    2    0    0  0.14750051586E+03  0.37915966336E+01 -0.62516994317E+03  0.65439532106E+03  0.12500000000E+03 0.  0.
         25    1    1    2    0    0  0.54040086824E+02  0.87752717198E+02 -0.23682512497E+03  0.28693555056E+03  0.12500000000E+03 0.  0.
         25    1    1    2    0    0 -0.20154060269E+03 -0.91544313831E+02 -0.60557147478E+03  0.65676539723E+03  0.12500000000E+03 0.  0.
</event>
<event>
 5    0  0.5576108E-005  0.3571472E+03  0.7546771E-02  0.1059719E+00
         21   -1    0    0  502  501  0.00000000000E+00  0.00000000000E+00  0.19809225587E+03  0.19809225587E+03  0.00000000000E+00 0. -1.
         21   -1    0    0  501  502 -0.00000000000E+00 -0.00000000000E+00 -0.64391282271E+03  0.64391282271E+03  0.00000000000E+00 0. -1.
         25    1    1    2    0    0  0.15542678898E+03 -0.96786496215E+02 -0.34092297560E+03  0.40666766269E+03  0.12500000000E+03 0.  0.
         25    1    1    2    0    0 -0.22284539295E+03  0.94943366718E+02 -0.28511980694E+02  0.27406613269E+03  0.12500000000E+03 0.  0.
         25    1    1    2    0    0  0.67418603965E+02  0.18431294965E+01 -0.76385610549E+02  0.16127128320E+03  0.12500000000E+03 0.  0.
</event>
<event>
 5    0  0.5576108E-005  0.2622756E+03  0.7546771E-02  0.1105784E+00
         21   -1    0    0  502  501  0.00000000000E+00  0.00000000000E+00  0.26859526490E+03  0.26859526490E+03  0.00000000000E+00 0. -1.
         21   -1    0    0  501  502 -0.00000000000E+00 -0.00000000000E+00 -0.25610463760E+03  0.25610463760E+03  0.00000000000E+00 0. -1.
         25    1    1    2    0    0 -0.30265873620E+02  0.80714951846E+02  0.31880966148E+02  0.15515257832E+03  0.12500000000E+03 0.  0.
         25    1    1    2    0    0 -0.71332873504E+01  0.56483720098E+02 -0.93573495393E+02  0.16619955916E+03  0.12500000000E+03 0.  0.
         25    1    1    2    0    0  0.37399160970E+02 -0.13719867194E+03  0.74183156541E+02  0.20334776502E+03  0.12500000000E+03 0.  0.
</event>
<event>
 5    0  0.5576108E-005  0.2450300E+03  0.7546771E-02  0.1116487E+00
         21   -1    0    0  502  501  0.00000000000E+00  0.00000000000E+00  0.70615838861E+03  0.70615838861E+03  0.00000000000E+00 0.  1.
         21   -1    0    0  501  502 -0.00000000000E+00 -0.00000000000E+00 -0.85023007217E+02  0.85023007217E+02  0.00000000000E+00 0.  1.
         25    1    1    2    0    0 -0.39686100208E+02  0.12294879535E+03  0.13793678209E+03  0.22658982475E+03  0.12500000000E+03 0.  0.
         25    1    1    2    0    0  0.39085003551E+02 -0.82204701750E+02  0.31678195585E+03  0.35250681986E+03  0.12500000000E+03 0.  0.
         25    1    1    2    0    0  0.60109665702E+00 -0.40744093604E+02  0.16641664345E+03  0.21208475122E+03  0.12500000000E+03 0.  0.
</event>
<event>
 5    0  0.5576108E-005  0.2196678E+03  0.7546771E-02  0.1134131E+00
         21   -1    0    0  502  501  0.00000000000E+00  0.00000000000E+00  0.22967189756E+03  0.22967189756E+03  0.00000000000E+00 0. -1.
         21   -1    0    0  501  502 -0.00000000000E+00 -0.00000000000E+00 -0.21009938863E+03  0.21009938863E+03  0.00000000000E+00 0. -1.
         25    1    1    2    0    0  0.63057426625E+02 -0.21378393308E+02 -0.36892094231E+02  0.14635334424E+03  0.12500000000E+03 0.  0.
         25    1    1    2    0    0 -0.13142444458E+02  0.64974146819E+02  0.55352547558E+02  0.15193178773E+03  0.12500000000E+03 0.  0.
         25    1    1    2    0    0 -0.49914982167E+02 -0.43595753511E+02  0.11120556041E+01  0.14148615422E+03  0.12500000000E+03 0.  0.
</event>
<event>
 5    0  0.5576108E-005  0.3127183E+03  0.7546771E-02  0.1079050E+00
         21   -1    0    0  502  501  0.00000000000E+00  0.00000000000E+00  0.12278188137E+03  0.12278188137E+03  0.00000000000E+00 0.  1.
         21   -1    0    0  501  502 -0.00000000000E+00 -0.00000000000E+00 -0.79647509009E+03  0.79647509009E+03  0.00000000000E+00 0.  1.
         25    1    1    2    0    0  0.53064114597E+02 -0.73853810425E+02 -0.48300689299E+03  0.50713986655E+03  0.12500000000E+03 0.  0.
         25    1    1    2    0    0  0.90999551408E+02  0.29996862995E+02 -0.33316467169E+02  0.16098359274E+03  0.12500000000E+03 0.  0.
         25    1    1    2    0    0 -0.14406366601E+03  0.43856947430E+02 -0.15736984856E+03  0.25113351218E+03  0.12500000000E+03 0.  0.
</event>
<event>
 5    0  0.5576108E-005  0.4140185E+03  0.7546771E-02  0.1039031E+00
         21   -1    0    0  502  501  0.00000000000E+00  0.00000000000E+00  0.73461064772E+03  0.73461064772E+03  0.00000000000E+00 0. -1.
         21   -1    0    0  501  502 -0.00000000000E+00 -0.00000000000E+00 -0.23333630687E+03  0.23333630687E+03  0.00000000000E+00 0. -1.
         25    1    1    2    0    0 -0.22528051980E+03  0.18223462996E+03  0.17398149092E+03  0.36035445348E+03  0.12500000000E+03 0.  0.
         25    1    1    2    0    0  0.26150710270E+03 -0.26384113580E+01  0.17589682859E+03  0.33905400792E+03  0.12500000000E+03 0.  0.
         25    1    1    2    0    0 -0.36226582900E+02 -0.17959621861E+03  0.15139602134E+03  0.26853849319E+03  0.12500000000E+03 0.  0.
</event>
<event>
 5    0  0.6415050E-005  0.3544482E+03  0.7546771E-02  0.1060804E+00
         21   -1    0    0  502  501  0.00000000000E+00  0.00000000000E+00  0.14282136637E+03  0.14282136637E+03  0.00000000000E+00 0.  1.
         21   -1    0    0  501  502 -0.00000000000E+00 -0.00000000000E+00 -0.87965484099E+03  0.87965484099E+03  0.00000000000E+00 0.  1.
         25    1    1    2    0    0  0.10457850233E+03 -0.10066810777E+03 -0.37355093655E+03  0.41980475613E+03  0.12500000000E+03 0.  0.
         25    1    1    2    0    0  0.90619980234E+02 -0.34022458273E+01  0.58556934732E+01  0.15454075592E+03  0.12500000000E+03 0.  0.
         25    1    1    2    0    0 -0.19519848257E+03  0.10407035360E+03 -0.36913823154E+03  0.44813069531E+03  0.12500000000E+03 0.  0.
</event>
<event>
 5    0  0.5576108E-005  0.3494985E+03  0.7546771E-02  0.1062821E+00
         21   -1    0    0  502  501  0.00000000000E+00  0.00000000000E+00  0.39247628657E+03  0.39247628657E+03  0.00000000000E+00 0. -1.
         21   -1    0    0  501  502 -0.00000000000E+00 -0.00000000000E+00 -0.31122693096E+03  0.31122693096E+03  0.00000000000E+00 0. -1.
         25    1    1    2    0    0  0.10100805533E+03  0.37167532400E+02 -0.14035982368E+03  0.21658700979E+03  0.12500000000E+03 0.  0.
         25    1    1    2    0    0 -0.17982858529E+03 -0.13280482524E+03  0.11040333723E+03  0.27890740141E+03  0.12500000000E+03 0.  0.
         25    1    1    2    0    0  0.78820529961E+02  0.95637292836E+02  0.11120584207E+03  0.20820880633E+03  0.12500000000E+03 0.  0.
</event>
<event>
 5    0  0.5576108E-005  0.2461262E+03  0.7546771E-02  0.1115778E+00
         21   -1    0    0  502  501  0.00000000000E+00  0.00000000000E+00  0.33036375369E+02  0.33036375369E+02  0.00000000000E+00 0.  1.
         21   -1    0    0  501  502 -0.00000000000E+00 -0.00000000000E+00 -0.18336786255E+04  0.18336786255E+04  0.00000000000E+00 0.  1.
         25    1    1    2    0    0 -0.67974672549E+02  0.90813303105E+01 -0.33006936763E+03  0.35954667864E+03  0.12500000000E+03 0.  0.
         25    1    1    2    0    0 -0.57119589161E+02  0.25408754785E+01 -0.42481566177E+03  0.44650022396E+03  0.12500000000E+03 0.  0.
         25    1    1    2    0    0  0.12509426171E+03 -0.11622205789E+02 -0.10457572207E+04  0.10606680982E+04  0.12500000000E+03 0.  0.
</event>
<event>
 5    0  0.5576108E-005  0.2580884E+03  0.7546771E-02  0.1108297E+00
         21   -1    0    0  502  501  0.00000000000E+00  0.00000000000E+00  0.88846836526E+02  0.88846836526E+02  0.00000000000E+00 0.  1.
         21   -1    0    0  501  502 -0.00000000000E+00 -0.00000000000E+00 -0.74971308154E+03  0.74971308154E+03  0.00000000000E+00 0.  1.
         25    1    1    2    0    0  0.13150622726E+03  0.15756689628E+02 -0.13822550602E+03  0.22863388111E+03  0.12500000000E+03 0.  0.
         25    1    1    2    0    0 -0.10180457172E+03 -0.25881258230E+02 -0.39991450965E+03  0.43196137024E+03  0.12500000000E+03 0.  0.
         25    1    1    2    0    0 -0.29701655540E+02  0.10124568602E+02 -0.12272622935E+03  0.17796466672E+03  0.12500000000E+03 0.  0.
</event>
<event>
 5    0  0.5576108E-005  0.3351020E+03  0.7546771E-02  0.1068901E+00
         21   -1    0    0  502  501  0.00000000000E+00  0.00000000000E+00  0.19748770650E+03  0.19748770650E+03  0.00000000000E+00 0.  1.
         21   -1    0    0  501  502 -0.00000000000E+00 -0.00000000000E+00 -0.56860917004E+03  0.56860917004E+03  0.00000000000E+00 0.  1.
         25    1    1    2    0    0  0.82650809325E+02 -0.69676250231E+02 -0.21927243326E+02  0.16670854846E+03  0.12500000000E+03 0.  0.
         25    1    1    2    0    0 -0.44390350711E+02  0.22878699928E+03 -0.27226789158E+03  0.37956395912E+03  0.12500000000E+03 0.  0.
         25    1    1    2    0    0 -0.38260458614E+02 -0.15911074904E+03 -0.76926328627E+02  0.21982436896E+03  0.12500000000E+03 0.  0.
</event>
<event>
 5    0  0.5576108E-005  0.3155233E+03  0.7546771E-02  0.1077728E+00
         21   -1    0    0  502  501  0.00000000000E+00  0.00000000000E+00  0.89027861749E+03  0.89027861749E+03  0.00000000000E+00 0.  1.
         21   -1    0    0  501  502 -0.00000000000E+00 -0.00000000000E+00 -0.11182445837E+03  0.11182445837E+03  0.00000000000E+00 0.  1.
         25    1    1    2    0    0 -0.15499927352E+03  0.59933708386E+02  0.40653165913E+03  0.45662874862E+03  0.12500000000E+03 0.  0.
         25    1    1    2    0    0 -0.63218909926E+02 -0.43321120127E+02  0.12565561909E+03  0.19310019324E+03  0.12500000000E+03 0.  0.
         25    1    1    2    0    0  0.21821818345E+03 -0.16612588258E+02  0.24626688091E+03  0.35237413400E+03  0.12500000000E+03 0.  0.
</event>
<event>
 5    0  0.5576108E-005  0.4504801E+03  0.7546771E-02  0.1027579E+00
         21   -1    0    0  502  501  0.00000000000E+00  0.00000000000E+00  0.18866496829E+04  0.18866496829E+04  0.00000000000E+00 0. -1.
         21   -1    0    0  501  502 -0.00000000000E+00 -0.00000000000E+00 -0.10756228895E+03  0.10756228895E+03  0.00000000000E+00 0. -1.
         25    1    1    2    0    0  0.20145327560E+03  0.21814706933E+03  0.50931575873E+03  0.60266002704E+03  0.12500000000E+03 0.  0.
         25    1    1    2    0    0 -0.95646266617E+02 -0.24841606713E+03  0.35148532208E+03  0.45828559040E+03  0.12500000000E+03 0.  0.
         25    1    1    2    0    0 -0.10580700898E+03  0.30268997805E+02  0.91828631314E+03  0.93326635441E+03  0.12500000000E+03 0.  0.
</event>
<event>
 5    0  0.5576108E-005  0.2475814E+03  0.7546771E-02  0.1114843E+00
         21   -1    0    0  502  501  0.00000000000E+00  0.00000000000E+00  0.74247362508E+02  0.74247362508E+02  0.00000000000E+00 0. -1.
         21   -1    0    0  501  502 -0.00000000000E+00 -0.00000000000E+00 -0.82557197746E+03  0.82557197746E+03  0.00000000000E+00 0. -1.
         25    1    1    2    0    0 -0.42869972372E+01 -0.44514944908E+01 -0.10253745715E+03  0.16179346176E+03  0.12500000000E+03 0.  0.
         25    1    1    2    0    0  0.85884339261E+01  0.12549635513E+03 -0.30982385132E+03  0.35698587534E+03  0.12500000000E+03 0.  0.
         25    1    1    2    0    0 -0.43014366889E+01 -0.12104486064E+03 -0.33896330647E+03  0.38104000286E+03  0.12500000000E+03 0.  0.
</event>
<event>
 5    0  0.5576108E-005  0.2848845E+03  0.7546771E-02  0.1093051E+00
         21   -1    0    0  502  501  0.00000000000E+00  0.00000000000E+00  0.52951736033E+03  0.52951736033E+03  0.00000000000E+00 0. -1.
         21   -1    0    0  501  502 -0.00000000000E+00 -0.00000000000E+00 -0.15327009599E+03  0.15327009599E+03  0.00000000000E+00 0. -1.
         25    1    1    2    0    0  0.55603636617E+02 -0.11556744012E+03  0.24929148014E+03  0.30695087505E+03  0.12500000000E+03 0.  0.
         25    1    1    2    0    0  0.45415372201E+02  0.11947200940E+03  0.13933061420E+02  0.17931884247E+03  0.12500000000E+03 0.  0.
         25    1    1    2    0    0 -0.10101900882E+03 -0.39045692771E+01  0.11302272278E+03  0.19651773881E+03  0.12500000000E+03 0.  0.
</event>
<event>
 5    0  0.6270105E-005  0.3445369E+03  0.7546771E-02  0.1064880E+00
         21   -1    0    0  502  501  0.00000000000E+00  0.00000000000E+00  0.55108563920E+03  0.55108563920E+03  0.00000000000E+00 0.  1.
         21   -1    0    0  501  502 -0.00000000000E+00 -0.00000000000E+00 -0.21540328175E+03  0.21540328175E+03  0.00000000000E+00 0.  1.
         25    1    1    2    0    0  0.49464389503E+02  0.12176910235E+03  0.29195167614E+03  0.34370804662E+03  0.12500000000E+03 0.  0.
         25    1    1    2    0    0 -0.91525452819E+02  0.82033071420E+02 -0.41379181797E+01  0.17535237577E+03  0.12500000000E+03 0.  0.
         25    1    1    2    0    0  0.42061063316E+02 -0.20380217377E+03  0.47868599488E+02  0.24742849856E+03  0.12500000000E+03 0.  0.
</event>
<event>
 5    0  0.5576108E-005  0.2664530E+03  0.7546771E-02  0.1103327E+00
         21   -1    0    0  502  501  0.00000000000E+00  0.00000000000E+00  0.36748553872E+03  0.36748553872E+03  0.00000000000E+00 0. -1.
         21   -1    0    0  501  502 -0.00000000000E+00 -0.00000000000E+00 -0.19319732379E+03  0.19319732379E+03  0.00000000000E+00 0. -1.
         25    1    1    2    0    0 -0.22426923989E+02  0.82224785840E+00  0.37361358385E+02  0.13238018776E+03  0.12500000000E+03 0.  0.
         25    1    1    2    0    0  0.51582317242E+02  0.32659971682E+02  0.22821751892E+03  0.26727447530E+03  0.12500000000E+03 0.  0.
         25    1    1    2    0    0 -0.29155393253E+02 -0.33482219540E+02 -0.91290662380E+02  0.16102819945E+03  0.12500000000E+03 0.  0.
</event>
<event>
 5    0  0.5576108E-005  0.2883386E+03  0.7546771E-02  0.1091220E+00
         21   -1    0    0  502  501  0.00000000000E+00  0.00000000000E+00  0.11575580382E+04  0.11575580382E+04  0.00000000000E+00 0.  1.
         21   -1    0    0  501  502 -0.00000000000E+00 -0.00000000000E+00 -0.71822892987E+02  0.71822892987E+02  0.00000000000E+00 0.  1.
         25    1    1    2    0    0  0.56166114108E+02  0.86880998761E+02  0.51877563628E+03  0.54355873750E+03  0.12500000000E+03 0.  0.
         25    1    1    2    0    0  0.91872088523E+02 -0.60970549853E+02  0.38168474904E+03  0.41649266049E+03  0.12500000000E+03 0.  0.
         25    1    1    2    0    0 -0.14803820263E+03 -0.25910448909E+02  0.18527475995E+03  0.26932953324E+03  0.12500000000E+03 0.  0.
</event>
<event>
 5    0  0.5576108E-005  0.2582907E+03  0.7546771E-02  0.1108175E+00
         21   -1    0    0  502  501  0.00000000000E+00  0.00000000000E+00  0.10762306606E+03  0.10762306606E+03  0.00000000000E+00 0. -1.
         21   -1    0    0  501  502 -0.00000000000E+00 -0.00000000000E+00 -0.61988664219E+03  0.61988664219E+03  0.00000000000E+00 0. -1.
         25    1    1    2    0    0 -0.12538900792E+03 -0.10098901729E+03 -0.23324326758E+03  0.30975572116E+03  0.12500000000E+03 0.  0.
         25    1    1    2    0    0  0.90607804261E+02  0.44952169539E+02 -0.98797377030E+02  0.18872306019E+03  0.12500000000E+03 0.  0.
         25    1    1    2    0    0  0.34781203661E+02  0.56036847752E+02 -0.18022293151E+03  0.22903092690E+03  0.12500000000E+03 0.  0.
</event>
<event>
 5    0  0.5576108E-005  0.2998582E+03  0.7546771E-02  0.1085312E+00
         21   -1    0    0  502  501  0.00000000000E+00  0.00000000000E+00  0.13987611612E+03  0.13987611612E+03  0.00000000000E+00 0. -1.
         21   -1    0    0  501  502 -0.00000000000E+00 -0.00000000000E+00 -0.64281835683E+03  0.64281835683E+03  0.00000000000E+00 0. -1.
         25    1    1    2    0    0  0.10775022503E+02 -0.32549139553E+02  0.51041775305E+02  0.13930473941E+03  0.12500000000E+03 0.  0.
         25    1    1    2    0    0  0.60557291410E+02 -0.35999012294E+02 -0.38600290981E+03  0.41180864587E+03  0.12500000000E+03 0.  0.
         25    1    1    2    0    0 -0.71332313913E+02  0.68548151846E+02 -0.16798110620E+03  0.23158108768E+03  0.12500000000E+03 0.  0.
</event>
<event>
 5    0  0.5576108E-005  0.2893147E+03  0.7546771E-02  0.1090707E+00
         21   -1    0    0  502  501  0.00000000000E+00  0.00000000000E+00  0.88369867132E+02  0.88369867132E+02  0.00000000000E+00 0. -1.
         21   -1    0    0  501  502 -0.00000000000E+00 -0.00000000000E+00 -0.94718919506E+03  0.94718919506E+03  0.00000000000E+00 0. -1.
         25    1    1    2    0    0 -0.11703468341E+03  0.44308825868E+01 -0.18580027131E+03  0.25271226852E+03  0.12500000000E+03 0.  0.
         25    1    1    2    0    0  0.16505844908E+03 -0.95753873410E+02 -0.47510503144E+03  0.52703214967E+03  0.12500000000E+03 0.  0.
         25    1    1    2    0    0 -0.48023765668E+02  0.91322990824E+02 -0.19791402518E+03  0.25581464400E+03  0.12500000000E+03 0.  0.
</event>
<event>
 5    0  0.5576108E-005  0.3610848E+03  0.7546771E-02  0.1058155E+00
         21   -1    0    0  502  501  0.00000000000E+00  0.00000000000E+00  0.10374011327E+03  0.10374011327E+03  0.00000000000E+00 0.  1.
         21   -1    0    0  501  502 -0.00000000000E+00 -0.00000000000E+00 -0.12568161901E+04  0.12568161901E+04  0.00000000000E+00 0.  1.
         25    1    1    2    0    0 -0.80597824334E+01  0.11183974582E+02 -0.23581225210E+02  0.12794966027E+03  0.12500000000E+03 0.  0.
         25    1    1    2    0    0 -0.54644314341E+02 -0.21001423063E+03 -0.57300662966E+03  0.62534276664E+03  0.12500000000E+03 0.  0.
         25    1    1    2    0    0  0.62704096774E+02  0.19883025605E+03 -0.55648822191E+03  0.60726387641E+03  0.12500000000E+03 0.  0.
</event>
<event>
 5    0  0.6740717E-005  0.3423442E+03  0.7546771E-02  0.1065802E+00
         21   -1    0    0  502  501  0.00000000000E+00  0.00000000000E+00  0.34329627472E+03  0.34329627472E+03  0.00000000000E+00 0. -1.
         21   -1    0    0  501  502 -0.00000000000E+00 -0.00000000000E+00 -0.34139475458E+03  0.34139475458E+03  0.00000000000E+00 0. -1.
         25    1    1    2    0    0 -0.47274115791E+02 -0.22007642143E+02  0.18984133486E+03  0.23320358222E+03  0.12500000000E+03 0.  0.
         25    1    1    2    0    0  0.12402533827E+03 -0.11321885545E+03 -0.75933147682E+02  0.22269179751E+03  0.12500000000E+03 0.  0.
         25    1    1    2    0    0 -0.76751222475E+02  0.13522649759E+03 -0.11200666704E+03  0.22879564957E+03  0.12500000000E+03 0.  0.
</event>
<event>
 5    0  0.6561685E-005  0.5076687E+03  0.7546771E-02  0.1011796E+00
         21   -1    0    0  502  501  0.00000000000E+00  0.00000000000E+00  0.46341662673E+03  0.46341662673E+03  0.00000000000E+00 0.  1.
         21   -1    0    0  501  502 -0.00000000000E+00 -0.00000000000E+00 -0.55614653748E+03  0.55614653748E+03  0.00000000000E+00 0.  1.
         25    1    1    2    0    0  0.12516712216E+03 -0.23712166805E+02 -0.39993529980E+03  0.43795241676E+03  0.12500000000E+03 0.  0.
         25    1    1    2    0    0  0.75534061921E+02 -0.13913171304E+03  0.16817206356E+03  0.26262115499E+03  0.12500000000E+03 0.  0.
         25    1    1    2    0    0 -0.20070118408E+03  0.16284387985E+03  0.13903332549E+03  0.31898959245E+03  0.12500000000E+03 0.  0.
</event>
<event>
 5    0  0.5725497E-005  0.2466042E+03  0.7546771E-02  0.1115470E+00
         21   -1    0    0  502  501  0.00000000000E+00  0.00000000000E+00  0.19077558514E+03  0.19077558514E+03  0.00000000000E+00 0.  1.
         21   -1    0    0  501  502 -0.00000000000E+00 -0.00000000000E+00 -0.31877054256E+03  0.31877054256E+03  0.00000000000E+00 0.  1.
         25    1    1    2    0    0 -0.11388112164E+03 -0.12286210385E+02 -0.10867501327E+03  0.20138301652E+03  0.12500000000E+03 0.  0.
         25    1    1    2    0    0  0.10745548822E+03  0.16082479247E+02  0.38807629282E+02  0.17010690809E+03  0.12500000000E+03 0.  0.
         25    1    1    2    0    0  0.64256334168E+01 -0.37962688616E+01 -0.58127573432E+02  0.13805620310E+03  0.12500000000E+03 0.  0.
</event>
<event>
 5    0  0.5576108E-005  0.3191405E+03  0.7546771E-02  0.1076046E+00
         21   -1    0    0  502  501  0.00000000000E+00  0.00000000000E+00  0.43024965130E+03  0.43024965130E+03  0.00000000000E+00 0.  1.
         21   -1    0    0  501  502 -0.00000000000E+00 -0.00000000000E+00 -0.23672454734E+03  0.23672454734E+03  0.00000000000E+00 0.  1.
         25    1    1    2    0    0 -0.17688103261E+03 -0.11080043924E+03  0.13088653501E+03  0.27626060538E+03  0.12500000000E+03 0.  0.
         25    1    1    2    0    0  0.15794093038E+03  0.90273367846E+02  0.11902152627E+03  0.25077029758E+03  0.12500000000E+03 0.  0.
         25    1    1    2    0    0  0.18940102236E+02  0.20527071397E+02 -0.56382957324E+02  0.13994329569E+03  0.12500000000E+03 0.  0.
</event>
<event>
 5    0  0.7282018E-005  0.3421371E+03  0.7546771E-02  0.1065889E+00
         21   -1    0    0  502  501  0.00000000000E+00  0.00000000000E+00  0.49481932222E+03  0.49481932222E+03  0.00000000000E+00 0. -1.
         21   -1    0    0  501  502 -0.00000000000E+00 -0.00000000000E+00 -0.23656674130E+03  0.23656674130E+03  0.00000000000E+00 0. -1.
         25    1    1    2    0    0  0.98720987561E+02  0.21920660709E+02 -0.14066515269E+03  0.21363060158E+03  0.12500000000E+03 0.  0.
         25    1    1    2    0    0 -0.14451663048E+03 -0.14521801863E+02  0.18954107486E+03  0.26953062586E+03  0.12500000000E+03 0.  0.
         25    1    1    2    0    0  0.45795642922E+02 -0.73988588456E+01  0.20937665874E+03  0.24822483608E+03  0.12500000000E+03 0.  0.
</event>
<event>
 5    0  0.5576108E-005  0.4609559E+03  0.7546771E-02  0.1024504E+00
         21   -1    0    0  502  501  0.00000000000E+00  0.00000000000E+00  0.72185204639E+03  0.72185204639E+03  0.00000000000E+00 0. -1.
         21   -1    0    0  501  502 -0.00000000000E+00 -0.00000000000E+00 -0.29435435963E+03  0.29435435963E+03  0.00000000000E+00 0. -1.
         25    1    1    2    0    0 -0.12157415933E+02  0.63063994921E+02  0.23273604818E+03  0.27187485786E+03  0.12500000000E+03 0.  0.
         25    1    1    2    0    0 -0.28708111251E+03 -0.46908233977E+02  0.26411536913E+03  0.41230798657E+03  0.12500000000E+03 0.  0.
         25    1    1    2    0    0  0.29923852844E+03 -0.16155760944E+02 -0.69353730546E+02  0.33202356160E+03  0.12500000000E+03 0.  0.
</event>
<event>
 5    0  0.5576108E-005  0.3690201E+03  0.7546771E-02  0.1055068E+00
         21   -1    0    0  502  501  0.00000000000E+00  0.00000000000E+00  0.78104830990E+03  0.78104830990E+03  0.00000000000E+00 0.  1.
         21   -1    0    0  501  502 -0.00000000000E+00 -0.00000000000E+00 -0.17435003479E+03  0.17435003479E+03  0.00000000000E+00 0.  1.
         25    1    1    2    0    0  0.40484353994E+02  0.63020621306E+02 -0.90570262869E+02  0.17157667133E+03  0.12500000000E+03 0.  0.
         25    1    1    2    0    0  0.64043616411E+02 -0.69162196011E+02  0.51957822978E+03  0.54265231136E+03  0.12500000000E+03 0.  0.
         25    1    1    2    0    0 -0.10452797041E+03  0.61415747051E+01  0.17769030820E+03  0.24116936200E+03  0.12500000000E+03 0.  0.
</event>
<event>
 5    0  0.5576108E-005  0.4435099E+03  0.7546771E-02  0.1029675E+00
         21   -1    0    0  502  501  0.00000000000E+00  0.00000000000E+00  0.17526335974E+04  0.17526335974E+04  0.00000000000E+00 0.  1.
         21   -1    0    0  501  502 -0.00000000000E+00 -0.00000000000E+00 -0.11223167311E+03  0.11223167311E+03  0.00000000000E+00 0.  1.
         25    1    1    2    0    0  0.41669465753E+02 -0.16782614647E+03  0.33254269781E+03  0.39510961223E+03  0.12500000000E+03 0.  0.
         25    1    1    2    0    0 -0.56470759649E+02  0.53354871338E+02 -0.36848917661E+01  0.14722183064E+03  0.12500000000E+03 0.  0.
         25    1    1    2    0    0  0.14801293896E+02  0.11447127514E+03  0.13115441182E+04  0.13225338276E+04  0.12500000000E+03 0.  0.
</event>
<event>
 5    0  0.5576108E-005  0.3771223E+03  0.7546771E-02  0.1052003E+00
         21   -1    0    0  502  501  0.00000000000E+00  0.00000000000E+00  0.42412686830E+03  0.42412686830E+03  0.00000000000E+00 0.  1.
         21   -1    0    0  501  502 -0.00000000000E+00 -0.00000000000E+00 -0.33532716800E+03  0.33532716800E+03  0.00000000000E+00 0.  1.
         25    1    1    2    0    0 -0.59901991420E+02  0.15105509914E+02 -0.99241803324E+02  0.17114426819E+03  0.12500000000E+03 0.  0.
         25    1    1    2    0    0  0.21075995787E+03 -0.78388932459E+02  0.26422083544E+03  0.36878480779E+03  0.12500000000E+03 0.  0.
         25    1    1    2    0    0 -0.15085796645E+03  0.63283422545E+02 -0.76179331817E+02  0.21952496032E+03  0.12500000000E+03 0.  0.
</event>
<event>
 5    0  0.5576108E-005  0.3167491E+03  0.7546771E-02  0.1077155E+00
         21   -1    0    0  502  501  0.00000000000E+00  0.00000000000E+00  0.99462732079E+03  0.99462732079E+03  0.00000000000E+00 0. -1.
         21   -1    0    0  501  502 -0.00000000000E+00 -0.00000000000E+00 -0.10087195126E+03  0.10087195126E+03  0.00000000000E+00 0. -1.
         25    1    1    2    0    0  0.13995465456E+03  0.42226609857E+02  0.32494080953E+03  0.37760021399E+03  0.12500000000E+03 0.  0.
         25    1    1    2    0    0 -0.13350574007E+03  0.12679234218E+03  0.34696480586E+03  0.41220099123E+03  0.12500000000E+03 0.  0.
         25    1    1    2    0    0 -0.64489144890E+01 -0.16901895204E+03  0.22184975414E+03  0.30569806682E+03  0.12500000000E+03 0.  0.
</event>
<event>
 5    0  0.5576108E-005  0.3618386E+03  0.7546771E-02  0.1057858E+00
         21   -1    0    0  502  501  0.00000000000E+00  0.00000000000E+00  0.29746759900E+03  0.29746759900E+03  0.00000000000E+00 0. -1.
         21   -1    0    0  501  502 -0.00000000000E+00 -0.00000000000E+00 -0.44013915671E+03  0.44013915671E+03  0.00000000000E+00 0. -1.
         25    1    1    2    0    0 -0.51679540984E+02 -0.90160086942E+02 -0.15798025046E+03  0.22667680907E+03  0.12500000000E+03 0.  0.
         25    1    1    2    0    0  0.10558469816E+03  0.20745210496E+03  0.13332807270E+03  0.29594911608E+03  0.12500000000E+03 0.  0.
         25    1    1    2    0    0 -0.53905157175E+02 -0.11729201802E+03 -0.11801937995E+03  0.21498083055E+03  0.12500000000E+03 0.  0.
</event>
<event>
 5    0  0.5576108E-005  0.2762341E+03  0.7546771E-02  0.1097764E+00
         21   -1    0    0  502  501  0.00000000000E+00  0.00000000000E+00  0.77786993141E+02  0.77786993141E+02  0.00000000000E+00 0.  1.
         21   -1    0    0  501  502 -0.00000000000E+00 -0.00000000000E+00 -0.98095153775E+03  0.98095153775E+03  0.00000000000E+00 0.  1.
         25    1    1    2    0    0 -0.90510716684E+02 -0.72598564106E+01 -0.50585145691E+03  0.52891926776E+03  0.12500000000E+03 0.  0.
         25    1    1    2    0    0  0.13617914686E+03  0.68588844640E+02 -0.17540359069E+03  0.26389507248E+03  0.12500000000E+03 0.  0.
         25    1    1    2    0    0 -0.45668430181E+02 -0.61328988230E+02 -0.22190949701E+03  0.26592419065E+03  0.12500000000E+03 0.  0.
</event>
<event>
 5    0  0.5576108E-005  0.3121046E+03  0.7546771E-02  0.1079341E+00
         21   -1    0    0  502  501  0.00000000000E+00  0.00000000000E+00  0.80430906115E+02  0.80430906115E+02  0.00000000000E+00 0. -1.
         21   -1    0    0  501  502 -0.00000000000E+00 -0.00000000000E+00 -0.12110925771E+04  0.12110925771E+04  0.00000000000E+00 0. -1.
         25    1    1    2    0    0  0.14545385597E+03 -0.10351990911E+03 -0.34456140366E+03  0.40770179873E+03  0.12500000000E+03 0.  0.
         25    1    1    2    0    0  0.27636334910E+02 -0.53569348430E+02 -0.26000584220E+03  0.29472271728E+03  0.12500000000E+03 0.  0.
         25    1    1    2    0    0 -0.17309019088E+03  0.15708925754E+03 -0.52609442508E+03  0.58909896716E+03  0.12500000000E+03 0.  0.
</event>
<event>
 5    0  0.5576108E-005  0.4100939E+03  0.7546771E-02  0.1040340E+00
         21   -1    0    0  502  501  0.00000000000E+00  0.00000000000E+00  0.17095657255E+04  0.17095657255E+04  0.00000000000E+00 0. -1.
         21   -1    0    0  501  502 -0.00000000000E+00 -0.00000000000E+00 -0.98374091573E+02  0.98374091573E+02  0.00000000000E+00 0. -1.
         25    1    1    2    0    0  0.13492208366E+03  0.19341030741E+03  0.44834194061E+03  0.52177295003E+03  0.12500000000E+03 0.  0.
         25    1    1    2    0    0 -0.66432225611E+02 -0.15409308749E+03  0.13787867283E+03  0.25058620998E+03  0.12500000000E+03 0.  0.
         25    1    1    2    0    0 -0.68489858048E+02 -0.39317219918E+02  0.10249710205E+04  0.10355806570E+04  0.12500000000E+03 0.  0.
</event>
<event>
 5    0  0.5576108E-005  0.2773535E+03  0.7546771E-02  0.1097143E+00
         21   -1    0    0  502  501  0.00000000000E+00  0.00000000000E+00  0.16303042457E+04  0.16303042457E+04  0.00000000000E+00 0. -1.
         21   -1    0    0  501  502 -0.00000000000E+00 -0.00000000000E+00 -0.47184409384E+02  0.47184409384E+02  0.00000000000E+00 0. -1.
         25    1    1    2    0    0  0.39625274648E+02 -0.13305199488E+02  0.14517577429E+03  0.19608211587E+03  0.12500000000E+03 0.  0.
         25    1    1    2    0    0 -0.83177089240E+02  0.96541979220E+02  0.50897048609E+03  0.53936512460E+03  0.12500000000E+03 0.  0.
         25    1    1    2    0    0  0.43551814592E+02 -0.83236779732E+02  0.92897357597E+03  0.94204141464E+03  0.12500000000E+03 0.  0.
</event>
<event>
 5    0  0.5576108E-005  0.4429427E+03  0.7546771E-02  0.1029848E+00
         21   -1    0    0  502  501  0.00000000000E+00  0.00000000000E+00  0.12680603501E+03  0.12680603501E+03  0.00000000000E+00 0.  1.
         21   -1    0    0  501  502 -0.00000000000E+00 -0.00000000000E+00 -0.15472307849E+04  0.15472307849E+04  0.00000000000E+00 0.  1.
         25    1    1    2    0    0  0.10078732821E+03 -0.19143431556E+03 -0.45913896023E+03  0.52272245743E+03  0.12500000000E+03 0.  0.
         25    1    1    2    0    0  0.20119772262E+03  0.19472468324E+03 -0.45399973232E+03  0.54784941617E+03  0.12500000000E+03 0.  0.
         25    1    1    2    0    0 -0.30198505084E+03 -0.32903676749E+01 -0.50728605730E+03  0.60346494627E+03  0.12500000000E+03 0.  0.
</event>
<event>
 5    0  0.5576108E-005  0.3410566E+03  0.7546771E-02  0.1066347E+00
         21   -1    0    0  502  501  0.00000000000E+00  0.00000000000E+00  0.68563189803E+03  0.68563189803E+03  0.00000000000E+00 0.  1.
         21   -1    0    0  501  502 -0.00000000000E+00 -0.00000000000E+00 -0.16965311521E+03  0.16965311521E+03  0.00000000000E+00 0.  1.
         25    1    1    2    0    0 -0.23168462392E+03  0.88745940894E+02  0.91203428304E+02  0.29239814008E+03  0.12500000000E+03 0.  0.
         25    1    1    2    0    0  0.16472336568E+03 -0.59083014825E+02  0.18976959722E+03  0.28681368494E+03  0.12500000000E+03 0.  0.
         25    1    1    2    0    0  0.66961258240E+02 -0.29662926068E+02  0.23500575729E+03  0.27607318821E+03  0.12500000000E+03 0.  0.
</event>
<event>
 5    0  0.5576108E-005  0.5523782E+03  0.7546771E-02  0.1000945E+00
         21   -1    0    0  502  501  0.00000000000E+00  0.00000000000E+00  0.18214832269E+03  0.18214832269E+03  0.00000000000E+00 0. -1.
         21   -1    0    0  501  502 -0.00000000000E+00 -0.00000000000E+00 -0.16751276511E+04  0.16751276511E+04  0.00000000000E+00 0. -1.
         25    1    1    2    0    0 -0.17392123732E+03 -0.13773966741E+02 -0.71196151822E+03  0.74360777456E+03  0.12500000000E+03 0.  0.
         25    1    1    2    0    0  0.27409538072E+03  0.31664489057E+03 -0.54028665145E+03  0.69492944260E+03  0.12500000000E+03 0.  0.
         25    1    1    2    0    0 -0.10017414341E+03 -0.30287092383E+03 -0.24073115872E+03  0.41873875661E+03  0.12500000000E+03 0.  0.
</event>
<event>
 5    0  0.5576108E-005  0.3306143E+03  0.7546771E-02  0.1070865E+00
         21   -1    0    0  502  501  0.00000000000E+00  0.00000000000E+00  0.60958782690E+03  0.60958782690E+03  0.00000000000E+00 0.  1.
         21   -1    0    0  501  502 -0.00000000000E+00 -0.00000000000E+00 -0.17931104619E+03  0.17931104619E+03  0.00000000000E+00 0.  1.
         25    1    1    2    0    0  0.35376663240E+02  0.84681154084E+02 -0.99189322206E+01  0.15538916106E+03  0.12500000000E+03 0.  0.
         25    1    1    2    0    0  0.12053606185E+03 -0.16359891464E+03  0.20073092641E+03  0.31178751081E+03  0.12500000000E+03 0.  0.
         25    1    1    2    0    0 -0.15591272509E+03  0.78917760554E+02  0.23946478652E+03  0.32172220122E+03  0.12500000000E+03 0.  0.
</event>
<event>
 5    0  0.5576108E-005  0.2754277E+03  0.7546771E-02  0.1098213E+00
         21   -1    0    0  502  501  0.00000000000E+00  0.00000000000E+00  0.84667671951E+03  0.84667671951E+03  0.00000000000E+00 0.  1.
         21   -1    0    0  501  502 -0.00000000000E+00 -0.00000000000E+00 -0.89597873347E+02  0.89597873347E+02  0.00000000000E+00 0.  1.
         25    1    1    2    0    0 -0.80996981635E+02 -0.39598224215E+02  0.21874860065E+03  0.26759013562E+03  0.12500000000E+03 0.  0.
         25    1    1    2    0    0  0.16707164417E+03  0.91035138327E+02  0.38275479178E+03  0.44533870405E+03  0.12500000000E+03 0.  0.
         25    1    1    2    0    0 -0.86074662530E+02 -0.51436914111E+02  0.15557545374E+03  0.22334575319E+03  0.12500000000E+03 0.  0.
</event>
<event>
 5    0  0.5576108E-005  0.3634250E+03  0.7546771E-02  0.1057236E+00
         21   -1    0    0  502  501  0.00000000000E+00  0.00000000000E+00  0.93650435342E+02  0.93650435342E+02  0.00000000000E+00 0.  1.
         21   -1    0    0  501  502 -0.00000000000E+00 -0.00000000000E+00 -0.14103265493E+04  0.14103265493E+04  0.00000000000E+00 0.  1.
         25    1    1    2    0    0 -0.16324508986E+02 -0.30104884563E+02 -0.30668763290E+03  0.33294909197E+03  0.12500000000E+03 0.  0.
         25    1    1    2    0    0 -0.93393518909E+01 -0.14791509570E+03 -0.70435410931E+02  0.20628195787E+03  0.12500000000E+03 0.  0.
         25    1    1    2    0    0  0.25663860877E+02  0.17801998027E+03 -0.93955307009E+03  0.96474593476E+03  0.12500000000E+03 0.  0.
</event>
<event>
 5    0  0.5576108E-005  0.4240170E+03  0.7546771E-02  0.1035767E+00
         21   -1    0    0  502  501  0.00000000000E+00  0.00000000000E+00  0.11166617876E+03  0.11166617876E+03  0.00000000000E+00 0. -1.
         21   -1    0    0  501  502 -0.00000000000E+00 -0.00000000000E+00 -0.16100706193E+04  0.16100706193E+04  0.00000000000E+00 0. -1.
         25    1    1    2    0    0 -0.15343045540E+03  0.13835325145E+03 -0.86810368715E+03  0.90106134002E+03  0.12500000000E+03 0.  0.
         25    1    1    2    0    0  0.18619714764E+03  0.15142135184E+01 -0.58273335359E+03  0.62439957721E+03  0.12500000000E+03 0.  0.
         25    1    1    2    0    0 -0.32766692246E+02 -0.13986746497E+03 -0.47567399828E+02  0.19627588085E+03  0.12500000000E+03 0.  0.
</event>
<event>
 5    0  0.5576108E-005  0.3166844E+03  0.7546771E-02  0.1077185E+00
         21   -1    0    0  502  501  0.00000000000E+00  0.00000000000E+00  0.86219001931E+03  0.86219001931E+03  0.00000000000E+00 0. -1.
         21   -1    0    0  501  502 -0.00000000000E+00 -0.00000000000E+00 -0.11631891519E+03  0.11631891519E+03  0.00000000000E+00 0. -1.
         25    1    1    2    0    0 -0.12039127477E+03 -0.27526827700E+02  0.39112929206E+02  0.18001835049E+03  0.12500000000E+03 0.  0.
         25    1    1    2    0    0  0.13478716826E+03  0.58839355865E+02  0.21060038904E+03  0.28566969456E+03  0.12500000000E+03 0.  0.
         25    1    1    2    0    0 -0.14395893497E+02 -0.31312528166E+02  0.49615778588E+03  0.51282088945E+03  0.12500000000E+03 0.  0.
</event>
<event>
 5    0  0.5576108E-005  0.6097638E+03  0.7546771E-02  0.9885354E-01
         21   -1    0    0  502  501  0.00000000000E+00  0.00000000000E+00  0.18046008401E+04  0.18046008401E+04  0.00000000000E+00 0.  1.
         21   -1    0    0  501  502 -0.00000000000E+00 -0.00000000000E+00 -0.20603554236E+03  0.20603554236E+03  0.00000000000E+00 0.  1.
         25    1    1    2    0    0  0.31233752473E+03 -0.63798942558E+02  0.53151624622E+03  0.63226541454E+03  0.12500000000E+03 0.  0.
         25    1    1    2    0    0 -0.17691473982E+02 -0.23175059015E+03  0.45490580582E+02  0.26779790367E+03  0.12500000000E+03 0.  0.
         25    1    1    2    0    0 -0.29464605075E+03  0.29554953271E+03  0.10215584710E+04  0.11105730643E+04  0.12500000000E+03 0.  0.
</event>
<event>
 5    0  0.5576108E-005  0.3601151E+03  0.7546771E-02  0.1058538E+00
         21   -1    0    0  502  501  0.00000000000E+00  0.00000000000E+00  0.40438507734E+03  0.40438507734E+03  0.00000000000E+00 0. -1.
         21   -1    0    0  501  502 -0.00000000000E+00 -0.00000000000E+00 -0.32069149065E+03  0.32069149065E+03  0.00000000000E+00 0. -1.
         25    1    1    2    0    0 -0.58869517020E+02  0.19524994669E+03  0.36094898819E+02  0.24190081322E+03  0.12500000000E+03 0.  0.
         25    1    1    2    0    0  0.15498527592E+03  0.29291691470E+02  0.55223852176E+02  0.20869382547E+03  0.12500000000E+03 0.  0.
         25    1    1    2    0    0 -0.96115758896E+02 -0.22454163816E+03 -0.76251643019E+01  0.27448192929E+03  0.12500000000E+03 0.  0.
</event>
<event>
 5    0  0.5576108E-005  0.7635996E+03  0.7546771E-02  0.9614253E-01
         21   -1    0    0  502  501  0.00000000000E+00  0.00000000000E+00  0.43628245467E+03  0.43628245467E+03  0.00000000000E+00 0.  1.
         21   -1    0    0  501  502 -0.00000000000E+00 -0.00000000000E+00 -0.13364836822E+04  0.13364836822E+04  0.00000000000E+00 0.  1.
         25    1    1    2    0    0 -0.15866695937E+03 -0.45712700880E+03 -0.65297897768E+02  0.50401301732E+03  0.12500000000E+03 0.  0.
         25    1    1    2    0    0  0.24556085840E+03  0.61498741358E+03 -0.80110982542E+03  0.10468579686E+04  0.12500000000E+03 0.  0.
         25    1    1    2    0    0 -0.86893899029E+02 -0.15786040478E+03 -0.33793504353E+02  0.22189515096E+03  0.12500000000E+03 0.  0.
</event>
<event>
 5    0  0.5576108E-005  0.3128330E+03  0.7546771E-02  0.1078996E+00
         21   -1    0    0  502  501  0.00000000000E+00  0.00000000000E+00  0.78073024782E+03  0.78073024782E+03  0.00000000000E+00 0. -1.
         21   -1    0    0  501  502 -0.00000000000E+00 -0.00000000000E+00 -0.12534995644E+03  0.12534995644E+03  0.00000000000E+00 0. -1.
         25    1    1    2    0    0 -0.10647276164E+03 -0.20965483519E+02  0.25869206422E+03  0.30711982118E+03  0.12500000000E+03 0.  0.
         25    1    1    2    0    0 -0.29197865429E+02 -0.11642172953E+03  0.30609800048E+03  0.35174922935E+03  0.12500000000E+03 0.  0.
         25    1    1    2    0    0  0.13567062707E+03  0.13738721305E+03  0.90590226682E+02  0.24721115373E+03  0.12500000000E+03 0.  0.
</event>
<event>
 5    0  0.5576108E-005  0.3345652E+03  0.7546771E-02  0.1069135E+00
         21   -1    0    0  502  501  0.00000000000E+00  0.00000000000E+00  0.20450100190E+03  0.20450100190E+03  0.00000000000E+00 0. -1.
         21   -1    0    0  501  502 -0.00000000000E+00 -0.00000000000E+00 -0.54735111926E+03  0.54735111926E+03  0.00000000000E+00 0. -1.
         25    1    1    2    0    0  0.58786922289E+02 -0.24448743890E+03 -0.22465529334E+03  0.35961786779E+03  0.12500000000E+03 0.  0.
         25    1    1    2    0    0  0.82638077766E+00  0.12286467911E+03 -0.38167646736E+01  0.17531679888E+03  0.12500000000E+03 0.  0.
         25    1    1    2    0    0 -0.59613303066E+02  0.12162275979E+03 -0.11437805935E+03  0.21691745449E+03  0.12500000000E+03 0.  0.
</event>
<event>
 5    0  0.5576108E-005  0.3407137E+03  0.7546771E-02  0.1066492E+00
         21   -1    0    0  502  501  0.00000000000E+00  0.00000000000E+00  0.27513661086E+03  0.27513661086E+03  0.00000000000E+00 0. -1.
         21   -1    0    0  501  502 -0.00000000000E+00 -0.00000000000E+00 -0.42192073665E+03  0.42192073665E+03  0.00000000000E+00 0. -1.
         25    1    1    2    0    0 -0.12423486057E+03  0.10444028708E+03 -0.19605806604E+03  0.28355923439E+03  0.12500000000E+03 0.  0.
         25    1    1    2    0    0  0.32243247465E+02 -0.58993199343E+02 -0.11522745710E+03  0.18281737184E+03  0.12500000000E+03 0.  0.
         25    1    1    2    0    0  0.91991613106E+02 -0.45447087733E+02  0.16450139735E+03  0.23068074128E+03  0.12500000000E+03 0.  0.
</event>
<event>
 5    0  0.5576108E-005  0.2575454E+03  0.7546771E-02  0.1108627E+00
         21   -1    0    0  502  501  0.00000000000E+00  0.00000000000E+00  0.16058085197E+04  0.16058085197E+04  0.00000000000E+00 0.  1.
         21   -1    0    0  501  502 -0.00000000000E+00 -0.00000000000E+00 -0.41306063603E+02  0.41306063603E+02  0.00000000000E+00 0.  1.
         25    1    1    2    0    0  0.13817398886E+02 -0.54262474575E+01  0.47683864782E+03  0.49317386460E+03  0.12500000000E+03 0.  0.
         25    1    1    2    0    0 -0.12911439201E+03 -0.72856329184E+02  0.46706649502E+03  0.50572194109E+03  0.12500000000E+03 0.  0.
         25    1    1    2    0    0  0.11529699312E+03  0.78282576641E+02  0.62059731328E+03  0.64821877764E+03  0.12500000000E+03 0.  0.
</event>
<event>
 5    0  0.5576108E-005  0.2963380E+03  0.7546771E-02  0.1087086E+00
         21   -1    0    0  502  501  0.00000000000E+00  0.00000000000E+00  0.79777278172E+02  0.79777278172E+02  0.00000000000E+00 0.  1.
         21   -1    0    0  501  502 -0.00000000000E+00 -0.00000000000E+00 -0.11007674987E+04  0.11007674987E+04  0.00000000000E+00 0.  1.
         25    1    1    2    0    0  0.65851220726E+02  0.12159720271E+03 -0.27680554075E+03  0.33371929877E+03  0.12500000000E+03 0.  0.
         25    1    1    2    0    0  0.25252744511E+02 -0.19489578971E+03 -0.43417692460E+03  0.49270343190E+03  0.12500000000E+03 0.  0.
         25    1    1    2    0    0 -0.91103965237E+02  0.73298586995E+02 -0.31000775516E+03  0.35412204619E+03  0.12500000000E+03 0.  0.
</event>
<event>
 5    0  0.5576108E-005  0.2426696E+03  0.7546771E-02  0.1118027E+00
         21   -1    0    0  502  501  0.00000000000E+00  0.00000000000E+00  0.15158306651E+03  0.15158306651E+03  0.00000000000E+00 0. -1.
         21   -1    0    0  501  502 -0.00000000000E+00 -0.00000000000E+00 -0.38849021902E+03  0.38849021902E+03  0.00000000000E+00 0. -1.
         25    1    1    2    0    0  0.94838553169E+02 -0.20699730560E+02 -0.89637652479E+02  0.18188660961E+03  0.12500000000E+03 0.  0.
         25    1    1    2    0    0 -0.12323086198E+03  0.14722060699E+02 -0.14767975496E+03  0.22986277306E+03  0.12500000000E+03 0.  0.
         25    1    1    2    0    0  0.28392308806E+02  0.59776698618E+01  0.41025493023E+00  0.12832390286E+03  0.12500000000E+03 0.  0.
</event>
<event>
 5    0  0.5576108E-005  0.3319496E+03  0.7546771E-02  0.1070277E+00
         21   -1    0    0  502  501  0.00000000000E+00  0.00000000000E+00  0.30440647443E+03  0.30440647443E+03  0.00000000000E+00 0.  1.
         21   -1    0    0  501  502 -0.00000000000E+00 -0.00000000000E+00 -0.36198477421E+03  0.36198477421E+03  0.00000000000E+00 0. -1.
         25    1    1    2    0    0 -0.14866877711E+03 -0.41587875292E+01 -0.68023434207E+02  0.20584433051E+03  0.12500000000E+03 0.  0.
         25    1    1    2    0    0  0.24985270933E+03  0.58309458125E+02  0.40364500123E+02  0.28823716300E+03  0.12500000000E+03 0.  0.
         25    1    1    2    0    0 -0.10118393222E+03 -0.54150670596E+02 -0.29919365695E+02  0.17230975512E+03  0.12500000000E+03 0.  0.
</event>
<event>
 5    0  0.5576108E-005  0.2460254E+03  0.7546771E-02  0.1115843E+00
         21   -1    0    0  502  501  0.00000000000E+00  0.00000000000E+00  0.32991839743E+02  0.32991839743E+02  0.00000000000E+00 0.  1.
         21   -1    0    0  501  502 -0.00000000000E+00 -0.00000000000E+00 -0.18346499436E+04  0.18346499436E+04  0.00000000000E+00 0.  1.
         25    1    1    2    0    0  0.22982636048E+02  0.42368963159E+02 -0.19702362726E+03  0.23825750838E+03  0.12500000000E+03 0.  0.
         25    1    1    2    0    0  0.28708537082E+00 -0.14909913141E+02 -0.11385525838E+04  0.11454908878E+04  0.12500000000E+03 0.  0.
         25    1    1    2    0    0 -0.23269721419E+02 -0.27459050018E+02 -0.46608189281E+03  0.48389338719E+03  0.12500000000E+03 0.  0.
</event>
<event>
 5    0  0.5678351E-005  0.2933758E+03  0.7546771E-02  0.1088600E+00
         21   -1    0    0  502  501  0.00000000000E+00  0.00000000000E+00  0.38264597391E+03  0.38264597391E+03  0.00000000000E+00 0. -1.
         21   -1    0    0  501  502 -0.00000000000E+00 -0.00000000000E+00 -0.22493207827E+03  0.22493207827E+03  0.00000000000E+00 0. -1.
         25    1    1    2    0    0 -0.79538272646E+02 -0.80595271356E+02  0.51269343847E+02  0.17628238766E+03  0.12500000000E+03 0.  0.
         25    1    1    2    0    0 -0.44499896417E+02  0.13759390354E+03 -0.39985613870E+02  0.19528484936E+03  0.12500000000E+03 0.  0.
         25    1    1    2    0    0  0.12403816906E+03 -0.56998632185E+02  0.14643016567E+03  0.23601081516E+03  0.12500000000E+03 0.  0.
</event>
<event>
 5    0  0.5576108E-005  0.3689020E+03  0.7546771E-02  0.1055114E+00
         21   -1    0    0  502  501  0.00000000000E+00  0.00000000000E+00  0.22517458219E+04  0.22517458219E+04  0.00000000000E+00 0. -1.
         21   -1    0    0  501  502 -0.00000000000E+00 -0.00000000000E+00 -0.60436961297E+02  0.60436961297E+02  0.00000000000E+00 0. -1.
         25    1    1    2    0    0  0.13448898116E+03  0.18870397977E+03  0.49688695110E+03  0.56233274865E+03  0.12500000000E+03 0.  0.
         25    1    1    2    0    0 -0.21804366775E+02 -0.17493260341E+03  0.13393506147E+04  0.13566731055E+04  0.12500000000E+03 0.  0.
         25    1    1    2    0    0 -0.11268461438E+03 -0.13771376351E+02  0.35507129483E+03  0.39317692905E+03  0.12500000000E+03 0.  0.
</event>
<event>
 5    0  0.5576108E-005  0.4382481E+03  0.7546771E-02  0.1031286E+00
         21   -1    0    0  502  501  0.00000000000E+00  0.00000000000E+00  0.59073279428E+03  0.59073279428E+03  0.00000000000E+00 0. -1.
         21   -1    0    0  501  502 -0.00000000000E+00 -0.00000000000E+00 -0.32512399872E+03  0.32512399872E+03  0.00000000000E+00 0. -1.
         25    1    1    2    0    0 -0.15545657760E+03 -0.26914117239E+03 -0.24898763815E+02  0.33592955606E+03  0.12500000000E+03 0.  0.
         25    1    1    2    0    0  0.37055694387E+02  0.96651644933E+02 -0.42025082867E+02  0.16764776332E+03  0.12500000000E+03 0.  0.
         25    1    1    2    0    0  0.11840088321E+03  0.17248952745E+03  0.33253264224E+03  0.41227947364E+03  0.12500000000E+03 0.  0.
</event>
<event>
 5    0  0.5576108E-005  0.2453614E+03  0.7546771E-02  0.1116272E+00
         21   -1    0    0  502  501  0.00000000000E+00  0.00000000000E+00  0.83968566762E+03  0.83968566762E+03  0.00000000000E+00 0.  1.
         21   -1    0    0  501  502 -0.00000000000E+00 -0.00000000000E+00 -0.71696108487E+02  0.71696108487E+02  0.00000000000E+00 0.  1.
         25    1    1    2    0    0  0.39817390202E+02  0.37669365288E+02  0.53600244195E+03  0.55310760564E+03  0.12500000000E+03 0.  0.
         25    1    1    2    0    0 -0.63709500921E+02 -0.16657634590E+01  0.12977092356E+03  0.19112082010E+03  0.12500000000E+03 0.  0.
         25    1    1    2    0    0  0.23892110719E+02 -0.36003601829E+02  0.10221619363E+03  0.16715335037E+03  0.12500000000E+03 0.  0.
</event>
<event>
 5    0  0.5576108E-005  0.3152751E+03  0.7546771E-02  0.1077845E+00
         21   -1    0    0  502  501  0.00000000000E+00  0.00000000000E+00  0.79900663594E+02  0.79900663594E+02  0.00000000000E+00 0. -1.
         21   -1    0    0  501  502 -0.00000000000E+00 -0.00000000000E+00 -0.12440249345E+04  0.12440249345E+04  0.00000000000E+00 0. -1.
         25    1    1    2    0    0  0.12768109781E+03 -0.67562265889E+01 -0.29871224130E+03  0.34814093761E+03  0.12500000000E+03 0.  0.
         25    1    1    2    0    0 -0.16557992391E+03  0.72601548869E+02 -0.77091930186E+03  0.80164160700E+03  0.12500000000E+03 0.  0.
         25    1    1    2    0    0  0.37898826098E+02 -0.65845322280E+02 -0.94492727792E+02  0.17414305353E+03  0.12500000000E+03 0.  0.
</event>
<event>
 5    0  0.5576108E-005  0.2857958E+03  0.7546771E-02  0.1092565E+00
         21   -1    0    0  502  501  0.00000000000E+00  0.00000000000E+00  0.14647669887E+04  0.14647669887E+04  0.00000000000E+00 0. -1.
         21   -1    0    0  501  502 -0.00000000000E+00 -0.00000000000E+00 -0.55762635103E+02  0.55762635103E+02  0.00000000000E+00 0. -1.
         25    1    1    2    0    0  0.18246067980E+03  0.42703507811E+02  0.48911681268E+03  0.53849396069E+03  0.12500000000E+03 0.  0.
         25    1    1    2    0    0 -0.16147951689E+03 -0.17819137185E+02  0.44583559179E+03  0.49070106066E+03  0.12500000000E+03 0.  0.
         25    1    1    2    0    0 -0.20981162903E+02 -0.24884370626E+02  0.47405194911E+03  0.49133460244E+03  0.12500000000E+03 0.  0.
</event>
<event>
 5    0  0.5576108E-005  0.2238333E+03  0.7546771E-02  0.1131057E+00
         21   -1    0    0  502  501  0.00000000000E+00  0.00000000000E+00  0.12500344644E+03  0.12500344644E+03  0.00000000000E+00 0. -1.
         21   -1    0    0  501  502 -0.00000000000E+00 -0.00000000000E+00 -0.40079985161E+03  0.40079985161E+03  0.00000000000E+00 0. -1.
         25    1    1    2    0    0  0.23511933601E+02 -0.83785746860E+02 -0.12812805076E+03  0.19903431812E+03  0.12500000000E+03 0.  0.
         25    1    1    2    0    0 -0.41463437514E+02  0.52575781077E+02 -0.17732543331E+02  0.14290861590E+03  0.12500000000E+03 0.  0.
         25    1    1    2    0    0  0.17951503913E+02  0.31209965783E+02 -0.12993581108E+03  0.18386036402E+03  0.12500000000E+03 0.  0.
</event>
<event>
 5    0  0.5576108E-005  0.3148414E+03  0.7546771E-02  0.1078048E+00
         21   -1    0    0  502  501  0.00000000000E+00  0.00000000000E+00  0.10451198990E+04  0.10451198990E+04  0.00000000000E+00 0. -1.
         21   -1    0    0  501  502 -0.00000000000E+00 -0.00000000000E+00 -0.94845652691E+02  0.94845652691E+02  0.00000000000E+00 0. -1.
         25    1    1    2    0    0 -0.92218698403E+02  0.72823279364E+02  0.26742610527E+03  0.31772510151E+03  0.12500000000E+03 0.  0.
         25    1    1    2    0    0  0.10312911779E+03 -0.72062223593E+02  0.60527224386E+02  0.18739563468E+03  0.12500000000E+03 0.  0.
         25    1    1    2    0    0 -0.10910419388E+02 -0.76105577127E+00  0.62232091665E+03  0.63484481549E+03  0.12500000000E+03 0.  0.
</event>
<event>
 5    0  0.5576108E-005  0.2198419E+03  0.7546771E-02  0.1134001E+00
         21   -1    0    0  502  501  0.00000000000E+00  0.00000000000E+00  0.31717970673E+03  0.31717970673E+03  0.00000000000E+00 0.  1.
         21   -1    0    0  501  502 -0.00000000000E+00 -0.00000000000E+00 -0.15237565154E+03  0.15237565154E+03  0.00000000000E+00 0.  1.
         25    1    1    2    0    0  0.17328254460E+02  0.93062251837E+02  0.63253483546E+02  0.16907647471E+03  0.12500000000E+03 0.  0.
         25    1    1    2    0    0  0.29835116585E+02 -0.67801749962E+02  0.68037649380E+02  0.16044105838E+03  0.12500000000E+03 0.  0.
         25    1    1    2    0    0 -0.47163371044E+02 -0.25260501875E+02  0.33512922261E+02  0.14003782518E+03  0.12500000000E+03 0.  0.
</event>
<event>
 5    0  0.6198664E-005  0.3649620E+03  0.7546771E-02  0.1056636E+00
         21   -1    0    0  502  501  0.00000000000E+00  0.00000000000E+00  0.52233173314E+03  0.52233173314E+03  0.00000000000E+00 0.  1.
         21   -1    0    0  501  502 -0.00000000000E+00 -0.00000000000E+00 -0.25500511444E+03  0.25500511444E+03  0.00000000000E+00 0.  1.
         25    1    1    2    0    0  0.17723479692E+03 -0.89140830486E+02 -0.55392849387E+02  0.24093905591E+03  0.12500000000E+03 0.  0.
         25    1    1    2    0    0 -0.21097562039E+03  0.92707010644E+02  0.10366552536E+03  0.28191637656E+03  0.12500000000E+03 0.  0.
         25    1    1    2    0    0  0.33740823472E+02 -0.35661801581E+01  0.21905394273E+03  0.25448141511E+03  0.12500000000E+03 0.  0.
</event>
<event>
 5    0  0.5576108E-005  0.3595522E+03  0.7546771E-02  0.1058761E+00
         21   -1    0    0  502  501  0.00000000000E+00  0.00000000000E+00  0.36632545017E+03  0.36632545017E+03  0.00000000000E+00 0.  1.
         21   -1    0    0  501  502 -0.00000000000E+00 -0.00000000000E+00 -0.35290426163E+03  0.35290426163E+03  0.00000000000E+00 0.  1.
         25    1    1    2    0    0 -0.14039965812E+03  0.24344748710E+02  0.23858590161E+03  0.30471784201E+03  0.12500000000E+03 0.  0.
         25    1    1    2    0    0  0.52955537706E+02 -0.92490106538E+02 -0.48327253322E+02  0.17122859631E+03  0.12500000000E+03 0.  0.
         25    1    1    2    0    0  0.87444120418E+02  0.68145357828E+02 -0.17683745974E+03  0.24328327349E+03  0.12500000000E+03 0.  0.
</event>
<event>
 5    0  0.5576108E-005  0.2470793E+03  0.7546771E-02  0.1115165E+00
         21   -1    0    0  502  501  0.00000000000E+00  0.00000000000E+00  0.17281702934E+04  0.17281702934E+04  0.00000000000E+00 0. -1.
         21   -1    0    0  501  502 -0.00000000000E+00 -0.00000000000E+00 -0.35325340653E+02  0.35325340653E+02  0.00000000000E+00 0. -1.
         25    1    1    2    0    0  0.78170256157E+02  0.83308070307E+02  0.43927299932E+03  0.47078295578E+03  0.12500000000E+03 0.  0.
         25    1    1    2    0    0 -0.79550035809E+02 -0.58335858823E+02  0.95320486872E+03  0.96641388771E+03  0.12500000000E+03 0.  0.
         25    1    1    2    0    0  0.13797796520E+01 -0.24972211484E+02  0.30036708469E+03  0.32629879053E+03  0.12500000000E+03 0.  0.
</event>
<event>
 5    0  0.5576108E-005  0.3009714E+03  0.7546771E-02  0.1084756E+00
         21   -1    0    0  502  501  0.00000000000E+00  0.00000000000E+00  0.13111442433E+04  0.13111442433E+04  0.00000000000E+00 0.  1.
         21   -1    0    0  501  502 -0.00000000000E+00 -0.00000000000E+00 -0.69087576741E+02  0.69087576741E+02  0.00000000000E+00 0.  1.
         25    1    1    2    0    0 -0.24589859107E+02  0.10542027293E+03  0.18238855604E+03  0.24618830291E+03  0.12500000000E+03 0.  0.
         25    1    1    2    0    0 -0.47167249546E+02 -0.23444754342E+02  0.87665205674E+03  0.88708411919E+03  0.12500000000E+03 0.  0.
         25    1    1    2    0    0  0.71757108653E+02 -0.81975518589E+02  0.18301605378E+03  0.24695939794E+03  0.12500000000E+03 0.  0.
</event>
<event>
 5    0  0.5576108E-005  0.2643906E+03  0.7546771E-02  0.1104534E+00
         21   -1    0    0  502  501  0.00000000000E+00  0.00000000000E+00  0.42442743524E+03  0.42442743524E+03  0.00000000000E+00 0. -1.
         21   -1    0    0  501  502 -0.00000000000E+00 -0.00000000000E+00 -0.16469805765E+03  0.16469805765E+03  0.00000000000E+00 0. -1.
         25    1    1    2    0    0 -0.46160771165E+02  0.47256667584E+02  0.13433909148E+03  0.19502820546E+03  0.12500000000E+03 0.  0.
         25    1    1    2    0    0  0.58552736687E+02  0.97629577554E+02  0.79965874296E+01  0.16925986765E+03  0.12500000000E+03 0.  0.
         25    1    1    2    0    0 -0.12391965522E+02 -0.14488624514E+03  0.11739369868E+03  0.22483741977E+03  0.12500000000E+03 0.  0.
</event>
<event>
 5    0  0.5576108E-005  0.3137897E+03  0.7546771E-02  0.1078543E+00
         21   -1    0    0  502  501  0.00000000000E+00  0.00000000000E+00  0.15740315184E+03  0.15740315184E+03  0.00000000000E+00 0.  1.
         21   -1    0    0  501  502 -0.00000000000E+00 -0.00000000000E+00 -0.62555281466E+03  0.62555281466E+03  0.00000000000E+00 0.  1.
         25    1    1    2    0    0 -0.18364447671E+03  0.39237387116E+02 -0.15597430361E+03  0.27425872777E+03  0.12500000000E+03 0.  0.
         25    1    1    2    0    0 -0.11888604276E+02  0.65574194671E+02 -0.73071791075E+02  0.15939197147E+03  0.12500000000E+03 0.  0.
         25    1    1    2    0    0  0.19553308099E+03 -0.10481158179E+03 -0.23910356814E+03  0.34930526726E+03  0.12500000000E+03 0.  0.
</event>
<event>
 5    0  0.5576108E-005  0.3718973E+03  0.7546771E-02  0.1053970E+00
         21   -1    0    0  502  501  0.00000000000E+00  0.00000000000E+00  0.42024577747E+03  0.42024577747E+03  0.00000000000E+00 0. -1.
         21   -1    0    0  501  502 -0.00000000000E+00 -0.00000000000E+00 -0.32911121493E+03  0.32911121493E+03  0.00000000000E+00 0.  1.
         25    1    1    2    0    0 -0.14499206751E+03 -0.72774999238E+02  0.55076165293E+01  0.20487614306E+03  0.12500000000E+03 0.  0.
         25    1    1    2    0    0  0.23763133869E+03 -0.10053570302E+02  0.19948237244E+03  0.33464599851E+03  0.12500000000E+03 0.  0.
         25    1    1    2    0    0 -0.92639271181E+02  0.82828569540E+02 -0.11385542643E+03  0.20983485083E+03  0.12500000000E+03 0.  0.
</event>
<event>
 5    0  0.5576108E-005  0.2701874E+03  0.7546771E-02  0.1101172E+00
         21   -1    0    0  502  501  0.00000000000E+00  0.00000000000E+00  0.39018496424E+03  0.39018496424E+03  0.00000000000E+00 0.  1.
         21   -1    0    0  501  502 -0.00000000000E+00 -0.00000000000E+00 -0.18709393160E+03  0.18709393160E+03  0.00000000000E+00 0.  1.
         25    1    1    2    0    0  0.63209907524E+02  0.38498147874E+02  0.44224588743E+02  0.15184997217E+03  0.12500000000E+03 0.  0.
         25    1    1    2    0    0 -0.42125678440E+02 -0.15349267312E+03  0.16951699700E+02  0.20309341104E+03  0.12500000000E+03 0.  0.
         25    1    1    2    0    0 -0.21084229084E+02  0.11499452525E+03  0.14191474420E+03  0.22233551262E+03  0.12500000000E+03 0.  0.
</event>
<event>
 5    0  0.5576108E-005  0.2613668E+03  0.7546771E-02  0.1106325E+00
         21   -1    0    0  502  501  0.00000000000E+00  0.00000000000E+00  0.17055833943E+04  0.17055833943E+04  0.00000000000E+00 0. -1.
         21   -1    0    0  501  502 -0.00000000000E+00 -0.00000000000E+00 -0.40052341778E+02  0.40052341778E+02  0.00000000000E+00 0. -1.
         25    1    1    2    0    0 -0.64789713473E+02 -0.15353246571E+03  0.78479963698E+03  0.81197622822E+03  0.12500000000E+03 0.  0.
         25    1    1    2    0    0  0.26014275310E+02  0.11296625523E+03  0.42998451335E+03  0.46254707767E+03  0.12500000000E+03 0.  0.
         25    1    1    2    0    0  0.38775438162E+02  0.40566210475E+02  0.45074690220E+03  0.47111243019E+03  0.12500000000E+03 0.  0.
</event>
<event>
 5    0  0.5576108E-005  0.3195224E+03  0.7546771E-02  0.1075869E+00
         21   -1    0    0  502  501  0.00000000000E+00  0.00000000000E+00  0.41040512972E+03  0.41040512972E+03  0.00000000000E+00 0. -1.
         21   -1    0    0  501  502 -0.00000000000E+00 -0.00000000000E+00 -0.24876539645E+03  0.24876539645E+03  0.00000000000E+00 0. -1.
         25    1    1    2    0    0 -0.90543809843E+02  0.11849500453E+03  0.77642606454E+02  0.20950566087E+03  0.12500000000E+03 0.  0.
         25    1    1    2    0    0 -0.31196098249E+02 -0.19221824509E+03  0.11387279719E+03  0.25790126838E+03  0.12500000000E+03 0.  0.
         25    1    1    2    0    0  0.12173990809E+03  0.73723240565E+02 -0.29875670370E+02  0.19176359692E+03  0.12500000000E+03 0.  0.
</event>
<event>
 5    0  0.5576108E-005  0.2843659E+03  0.7546771E-02  0.1093328E+00
         21   -1    0    0  502  501  0.00000000000E+00  0.00000000000E+00  0.68860006355E+02  0.68860006355E+02  0.00000000000E+00 0.  1.
         21   -1    0    0  501  502 -0.00000000000E+00 -0.00000000000E+00 -0.11743242949E+04  0.11743242949E+04  0.00000000000E+00 0.  1.
         25    1    1    2    0    0  0.97441103449E+02 -0.44714162003E+02 -0.56468974964E+03  0.58821223914E+03  0.12500000000E+03 0.  0.
         25    1    1    2    0    0  0.78851688752E+01  0.13237996467E+03 -0.30035383442E+03  0.35131760102E+03  0.12500000000E+03 0.  0.
         25    1    1    2    0    0 -0.10532627232E+03 -0.87665802671E+02 -0.24042070449E+03  0.30365446111E+03  0.12500000000E+03 0.  0.
</event>
<event>
 5    0  0.5576108E-005  0.2866804E+03  0.7546771E-02  0.1092095E+00
         21   -1    0    0  502  501  0.00000000000E+00  0.00000000000E+00  0.18156929569E+03  0.18156929569E+03  0.00000000000E+00 0.  1.
         21   -1    0    0  501  502 -0.00000000000E+00 -0.00000000000E+00 -0.45264081452E+03  0.45264081452E+03  0.00000000000E+00 0.  1.
         25    1    1    2    0    0 -0.10874345002E+03 -0.84561301271E+01 -0.29533452741E+03  0.33873902512E+03  0.12500000000E+03 0.  0.
         25    1    1    2    0    0  0.11266368150E+03  0.16863761968E+02  0.12946582242E+02  0.16961752736E+03  0.12500000000E+03 0.  0.
         25    1    1    2    0    0 -0.39202314755E+01 -0.84076318405E+01  0.11316426330E+02  0.12585355773E+03  0.12500000000E+03 0.  0.
</event>
<event>
 5    0  0.5576108E-005  0.6045132E+03  0.7546771E-02  0.9896087E-01
         21   -1    0    0  502  501  0.00000000000E+00  0.00000000000E+00  0.18331555416E+03  0.18331555416E+03  0.00000000000E+00 0. -1.
         21   -1    0    0  501  502 -0.00000000000E+00 -0.00000000000E+00 -0.19934815626E+04  0.19934815626E+04  0.00000000000E+00 0. -1.
         25    1    1    2    0    0  0.47790694513E+03  0.79012364498E+02 -0.38448162574E+03  0.63094304218E+03  0.12500000000E+03 0.  0.
         25    1    1    2    0    0 -0.44204464002E+03 -0.72742367426E+02 -0.10550522934E+04  0.11530200595E+04  0.12500000000E+03 0.  0.
         25    1    1    2    0    0 -0.35862305113E+02 -0.62699970713E+01 -0.37063208930E+03  0.39283401509E+03  0.12500000000E+03 0.  0.
</event>
<event>
 5    0  0.5576108E-005  0.4636275E+03  0.7546771E-02  0.1023734E+00
         21   -1    0    0  502  501  0.00000000000E+00  0.00000000000E+00  0.20404558274E+04  0.20404558274E+04  0.00000000000E+00 0. -1.
         21   -1    0    0  501  502 -0.00000000000E+00 -0.00000000000E+00 -0.10534431177E+03  0.10534431177E+03  0.00000000000E+00 0. -1.
         25    1    1    2    0    0  0.18645058863E+03  0.35826668686E+03  0.95732200266E+03  0.10465224592E+04  0.12500000000E+03 0.  0.
         25    1    1    2    0    0 -0.16041986310E+03 -0.15018566099E+03  0.57752334464E+03  0.63043515039E+03  0.12500000000E+03 0.  0.
         25    1    1    2    0    0 -0.26030725524E+02 -0.20808102587E+03  0.40026616837E+03  0.46884252958E+03  0.12500000000E+03 0.  0.
</event>
<event>
 5    0  0.5757593E-005  0.3320193E+03  0.7546771E-02  0.1070247E+00
         21   -1    0    0  502  501  0.00000000000E+00  0.00000000000E+00  0.43896601667E+03  0.43896601667E+03  0.00000000000E+00 0.  1.
         21   -1    0    0  501  502 -0.00000000000E+00 -0.00000000000E+00 -0.25112829677E+03  0.25112829677E+03  0.00000000000E+00 0.  1.
         25    1    1    2    0    0 -0.10450420501E+03 -0.11570648869E+03  0.16081122782E+03  0.25650413521E+03  0.12500000000E+03 0.  0.
         25    1    1    2    0    0 -0.81118858431E+02  0.14312002296E+03  0.83877922155E+00  0.20661392430E+03  0.12500000000E+03 0.  0.
         25    1    1    2    0    0  0.18562306344E+03 -0.27413534270E+02  0.26187712860E+02  0.22697625393E+03  0.12500000000E+03 0.  0.
</event>
<event>
 5    0  0.5576108E-005  0.2336491E+03  0.7546771E-02  0.1124097E+00
         21   -1    0    0  502  501  0.00000000000E+00  0.00000000000E+00  0.37688832901E+03  0.37688832901E+03  0.00000000000E+00 0. -1.
         21   -1    0    0  501  502 -0.00000000000E+00 -0.00000000000E+00 -0.14484897096E+03  0.14484897096E+03  0.00000000000E+00 0. -1.
         25    1    1    2    0    0  0.37272607698E+02  0.93362896043E+01  0.16909742754E+03  0.21376471549E+03  0.12500000000E+03 0.  0.
         25    1    1    2    0    0  0.19387191872E+02 -0.66349870767E+02  0.70249881031E+02  0.15917981764E+03  0.12500000000E+03 0.  0.
         25    1    1    2    0    0 -0.56659799569E+02  0.57013581163E+02 -0.73079505203E+01  0.14879276684E+03  0.12500000000E+03 0.  0.
</event>
<event>
 5    0  0.5576108E-005  0.2822086E+03  0.7546771E-02  0.1094489E+00
         21   -1    0    0  502  501  0.00000000000E+00  0.00000000000E+00  0.50717066318E+03  0.50717066318E+03  0.00000000000E+00 0. -1.
         21   -1    0    0  501  502 -0.00000000000E+00 -0.00000000000E+00 -0.15703131881E+03  0.15703131881E+03  0.00000000000E+00 0. -1.
         25    1    1    2    0    0 -0.79631578156E+02  0.16490094754E+03  0.16896759644E+03  0.27876255018E+03  0.12500000000E+03 0.  0.
         25    1    1    2    0    0  0.76025753041E+01 -0.57032728013E+01  0.67612340558E+02  0.14243158030E+03  0.12500000000E+03 0.  0.
         25    1    1    2    0    0  0.72029002852E+02 -0.15919767474E+03  0.11355940737E+03  0.24300785151E+03  0.12500000000E+03 0.  0.
</event>
<event>
 5    0  0.5576108E-005  0.3235816E+03  0.7546771E-02  0.1074013E+00
         21   -1    0    0  502  501  0.00000000000E+00  0.00000000000E+00  0.29444650589E+03  0.29444650589E+03  0.00000000000E+00 0.  1.
         21   -1    0    0  501  502 -0.00000000000E+00 -0.00000000000E+00 -0.35559948205E+03  0.35559948205E+03  0.00000000000E+00 0.  1.
         25    1    1    2    0    0 -0.98539100646E+02 -0.36640982667E+02 -0.26739440093E+02  0.16550683860E+03  0.12500000000E+03 0.  0.
         25    1    1    2    0    0  0.63945872619E+02  0.21315185009E+03  0.28026999891E+02  0.25677480123E+03  0.12500000000E+03 0.  0.
         25    1    1    2    0    0  0.34593228026E+02 -0.17651086742E+03 -0.62440535960E+02  0.22776434812E+03  0.12500000000E+03 0.  0.
</event>
<event>
 5    0  0.5576108E-005  0.3159598E+03  0.7546771E-02  0.1077524E+00
         21   -1    0    0  502  501  0.00000000000E+00  0.00000000000E+00  0.12232559959E+04  0.12232559959E+04  0.00000000000E+00 0. -1.
         21   -1    0    0  501  502 -0.00000000000E+00 -0.00000000000E+00 -0.81610564910E+02  0.81610564910E+02  0.00000000000E+00 0. -1.
         25    1    1    2    0    0  0.64186541320E+02  0.10062083168E+03  0.13685196567E+03  0.22044936916E+03  0.12500000000E+03 0.  0.
         25    1    1    2    0    0 -0.14704933052E+03 -0.53366401949E+01  0.74544044826E+03  0.77003795182E+03  0.12500000000E+03 0.  0.
         25    1    1    2    0    0  0.82862789200E+02 -0.95284191481E+02  0.25935301704E+03  0.31437923982E+03  0.12500000000E+03 0.  0.
</event>
<event>
 5    0  0.5576108E-005  0.4424597E+03  0.7546771E-02  0.1029995E+00
         21   -1    0    0  502  501  0.00000000000E+00  0.00000000000E+00  0.10295054876E+03  0.10295054876E+03  0.00000000000E+00 0. -1.
         21   -1    0    0  501  502 -0.00000000000E+00 -0.00000000000E+00 -0.19015986986E+04  0.19015986986E+04  0.00000000000E+00 0. -1.
         25    1    1    2    0    0  0.61322343931E+02 -0.22146003746E+03 -0.20587257438E+03  0.33288660973E+03  0.12500000000E+03 0.  0.
         25    1    1    2    0    0  0.71000345861E+02  0.11855805108E+03 -0.12918589578E+04  0.13052285729E+04  0.12500000000E+03 0.  0.
         25    1    1    2    0    0 -0.13232268979E+03  0.10290198638E+03 -0.30091661765E+03  0.36643406475E+03  0.12500000000E+03 0.  0.
</event>
<event>
 5    0  0.5576108E-005  0.3707270E+03  0.7546771E-02  0.1054415E+00
         21   -1    0    0  502  501  0.00000000000E+00  0.00000000000E+00  0.33361250235E+03  0.33361250235E+03  0.00000000000E+00 0. -1.
         21   -1    0    0  501  502 -0.00000000000E+00 -0.00000000000E+00 -0.41197049626E+03  0.41197049626E+03  0.00000000000E+00 0. -1.
         25    1    1    2    0    0 -0.14459189761E+03  0.19069426022E+03 -0.86940039259E+02  0.28364535632E+03  0.12500000000E+03 0.  0.
         25    1    1    2    0    0 -0.57093000615E+02 -0.91783572737E+02 -0.88120358340E+02  0.18728062499E+03  0.12500000000E+03 0.  0.
         25    1    1    2    0    0  0.20168489823E+03 -0.98910687479E+02  0.96702403695E+02  0.27465701730E+03  0.12500000000E+03 0.  0.
</event>
<event>
 5    0  0.5931010E-005  0.4928347E+03  0.7546771E-02  0.1015666E+00
         21   -1    0    0  502  501  0.00000000000E+00  0.00000000000E+00  0.97067064084E+03  0.97067064084E+03  0.00000000000E+00 0.  1.
         21   -1    0    0  501  502 -0.00000000000E+00 -0.00000000000E+00 -0.25022496158E+03  0.25022496158E+03  0.00000000000E+00 0.  1.
         25    1    1    2    0    0  0.23744243491E+03  0.25964672966E+03  0.13761092619E+03  0.39794107746E+03  0.12500000000E+03 0.  0.
         25    1    1    2    0    0 -0.19719882913E+03  0.30396483454E+01  0.43605338936E+03  0.49463539709E+03  0.12500000000E+03 0.  0.
         25    1    1    2    0    0 -0.40243605774E+02 -0.26268637801E+03  0.14678136371E+03  0.32831912788E+03  0.12500000000E+03 0.  0.
</event>
<event>
 5    0  0.5576108E-005  0.3814496E+03  0.7546771E-02  0.1050399E+00
         21   -1    0    0  502  501  0.00000000000E+00  0.00000000000E+00  0.49203178797E+03  0.49203178797E+03  0.00000000000E+00 0.  1.
         21   -1    0    0  501  502 -0.00000000000E+00 -0.00000000000E+00 -0.29572024733E+03  0.29572024733E+03  0.00000000000E+00 0.  1.
         25    1    1    2    0    0  0.12257803683E+02 -0.75581174580E+02  0.70533819324E+02  0.16267386812E+03  0.12500000000E+03 0.  0.
         25    1    1    2    0    0 -0.45399538800E+02  0.22811706316E+03  0.27066501062E+03  0.37813100984E+03  0.12500000000E+03 0.  0.
         25    1    1    2    0    0  0.33141735118E+02 -0.15253588858E+03 -0.14488728930E+03  0.24694715733E+03  0.12500000000E+03 0.  0.
</event>
<event>
 5    0  0.5576108E-005  0.2809872E+03  0.7546771E-02  0.1095151E+00
         21   -1    0    0  502  501  0.00000000000E+00  0.00000000000E+00  0.21499725133E+03  0.21499725133E+03  0.00000000000E+00 0.  1.
         21   -1    0    0  501  502 -0.00000000000E+00 -0.00000000000E+00 -0.36723160213E+03  0.36723160213E+03  0.00000000000E+00 0.  1.
         25    1    1    2    0    0 -0.10585969731E+03 -0.68536402008E+01  0.45547746161E+02  0.17015535572E+03  0.12500000000E+03 0.  0.
         25    1    1    2    0    0  0.22781133515E+02  0.11893851320E+03 -0.10102239484E+03  0.20123586715E+03  0.12500000000E+03 0.  0.
         25    1    1    2    0    0  0.83078563797E+02 -0.11208487300E+03 -0.96759702129E+02  0.21083763059E+03  0.12500000000E+03 0.  0.
</event>
<event>
 5    0  0.5576108E-005  0.2501897E+03  0.7546771E-02  0.1113185E+00
         21   -1    0    0  502  501  0.00000000000E+00  0.00000000000E+00  0.33405341857E+02  0.33405341857E+02  0.00000000000E+00 0. -1.
         21   -1    0    0  501  502 -0.00000000000E+00 -0.00000000000E+00 -0.18737982484E+04  0.18737982484E+04  0.00000000000E+00 0. -1.
         25    1    1    2    0    0  0.89767158727E+01  0.89734744330E+02 -0.77759224979E+03  0.79272164894E+03  0.12500000000E+03 0.  0.
         25    1    1    2    0    0 -0.84743323067E+02 -0.34021135055E+01 -0.66557731631E+03  0.68250360377E+03  0.12500000000E+03 0.  0.
         25    1    1    2    0    0  0.75766607195E+02 -0.86332630824E+02 -0.39722334045E+03  0.43197833755E+03  0.12500000000E+03 0.  0.
</event>
<event>
 5    0  0.5576108E-005  0.2566084E+03  0.7546771E-02  0.1109198E+00
         21   -1    0    0  502  501  0.00000000000E+00  0.00000000000E+00  0.25534571012E+03  0.25534571012E+03  0.00000000000E+00 0. -1.
         21   -1    0    0  501  502 -0.00000000000E+00 -0.00000000000E+00 -0.25787723760E+03  0.25787723760E+03  0.00000000000E+00 0. -1.
         25    1    1    2    0    0  0.25647418521E+01  0.58029098001E+02 -0.36158069264E+02  0.14250038627E+03  0.12500000000E+03 0.  0.
         25    1    1    2    0    0  0.10016176973E+03 -0.11521094820E+03  0.25213598505E+02  0.19891372062E+03  0.12500000000E+03 0.  0.
         25    1    1    2    0    0 -0.10272651158E+03  0.57181850203E+02  0.84129432817E+01  0.17180884083E+03  0.12500000000E+03 0.  0.
</event>
<event>
 5    0  0.5576108E-005  0.4180637E+03  0.7546771E-02  0.1037698E+00
         21   -1    0    0  502  501  0.00000000000E+00  0.00000000000E+00  0.22909701594E+03  0.22909701594E+03  0.00000000000E+00 0. -1.
         21   -1    0    0  501  502 -0.00000000000E+00 -0.00000000000E+00 -0.76289638549E+03  0.76289638549E+03  0.00000000000E+00 0. -1.
         25    1    1    2    0    0 -0.29349128124E+03 -0.30134327103E+02 -0.68857697855E+02  0.32773707814E+03  0.12500000000E+03 0.  0.
         25    1    1    2    0    0  0.64842193718E+02  0.10488052530E+03 -0.29800530190E+03  0.34588523333E+03  0.12500000000E+03 0.  0.
         25    1    1    2    0    0  0.22864908752E+03 -0.74746198197E+02 -0.16693636980E+03  0.31837108997E+03  0.12500000000E+03 0.  0.
</event>
<event>
 5    0  0.5576108E-005  0.3166322E+03  0.7546771E-02  0.1077210E+00
         21   -1    0    0  502  501  0.00000000000E+00  0.00000000000E+00  0.46845264907E+03  0.46845264907E+03  0.00000000000E+00 0. -1.
         21   -1    0    0  501  502 -0.00000000000E+00 -0.00000000000E+00 -0.21401508223E+03  0.21401508223E+03  0.00000000000E+00 0. -1.
         25    1    1    2    0    0 -0.15233996535E+03  0.17505043693E+03  0.15207012098E+03  0.30430320769E+03  0.12500000000E+03 0.  0.
         25    1    1    2    0    0  0.41066994197E+02 -0.22538553394E+02  0.65742216004E+02  0.14880028013E+03  0.12500000000E+03 0.  0.
         25    1    1    2    0    0  0.11127297115E+03 -0.15251188354E+03  0.36625229854E+02  0.22936424349E+03  0.12500000000E+03 0.  0.
</event>
<event>
 5    0  0.5576108E-005  0.2802464E+03  0.7546771E-02  0.1095554E+00
         21   -1    0    0  502  501  0.00000000000E+00  0.00000000000E+00  0.14228437104E+03  0.14228437104E+03  0.00000000000E+00 0. -1.
         21   -1    0    0  501  502 -0.00000000000E+00 -0.00000000000E+00 -0.55197943799E+03  0.55197943799E+03  0.00000000000E+00 0. -1.
         25    1    1    2    0    0  0.37208968257E+02  0.61276344211E+02 -0.23763925016E+03  0.27791493464E+03  0.12500000000E+03 0.  0.
         25    1    1    2    0    0  0.21925622039E+01  0.44889499001E+02  0.46089357482E+02  0.14060264337E+03  0.12500000000E+03 0.  0.
         25    1    1    2    0    0 -0.39401530461E+02 -0.10616584321E+03 -0.21814517427E+03  0.27574623102E+03  0.12500000000E+03 0.  0.
</event>
<event>
 5    0  0.5576108E-005  0.3531122E+03  0.7546771E-02  0.1061345E+00
         21   -1    0    0  502  501  0.00000000000E+00  0.00000000000E+00  0.10402097761E+03  0.10402097761E+03  0.00000000000E+00 0. -1.
         21   -1    0    0  501  502 -0.00000000000E+00 -0.00000000000E+00 -0.11986837647E+04  0.11986837647E+04  0.00000000000E+00 0. -1.
         25    1    1    2    0    0  0.14092610306E+03  0.16821526060E+02 -0.88453722179E+03  0.90452983753E+03  0.12500000000E+03 0.  0.
         25    1    1    2    0    0 -0.51945997568E+02  0.62162298195E+02 -0.15970667210E+03  0.21838900864E+03  0.12500000000E+03 0.  0.
         25    1    1    2    0    0 -0.88980105488E+02 -0.78983824255E+02 -0.50418893222E+02  0.17978589617E+03  0.12500000000E+03 0.  0.
</event>
<event>
 5    0  0.5576108E-005  0.2567403E+03  0.7546771E-02  0.1109118E+00
         21   -1    0    0  502  501  0.00000000000E+00  0.00000000000E+00  0.72824368734E+02  0.72824368734E+02  0.00000000000E+00 0. -1.
         21   -1    0    0  501  502 -0.00000000000E+00 -0.00000000000E+00 -0.90513068951E+03  0.90513068951E+03  0.00000000000E+00 0. -1.
         25    1    1    2    0    0  0.38992478801E+02 -0.19400756405E+02 -0.31205094069E+03  0.33896547367E+03  0.12500000000E+03 0.  0.
         25    1    1    2    0    0 -0.27673874563E+02 -0.11996399116E+03 -0.31778455964E+03  0.36300031523E+03  0.12500000000E+03 0.  0.
         25    1    1    2    0    0 -0.11318604238E+02  0.13936474757E+03 -0.20247082045E+03  0.27598926935E+03  0.12500000000E+03 0.  0.
</event>
<event>
 5    0  0.5576108E-005  0.3013924E+03  0.7546771E-02  0.1084547E+00
         21   -1    0    0  502  501  0.00000000000E+00  0.00000000000E+00  0.50437058896E+02  0.50437058896E+02  0.00000000000E+00 0. -1.
         21   -1    0    0  501  502 -0.00000000000E+00 -0.00000000000E+00 -0.18010047126E+04  0.18010047126E+04  0.00000000000E+00 0. -1.
         25    1    1    2    0    0 -0.81787226532E+02 -0.14094606562E+03 -0.11563511158E+04  0.11744478902E+04  0.12500000000E+03 0.  0.
         25    1    1    2    0    0  0.30743527688E+02  0.13885732409E+03 -0.34894708507E+03  0.39700829857E+03  0.12500000000E+03 0.  0.
         25    1    1    2    0    0  0.51043698845E+02  0.20887415270E+01 -0.24526945284E+03  0.27998558272E+03  0.12500000000E+03 0.  0.
</event>
<event>
 5    0  0.5576108E-005  0.2744371E+03  0.7546771E-02  0.1098767E+00
         21   -1    0    0  502  501  0.00000000000E+00  0.00000000000E+00  0.41533518301E+03  0.41533518301E+03  0.00000000000E+00 0. -1.
         21   -1    0    0  501  502 -0.00000000000E+00 -0.00000000000E+00 -0.18133722219E+03  0.18133722219E+03  0.00000000000E+00 0. -1.
         25    1    1    2    0    0 -0.46687954470E+02 -0.17703780255E+02  0.63357097530E+01  0.13475284838E+03  0.12500000000E+03 0.  0.
         25    1    1    2    0    0  0.10222099654E+03  0.11785982346E+03  0.31047439721E+02  0.20230920304E+03  0.12500000000E+03 0.  0.
         25    1    1    2    0    0 -0.55533042071E+02 -0.10015604320E+03  0.19661481134E+03  0.25961035378E+03  0.12500000000E+03 0.  0.
</event>
<event>
 5    0  0.5576108E-005  0.3302021E+03  0.7546771E-02  0.1071047E+00
         21   -1    0    0  502  501  0.00000000000E+00  0.00000000000E+00  0.10962951667E+04  0.10962951667E+04  0.00000000000E+00 0. -1.
         21   -1    0    0  501  502 -0.00000000000E+00 -0.00000000000E+00 -0.99456296043E+02  0.99456296043E+02  0.00000000000E+00 0. -1.
         25    1    1    2    0    0 -0.19931542482E+03 -0.68425824262E+02  0.30191924585E+03  0.38883024961E+03  0.12500000000E+03 0.  0.
         25    1    1    2    0    0  0.13144227303E+03 -0.79274318874E+02  0.26669633250E+03  0.33213464519E+03  0.12500000000E+03 0.  0.
         25    1    1    2    0    0  0.67873151793E+02  0.14770014314E+03  0.42822329229E+03  0.47478656792E+03  0.12500000000E+03 0.  0.
</event>
<event>
 5    0  0.5576108E-005  0.2533212E+03  0.7546771E-02  0.1111224E+00
         21   -1    0    0  502  501  0.00000000000E+00  0.00000000000E+00  0.74402258717E+03  0.74402258717E+03  0.00000000000E+00 0.  1.
         21   -1    0    0  501  502 -0.00000000000E+00 -0.00000000000E+00 -0.86249561270E+02  0.86249561270E+02  0.00000000000E+00 0.  1.
         25    1    1    2    0    0 -0.48969497636E+02 -0.48145981784E+02  0.12262382169E+03  0.18808947048E+03  0.12500000000E+03 0.  0.
         25    1    1    2    0    0  0.13109480980E+03  0.43780627880E+02  0.19068431978E+03  0.26662352174E+03  0.12500000000E+03 0.  0.
         25    1    1    2    0    0 -0.82125312165E+02  0.43653539040E+01  0.34446488444E+03  0.37555915622E+03  0.12500000000E+03 0.  0.
</event>
<event>
 5    0  0.5576108E-005  0.2961239E+03  0.7546771E-02  0.1087194E+00
         21   -1    0    0  502  501  0.00000000000E+00  0.00000000000E+00  0.78731354288E+03  0.78731354288E+03  0.00000000000E+00 0.  1.
         21   -1    0    0  501  502 -0.00000000000E+00 -0.00000000000E+00 -0.11137795952E+03  0.11137795952E+03  0.00000000000E+00 0.  1.
         25    1    1    2    0    0 -0.98821031994E+01 -0.86579546762E+02  0.32670441877E+03  0.36049195709E+03  0.12500000000E+03 0.  0.
         25    1    1    2    0    0  0.16032175243E+03  0.60957371610E+02  0.18254594090E+03  0.27994086160E+03  0.12500000000E+03 0.  0.
         25    1    1    2    0    0 -0.15043964923E+03  0.25622175152E+02  0.16668522369E+03  0.25825868372E+03  0.12500000000E+03 0.  0.
</event>
<event>
 5    0  0.5576108E-005  0.5290840E+03  0.7546771E-02  0.1006455E+00
         21   -1    0    0  502  501  0.00000000000E+00  0.00000000000E+00  0.15416578638E+04  0.15416578638E+04  0.00000000000E+00 0. -1.
         21   -1    0    0  501  502 -0.00000000000E+00 -0.00000000000E+00 -0.18157720373E+03  0.18157720373E+03  0.00000000000E+00 0. -1.
         25    1    1    2    0    0 -0.25527990269E+03 -0.17852219555E+03  0.50422575902E+03  0.60572817260E+03  0.12500000000E+03 0.  0.
         25    1    1    2    0    0  0.22653641546E+03 -0.17896251928E+03  0.24730023108E+03  0.40016088656E+03  0.12500000000E+03 0.  0.
         25    1    1    2    0    0  0.28743487229E+02  0.35748471483E+03  0.60855467001E+03  0.71734600841E+03  0.12500000000E+03 0.  0.
</event>
<event>
 5    0  0.5576108E-005  0.3535223E+03  0.7546771E-02  0.1061179E+00
         21   -1    0    0  502  501  0.00000000000E+00  0.00000000000E+00  0.10789776994E+03  0.10789776994E+03  0.00000000000E+00 0. -1.
         21   -1    0    0  501  502 -0.00000000000E+00 -0.00000000000E+00 -0.11583003453E+04  0.11583003453E+04  0.00000000000E+00 0. -1.
         25    1    1    2    0    0 -0.23377532027E+03 -0.83894658892E+02 -0.30484472375E+03  0.41260697977E+03  0.12500000000E+03 0.  0.
         25    1    1    2    0    0  0.13344355370E+03 -0.31923195267E+02 -0.19788834011E+03  0.27131359636E+03  0.12500000000E+03 0.  0.
         25    1    1    2    0    0  0.10033176658E+03  0.11581785416E+03 -0.54766951148E+03  0.58227753909E+03  0.12500000000E+03 0.  0.
</event>
<event>
 5    0  0.5576108E-005  0.2042952E+03  0.7546771E-02  0.1146165E+00
         21   -1    0    0  502  501  0.00000000000E+00  0.00000000000E+00  0.65557505155E+02  0.65557505155E+02  0.00000000000E+00 0. -1.
         21   -1    0    0  501  502 -0.00000000000E+00 -0.00000000000E+00 -0.63664028042E+03  0.63664028042E+03  0.00000000000E+00 0. -1.
         25    1    1    2    0    0 -0.31489571024E+01  0.10000461860E+02 -0.31632567220E+03  0.34028937106E+03  0.12500000000E+03 0.  0.
         25    1    1    2    0    0 -0.11705516744E+02 -0.23786591066E+02 -0.15381374576E+03  0.19996622070E+03  0.12500000000E+03 0.  0.
         25    1    1    2    0    0  0.14854473846E+02  0.13786129206E+02 -0.10094335731E+03  0.16194219381E+03  0.12500000000E+03 0.  0.
</event>
<event>
 5    0  0.5576108E-005  0.3524574E+03  0.7546771E-02  0.1061611E+00
         21   -1    0    0  502  501  0.00000000000E+00  0.00000000000E+00  0.30791636673E+03  0.30791636673E+03  0.00000000000E+00 0.  1.
         21   -1    0    0  501  502 -0.00000000000E+00 -0.00000000000E+00 -0.40344132435E+03  0.40344132435E+03  0.00000000000E+00 0.  1.
         25    1    1    2    0    0  0.69274492173E+02 -0.21840102913E+03 -0.15145052042E+02  0.26144279947E+03  0.12500000000E+03 0.  0.
         25    1    1    2    0    0 -0.94134451036E+02  0.20201429483E+03  0.56995071843E+02  0.26181006169E+03  0.12500000000E+03 0.  0.
         25    1    1    2    0    0  0.24859958863E+02  0.16386734306E+02 -0.13737497743E+03  0.18810482992E+03  0.12500000000E+03 0.  0.
</event>
<event>
 5    0  0.5576108E-005  0.3727630E+03  0.7546771E-02  0.1053641E+00
         21   -1    0    0  502  501  0.00000000000E+00  0.00000000000E+00  0.47156777653E+02  0.47156777653E+02  0.00000000000E+00 0.  1.
         21   -1    0    0  501  502 -0.00000000000E+00 -0.00000000000E+00 -0.29466018570E+04  0.29466018570E+04  0.00000000000E+00 0.  1.
         25    1    1    2    0    0  0.61520318187E+02  0.11242856928E+03 -0.12536620024E+04  0.12663800176E+04  0.12500000000E+03 0.  0.
         25    1    1    2    0    0 -0.12624769270E+03 -0.25020509573E+03 -0.75302279783E+03  0.81314783643E+03  0.12500000000E+03 0.  0.
         25    1    1    2    0    0  0.64727374510E+02  0.13777652645E+03 -0.89276027916E+03  0.91423078066E+03  0.12500000000E+03 0.  0.
</event>
<event>
 5    0  0.5576108E-005  0.2210160E+03  0.7546771E-02  0.1133128E+00
         21   -1    0    0  502  501  0.00000000000E+00  0.00000000000E+00  0.11709428919E+04  0.11709428919E+04  0.00000000000E+00 0. -1.
         21   -1    0    0  501  502 -0.00000000000E+00 -0.00000000000E+00 -0.41716851725E+02  0.41716851725E+02  0.00000000000E+00 0. -1.
         25    1    1    2    0    0 -0.34375166173E+02  0.39941028317E+02  0.33411589632E+03  0.36060417353E+03  0.12500000000E+03 0.  0.
         25    1    1    2    0    0  0.47443461859E+02 -0.90863182064E+02  0.53255655466E+03  0.55655052227E+03  0.12500000000E+03 0.  0.
         25    1    1    2    0    0 -0.13068295686E+02  0.50922153747E+02  0.26255358923E+03  0.29550504786E+03  0.12500000000E+03 0.  0.
</event>
<event>
 5    0  0.5576108E-005  0.3928815E+03  0.7546771E-02  0.1046273E+00
         21   -1    0    0  502  501  0.00000000000E+00  0.00000000000E+00  0.39074354313E+03  0.39074354313E+03  0.00000000000E+00 0.  1.
         21   -1    0    0  501  502 -0.00000000000E+00 -0.00000000000E+00 -0.39503125442E+03  0.39503125442E+03  0.00000000000E+00 0.  1.
         25    1    1    2    0    0 -0.84043189275E+02 -0.74256665788E+02  0.77902312365E+01  0.16811602476E+03  0.12500000000E+03 0.  0.
         25    1    1    2    0    0  0.10163138524E+03 -0.23392473797E+03 -0.17645262319E+02  0.28458052776E+03  0.12500000000E+03 0.  0.
         25    1    1    2    0    0 -0.17588195961E+02  0.30818140376E+03  0.55673197857E+01  0.33307824503E+03  0.12500000000E+03 0.  0.
</event>
<event>
 5    0  0.5576108E-005  0.3716036E+03  0.7546771E-02  0.1054081E+00
         21   -1    0    0  502  501  0.00000000000E+00  0.00000000000E+00  0.11969958422E+03  0.11969958422E+03  0.00000000000E+00 0.  1.
         21   -1    0    0  501  502 -0.00000000000E+00 -0.00000000000E+00 -0.11536318536E+04  0.11536318536E+04  0.00000000000E+00 0.  1.
         25    1    1    2    0    0  0.68295530497E+02 -0.16070978696E+02 -0.13820012448E+03  0.19911511808E+03  0.12500000000E+03 0.  0.
         25    1    1    2    0    0  0.52043423079E+02  0.24326535284E+03 -0.27749378783E+03  0.39308313632E+03  0.12500000000E+03 0.  0.
         25    1    1    2    0    0 -0.12033895358E+03 -0.22719437415E+03 -0.61823835705E+03  0.68113318340E+03  0.12500000000E+03 0.  0.
</event>
<event>
 5    0  0.5576108E-005  0.2195742E+03  0.7546771E-02  0.1134201E+00
         21   -1    0    0  502  501  0.00000000000E+00  0.00000000000E+00  0.95865867401E+02  0.95865867401E+02  0.00000000000E+00 0.  1.
         21   -1    0    0  501  502 -0.00000000000E+00 -0.00000000000E+00 -0.50291951396E+03  0.50291951396E+03  0.00000000000E+00 0.  1.
         25    1    1    2    0    0  0.78063908583E+01 -0.19132037524E+02 -0.15046504840E+03  0.19670207266E+03  0.12500000000E+03 0.  0.
         25    1    1    2    0    0  0.12142379697E+02  0.94965996525E+02 -0.16669062965E+03  0.22929619250E+03  0.12500000000E+03 0.  0.
         25    1    1    2    0    0 -0.19948770556E+02 -0.75833959002E+02 -0.89897968509E+02  0.17278711621E+03  0.12500000000E+03 0.  0.
</event>
<event>
 5    0  0.5576108E-005  0.2567283E+03  0.7546771E-02  0.1109125E+00
         21   -1    0    0  502  501  0.00000000000E+00  0.00000000000E+00  0.48507126046E+03  0.48507126046E+03  0.00000000000E+00 0. -1.
         21   -1    0    0  501  502 -0.00000000000E+00 -0.00000000000E+00 -0.13587579091E+03  0.13587579091E+03  0.00000000000E+00 0. -1.
         25    1    1    2    0    0  0.32486906414E+02 -0.72875548005E+02  0.23652192788E+03  0.27916637862E+03  0.12500000000E+03 0.  0.
         25    1    1    2    0    0  0.49416205418E+02  0.10373964054E+03  0.52139657527E+02  0.17761592908E+03  0.12500000000E+03 0.  0.
         25    1    1    2    0    0 -0.81903111832E+02 -0.30864092531E+02  0.60533884151E+02  0.16416474367E+03  0.12500000000E+03 0.  0.
</event>
<event>
 5    0  0.5576108E-005  0.3548462E+03  0.7546771E-02  0.1060643E+00
         21   -1    0    0  502  501  0.00000000000E+00  0.00000000000E+00  0.31195171853E+03  0.31195171853E+03  0.00000000000E+00 0. -1.
         21   -1    0    0  501  502 -0.00000000000E+00 -0.00000000000E+00 -0.40363876093E+03  0.40363876093E+03  0.00000000000E+00 0. -1.
         25    1    1    2    0    0 -0.48471929453E+02 -0.36808847157E+02 -0.58695858407E+02  0.15091263356E+03  0.12500000000E+03 0.  0.
         25    1    1    2    0    0  0.17423676642E+03 -0.17810137815E+03 -0.58729580447E+02  0.28487315650E+03  0.12500000000E+03 0.  0.
         25    1    1    2    0    0 -0.12576483697E+03  0.21491022531E+03  0.25738396448E+02  0.27980468940E+03  0.12500000000E+03 0.  0.
</event>
<event>
 5    0  0.5576108E-005  0.5899520E+03  0.7546771E-02  0.9926474E-01
         21   -1    0    0  502  501  0.00000000000E+00  0.00000000000E+00  0.49705812331E+03  0.49705812331E+03  0.00000000000E+00 0.  1.
         21   -1    0    0  501  502 -0.00000000000E+00 -0.00000000000E+00 -0.70020662542E+03  0.70020662542E+03  0.00000000000E+00 0.  1.
         25    1    1    2    0    0 -0.38014401478E+01 -0.11745437542E+03  0.19512069126E+03  0.25982121817E+03  0.12500000000E+03 0.  0.
         25    1    1    2    0    0 -0.16657516090E+02  0.45432965528E+03 -0.31794327152E+03  0.56868781631E+03  0.12500000000E+03 0.  0.
         25    1    1    2    0    0  0.20458956238E+02 -0.33687527986E+03 -0.80325921852E+02  0.36875571425E+03  0.12500000000E+03 0.  0.
</event>
<event>
 5    0  0.5576108E-005  0.3523161E+03  0.7546771E-02  0.1061668E+00
         21   -1    0    0  502  501  0.00000000000E+00  0.00000000000E+00  0.10828109133E+04  0.10828109133E+04  0.00000000000E+00 0.  1.
         21   -1    0    0  501  502 -0.00000000000E+00 -0.00000000000E+00 -0.11463369286E+03  0.11463369286E+03  0.00000000000E+00 0.  1.
         25    1    1    2    0    0  0.39511306305E+02  0.18183678806E+03  0.40265539829E+03  0.46084935780E+03  0.12500000000E+03 0.  0.
         25    1    1    2    0    0  0.12329193999E+03  0.18812820371E+02  0.15067201689E+03  0.23212471077E+03  0.12500000000E+03 0.  0.
         25    1    1    2    0    0 -0.16280324630E+03 -0.20064960843E+03  0.41484980525E+03  0.50447053758E+03  0.12500000000E+03 0.  0.
</event>
<event>
 5    0  0.5576108E-005  0.2760240E+03  0.7546771E-02  0.1097881E+00
         21   -1    0    0  502  501  0.00000000000E+00  0.00000000000E+00  0.43039274644E+03  0.43039274644E+03  0.00000000000E+00 0. -1.
         21   -1    0    0  501  502 -0.00000000000E+00 -0.00000000000E+00 -0.17702262355E+03  0.17702262355E+03  0.00000000000E+00 0. -1.
         25    1    1    2    0    0  0.32038427540E+02 -0.16380203423E+03  0.14237146338E+03  0.25249198174E+03  0.12500000000E+03 0.  0.
         25    1    1    2    0    0 -0.79594598671E+02  0.10943324942E+03  0.10129074011E+03  0.21022785317E+03  0.12500000000E+03 0.  0.
         25    1    1    2    0    0  0.47556171130E+02  0.54368784811E+02  0.97079194020E+01  0.14469553508E+03  0.12500000000E+03 0.  0.
</event>
<event>
 5    0  0.5576108E-005  0.3399938E+03  0.7546771E-02  0.1066799E+00
         21   -1    0    0  502  501  0.00000000000E+00  0.00000000000E+00  0.15376253143E+03  0.15376253143E+03  0.00000000000E+00 0. -1.
         21   -1    0    0  501  502 -0.00000000000E+00 -0.00000000000E+00 -0.75178123110E+03  0.75178123110E+03  0.00000000000E+00 0. -1.
         25    1    1    2    0    0 -0.98112994203E+02  0.60763825269E+02 -0.15716648832E+03  0.23161327066E+03  0.12500000000E+03 0.  0.
         25    1    1    2    0    0 -0.64822192430E+02  0.12038272591E+03 -0.41722550411E+02  0.18989388759E+03  0.12500000000E+03 0.  0.
         25    1    1    2    0    0  0.16293518663E+03 -0.18114655118E+03 -0.39912966094E+03  0.48403660428E+03  0.12500000000E+03 0.  0.
</event>
<event>
 5    0  0.5576108E-005  0.3362374E+03  0.7546771E-02  0.1068410E+00
         21   -1    0    0  502  501  0.00000000000E+00  0.00000000000E+00  0.12806906871E+03  0.12806906871E+03  0.00000000000E+00 0. -1.
         21   -1    0    0  501  502 -0.00000000000E+00 -0.00000000000E+00 -0.88277068507E+03  0.88277068507E+03  0.00000000000E+00 0. -1.
         25    1    1    2    0    0 -0.42927024425E+02 -0.19752917733E+03 -0.29592685274E+03  0.37955000658E+03  0.12500000000E+03 0.  0.
         25    1    1    2    0    0 -0.42091719336E+02  0.21195551423E+03 -0.16108397634E+03  0.29710250803E+03  0.12500000000E+03 0.  0.
         25    1    1    2    0    0  0.85018743761E+02 -0.14426336894E+02 -0.29769078729E+03  0.33418723917E+03  0.12500000000E+03 0.  0.
</event>
<event>
 5    0  0.5576108E-005  0.2357675E+03  0.7546771E-02  0.1122645E+00
         21   -1    0    0  502  501  0.00000000000E+00  0.00000000000E+00  0.86056078177E+03  0.86056078177E+03  0.00000000000E+00 0. -1.
         21   -1    0    0  501  502 -0.00000000000E+00 -0.00000000000E+00 -0.64593109843E+02  0.64593109843E+02  0.00000000000E+00 0. -1.
         25    1    1    2    0    0  0.32868538174E+02 -0.95430624728E+02  0.15893644751E+03  0.22599367090E+03  0.12500000000E+03 0.  0.
         25    1    1    2    0    0  0.58017467070E+01  0.77663045457E+02  0.42047300245E+03  0.44551964567E+03  0.12500000000E+03 0.  0.
         25    1    1    2    0    0 -0.38670284881E+02  0.17767579271E+02  0.21655822197E+03  0.25364057504E+03  0.12500000000E+03 0.  0.
</event>
<event>
 5    0  0.5576108E-005  0.2946299E+03  0.7546771E-02  0.1087956E+00
         21   -1    0    0  502  501  0.00000000000E+00  0.00000000000E+00  0.12611923017E+03  0.12611923017E+03  0.00000000000E+00 0.  1.
         21   -1    0    0  501  502 -0.00000000000E+00 -0.00000000000E+00 -0.68829127696E+03  0.68829127696E+03  0.00000000000E+00 0.  1.
         25    1    1    2    0    0  0.66502005057E+02 -0.12016095257E+02 -0.22825890017E+02  0.14391985435E+03  0.12500000000E+03 0.  0.
         25    1    1    2    0    0  0.11322488379E+03  0.43934870495E+02 -0.27754608669E+03  0.32773003737E+03  0.12500000000E+03 0.  0.
         25    1    1    2    0    0 -0.17972688885E+03 -0.31918775238E+02 -0.26180007008E+03  0.34276061541E+03  0.12500000000E+03 0.  0.
</event>
<event>
 5    0  0.5576108E-005  0.3299469E+03  0.7546771E-02  0.1071160E+00
         21   -1    0    0  502  501  0.00000000000E+00  0.00000000000E+00  0.90962413476E+02  0.90962413476E+02  0.00000000000E+00 0. -1.
         21   -1    0    0  501  502 -0.00000000000E+00 -0.00000000000E+00 -0.11968127691E+04  0.11968127691E+04  0.00000000000E+00 0. -1.
         25    1    1    2    0    0  0.68792339018E+02 -0.13276483891E+03 -0.15372565096E+03  0.24822462432E+03  0.12500000000E+03 0.  0.
         25    1    1    2    0    0 -0.11408742160E+03  0.13897378615E+03 -0.83174226053E+03  0.86008711242E+03  0.12500000000E+03 0.  0.
         25    1    1    2    0    0  0.45295082579E+02 -0.62089472368E+01 -0.12038244413E+03  0.17946344582E+03  0.12500000000E+03 0.  0.
</event>
<event>
 5    0  0.5576108E-005  0.5753669E+03  0.7546771E-02  0.9957872E-01
         21   -1    0    0  502  501  0.00000000000E+00  0.00000000000E+00  0.14457697618E+04  0.14457697618E+04  0.00000000000E+00 0. -1.
         21   -1    0    0  501  502 -0.00000000000E+00 -0.00000000000E+00 -0.22897631611E+03  0.22897631611E+03  0.00000000000E+00 0. -1.
         25    1    1    2    0    0 -0.37975969335E+03 -0.24163091005E+03  0.96396897000E+03  0.10711975058E+04  0.12500000000E+03 0.  0.
         25    1    1    2    0    0  0.62663915585E+02  0.25804487461E+02  0.91342664419E+02  0.16900035572E+03  0.12500000000E+03 0.  0.
         25    1    1    2    0    0  0.31709577777E+03  0.21582642259E+03  0.16148181126E+03  0.43454821635E+03  0.12500000000E+03 0.  0.
</event>
<event>
 5    0  0.5576108E-005  0.2211125E+03  0.7546771E-02  0.1133056E+00
         21   -1    0    0  502  501  0.00000000000E+00  0.00000000000E+00  0.93282762123E+02  0.93282762123E+02  0.00000000000E+00 0. -1.
         21   -1    0    0  501  502 -0.00000000000E+00 -0.00000000000E+00 -0.52411349032E+03  0.52411349032E+03  0.00000000000E+00 0. -1.
         25    1    1    2    0    0 -0.99556157006E+01  0.47399901221E+02 -0.28907574789E+03  0.31864659568E+03  0.12500000000E+03 0.  0.
         25    1    1    2    0    0 -0.43697550671E+01 -0.32344024842E+02 -0.10592986240E+03  0.16706695200E+03  0.12500000000E+03 0.  0.
         25    1    1    2    0    0  0.14325370768E+02 -0.15055876380E+02 -0.35825117910E+02  0.13168270477E+03  0.12500000000E+03 0.  0.
</event>
<event>
 5    0  0.5576108E-005  0.2577580E+03  0.7546771E-02  0.1108498E+00
         21   -1    0    0  502  501  0.00000000000E+00  0.00000000000E+00  0.14960546500E+03  0.14960546500E+03  0.00000000000E+00 0.  1.
         21   -1    0    0  501  502 -0.00000000000E+00 -0.00000000000E+00 -0.44409608599E+03  0.44409608599E+03  0.00000000000E+00 0.  1.
         25    1    1    2    0    0  0.80599108135E+02 -0.11218572410E+01  0.61859723284E+01  0.14886484155E+03  0.12500000000E+03 0.  0.
         25    1    1    2    0    0 -0.10603814548E+03 -0.27198095728E+02 -0.71212488010E+02  0.18077622398E+03  0.12500000000E+03 0.  0.
         25    1    1    2    0    0  0.25439037349E+02  0.28319952969E+02 -0.22946410531E+03  0.26406048546E+03  0.12500000000E+03 0.  0.
</event>
<event>
 5    0  0.5576108E-005  0.4838326E+03  0.7546771E-02  0.1018087E+00
         21   -1    0    0  502  501  0.00000000000E+00  0.00000000000E+00  0.31774208219E+03  0.31774208219E+03  0.00000000000E+00 0. -1.
         21   -1    0    0  501  502 -0.00000000000E+00 -0.00000000000E+00 -0.73674202971E+03  0.73674202971E+03  0.00000000000E+00 0. -1.
         25    1    1    2    0    0  0.19038963151E+03 -0.45456385471E+02 -0.73109257973E+02  0.24348400023E+03  0.12500000000E+03 0.  0.
         25    1    1    2    0    0 -0.79385859448E+02 -0.13315463672E+03 -0.48870769168E+03  0.52772386707E+03  0.12500000000E+03 0.  0.
         25    1    1    2    0    0 -0.11100377206E+03  0.17861102219E+03  0.14281700214E+03  0.28327624461E+03  0.12500000000E+03 0.  0.
</event>
<event>
 5    0  0.5576108E-005  0.5799590E+03  0.7546771E-02  0.9947880E-01
         21   -1    0    0  502  501  0.00000000000E+00  0.00000000000E+00  0.18314650264E+03  0.18314650264E+03  0.00000000000E+00 0.  1.
         21   -1    0    0  501  502 -0.00000000000E+00 -0.00000000000E+00 -0.18365214116E+04  0.18365214116E+04  0.00000000000E+00 0.  1.
         25    1    1    2    0    0 -0.19721689381E+02 -0.89952913952E+02 -0.51274841159E+03  0.53573912061E+03  0.12500000000E+03 0.  0.
         25    1    1    2    0    0 -0.98683220028E+02 -0.28801674836E+03 -0.71267502827E+02  0.33674334769E+03  0.12500000000E+03 0.  0.
         25    1    1    2    0    0  0.11840490941E+03  0.37796966231E+03 -0.10693589946E+04  0.11471854460E+04  0.12500000000E+03 0.  0.
</event>
<event>
 5    0  0.5576108E-005  0.2084312E+03  0.7546771E-02  0.1142814E+00
         21   -1    0    0  502  501  0.00000000000E+00  0.00000000000E+00  0.14901364822E+03  0.14901364822E+03  0.00000000000E+00 0. -1.
         21   -1    0    0  501  502 -0.00000000000E+00 -0.00000000000E+00 -0.29154085631E+03  0.29154085631E+03  0.00000000000E+00 0. -1.
         25    1    1    2    0    0 -0.59604353037E+01  0.73041160148E+01 -0.89423762966E+01  0.12567355726E+03  0.12500000000E+03 0.  0.
         25    1    1    2    0    0  0.63050297883E+02 -0.34703774469E+02 -0.56137674028E+02  0.15477768079E+03  0.12500000000E+03 0.  0.
         25    1    1    2    0    0 -0.57089862579E+02  0.27399658454E+02 -0.77447157766E+02  0.16010326648E+03  0.12500000000E+03 0.  0.
</event>
<event>
 5    0  0.5576108E-005  0.2888596E+03  0.7546771E-02  0.1090946E+00
         21   -1    0    0  502  501  0.00000000000E+00  0.00000000000E+00  0.57379530048E+03  0.57379530048E+03  0.00000000000E+00 0. -1.
         21   -1    0    0  501  502 -0.00000000000E+00 -0.00000000000E+00 -0.14541750066E+03  0.14541750066E+03  0.00000000000E+00 0. -1.
         25    1    1    2    0    0  0.42782182230E+02  0.29752467026E+02  0.35260164330E+03  0.37771476443E+03  0.12500000000E+03 0.  0.
         25    1    1    2    0    0 -0.87562349533E+01  0.38305903583E+02 -0.57939913102E+02  0.14326914333E+03  0.12500000000E+03 0.  0.
         25    1    1    2    0    0 -0.34025947276E+02 -0.68058370609E+02  0.13371606962E+03  0.19822889338E+03  0.12500000000E+03 0.  0.
</event>
<event>
 5    0  0.5576108E-005  0.3637941E+03  0.7546771E-02  0.1057092E+00
         21   -1    0    0  502  501  0.00000000000E+00  0.00000000000E+00  0.25297043248E+03  0.25297043248E+03  0.00000000000E+00 0. -1.
         21   -1    0    0  501  502 -0.00000000000E+00 -0.00000000000E+00 -0.52316833506E+03  0.52316833506E+03  0.00000000000E+00 0. -1.
         25    1    1    2    0    0 -0.92067691493E+02 -0.16187744479E+03 -0.15628931781E+03  0.27337175752E+03  0.12500000000E+03 0.  0.
         25    1    1    2    0    0  0.68939092409E+02 -0.94133006327E+02 -0.13251098995E+03  0.21632795427E+03  0.12500000000E+03 0.  0.
         25    1    1    2    0    0  0.23128599084E+02  0.25601045112E+03  0.18602405187E+02  0.28643905574E+03  0.12500000000E+03 0.  0.
</event>
<event>
 5    0  0.5576108E-005  0.3373971E+03  0.7546771E-02  0.1067910E+00
         21   -1    0    0  502  501  0.00000000000E+00  0.00000000000E+00  0.56819985344E+02  0.56819985344E+02  0.00000000000E+00 0.  1.
         21   -1    0    0  501  502 -0.00000000000E+00 -0.00000000000E+00 -0.20034645384E+04  0.20034645384E+04  0.00000000000E+00 0.  1.
         25    1    1    2    0    0  0.26174757053E+02 -0.71565029323E+02 -0.10692864212E+03  0.18128818449E+03  0.12500000000E+03 0.  0.
         25    1    1    2    0    0 -0.14377987481E+03 -0.13691049585E+00 -0.10918120455E+04  0.11083100712E+04  0.12500000000E+03 0.  0.
         25    1    1    2    0    0  0.11760511776E+03  0.71701939818E+02 -0.74790386547E+03  0.77068626812E+03  0.12500000000E+03 0.  0.
</event>
<event>
 5    0  0.5576108E-005  0.2969185E+03  0.7546771E-02  0.1086791E+00
         21   -1    0    0  502  501  0.00000000000E+00  0.00000000000E+00  0.88293254169E+03  0.88293254169E+03  0.00000000000E+00 0.  1.
         21   -1    0    0  501  502 -0.00000000000E+00 -0.00000000000E+00 -0.99849727247E+02  0.99849727247E+02  0.00000000000E+00 0.  1.
         25    1    1    2    0    0  0.25778347315E+02  0.14154060433E+03  0.45521132455E+03  0.49349834434E+03  0.12500000000E+03 0.  0.
         25    1    1    2    0    0  0.77242389317E+02 -0.57970280093E+01  0.17425531897E+03  0.22801295672E+03  0.12500000000E+03 0.  0.
         25    1    1    2    0    0 -0.10302073663E+03 -0.13574357632E+03  0.15361617092E+03  0.26127096788E+03  0.12500000000E+03 0.  0.
</event>
<event>
 5    0  0.5576108E-005  0.2532607E+03  0.7546771E-02  0.1111261E+00
         21   -1    0    0  502  501  0.00000000000E+00  0.00000000000E+00  0.23689438269E+03  0.23689438269E+03  0.00000000000E+00 0.  1.
         21   -1    0    0  501  502 -0.00000000000E+00 -0.00000000000E+00 -0.27075769707E+03  0.27075769707E+03  0.00000000000E+00 0.  1.
         25    1    1    2    0    0 -0.93664927353E+01  0.31966688623E+02 -0.32596425818E+02  0.13340587447E+03  0.12500000000E+03 0.  0.
         25    1    1    2    0    0  0.39555697624E+02 -0.92652033733E+02 -0.11053712062E+03  0.19491666836E+03  0.12500000000E+03 0.  0.
         25    1    1    2    0    0 -0.30189204889E+02  0.60685345110E+02  0.10927023205E+03  0.17932953693E+03  0.12500000000E+03 0.  0.
</event>
<event>
 5    0  0.5576108E-005  0.5240216E+03  0.7546771E-02  0.1007692E+00
         21   -1    0    0  502  501  0.00000000000E+00  0.00000000000E+00  0.12216849266E+03  0.12216849266E+03  0.00000000000E+00 0. -1.
         21   -1    0    0  501  502 -0.00000000000E+00 -0.00000000000E+00 -0.22477043354E+04  0.22477043354E+04  0.00000000000E+00 0. -1.
         25    1    1    2    0    0  0.19420421701E+03 -0.12469626244E+03 -0.98821385058E+03  0.10224754522E+04  0.12500000000E+03 0.  0.
         25    1    1    2    0    0 -0.11258470117E+03  0.31631018685E+03 -0.10130815687E+04  0.10745634994E+04  0.12500000000E+03 0.  0.
         25    1    1    2    0    0 -0.81619515844E+02 -0.19161392441E+03 -0.12424042348E+03  0.27283387660E+03  0.12500000000E+03 0.  0.
</event>
<event>
 5    0  0.5576108E-005  0.4175571E+03  0.7546771E-02  0.1037864E+00
         21   -1    0    0  502  501  0.00000000000E+00  0.00000000000E+00  0.13596916534E+04  0.13596916534E+04  0.00000000000E+00 0. -1.
         21   -1    0    0  501  502 -0.00000000000E+00 -0.00000000000E+00 -0.12823051720E+03  0.12823051720E+03  0.00000000000E+00 0. -1.
         25    1    1    2    0    0 -0.13790657883E+03  0.13683996133E+03  0.22924867642E+03  0.32545868423E+03  0.12500000000E+03 0.  0.
         25    1    1    2    0    0  0.10222468997E+03 -0.32299370607E+03  0.64479858318E+03  0.73902979254E+03  0.12500000000E+03 0.  0.
         25    1    1    2    0    0  0.35681888860E+02  0.18615374474E+03  0.35741387661E+03  0.42343369382E+03  0.12500000000E+03 0.  0.
</event>
<event>
 5    0  0.5576108E-005  0.2398647E+03  0.7546771E-02  0.1119883E+00
         21   -1    0    0  502  501  0.00000000000E+00  0.00000000000E+00  0.17798418925E+03  0.17798418925E+03  0.00000000000E+00 0. -1.
         21   -1    0    0  501  502 -0.00000000000E+00 -0.00000000000E+00 -0.32325950702E+03  0.32325950702E+03  0.00000000000E+00 0. -1.
         25    1    1    2    0    0 -0.61327332345E+02 -0.32191011249E+02 -0.42271277820E+02  0.14902739287E+03  0.12500000000E+03 0.  0.
         25    1    1    2    0    0 -0.10163788646E+02 -0.82699673993E+02 -0.67117155413E+02  0.16453647386E+03  0.12500000000E+03 0.  0.
         25    1    1    2    0    0  0.71491120990E+02  0.11489068524E+03 -0.35886884537E+02  0.18767982954E+03  0.12500000000E+03 0.  0.
</event>
<event>
 5    0  0.5576108E-005  0.3214146E+03  0.7546771E-02  0.1075000E+00
         21   -1    0    0  502  501  0.00000000000E+00  0.00000000000E+00  0.29828106281E+03  0.29828106281E+03  0.00000000000E+00 0.  1.
         21   -1    0    0  501  502 -0.00000000000E+00 -0.00000000000E+00 -0.34634232434E+03  0.34634232434E+03  0.00000000000E+00 0.  1.
         25    1    1    2    0    0 -0.14181818284E+02  0.42944104601E+02 -0.45930480638E+02  0.14064113602E+03  0.12500000000E+03 0.  0.
         25    1    1    2    0    0 -0.13807378121E+03 -0.17697094349E+03  0.45729715636E+02  0.26095840816E+03  0.12500000000E+03 0.  0.
         25    1    1    2    0    0  0.15225559950E+03  0.13402683889E+03 -0.47860496533E+02  0.24302384297E+03  0.12500000000E+03 0.  0.
</event>
<event>
 5    0  0.5576108E-005  0.2512714E+03  0.7546771E-02  0.1112504E+00
         21   -1    0    0  502  501  0.00000000000E+00  0.00000000000E+00  0.10005142787E+04  0.10005142787E+04  0.00000000000E+00 0. -1.
         21   -1    0    0  501  502 -0.00000000000E+00 -0.00000000000E+00 -0.63104871842E+02  0.63104871842E+02  0.00000000000E+00 0. -1.
         25    1    1    2    0    0  0.30503886860E+02 -0.43451643674E+02  0.45394588032E+03  0.47382527867E+03  0.12500000000E+03 0.  0.
         25    1    1    2    0    0 -0.60474567774E+02 -0.88043090159E+01  0.74284040575E+02  0.15772700431E+03  0.12500000000E+03 0.  0.
         25    1    1    2    0    0  0.29970680915E+02  0.52255952690E+02  0.40917948595E+03  0.43206686755E+03  0.12500000000E+03 0.  0.
</event>
<event>
 5    0  0.5576108E-005  0.3146642E+03  0.7546771E-02  0.1078132E+00
         21   -1    0    0  502  501  0.00000000000E+00  0.00000000000E+00  0.93596931911E+02  0.93596931911E+02  0.00000000000E+00 0.  1.
         21   -1    0    0  501  502 -0.00000000000E+00 -0.00000000000E+00 -0.10578716594E+04  0.10578716594E+04  0.00000000000E+00 0.  1.
         25    1    1    2    0    0  0.64689347106E+01  0.30374936024E+02 -0.24002168552E+03  0.27239657372E+03  0.12500000000E+03 0.  0.
         25    1    1    2    0    0  0.23433524387E+02 -0.22551707443E+03 -0.31433705623E+03  0.40723441142E+03  0.12500000000E+03 0.  0.
         25    1    1    2    0    0 -0.29902459097E+02  0.19514213840E+03 -0.40991598577E+03  0.47183760621E+03  0.12500000000E+03 0.  0.
</event>
<event>
 5    0  0.5576108E-005  0.4288786E+03  0.7546771E-02  0.1034215E+00
         21   -1    0    0  502  501  0.00000000000E+00  0.00000000000E+00  0.60577290425E+03  0.60577290425E+03  0.00000000000E+00 0.  1.
         21   -1    0    0  501  502 -0.00000000000E+00 -0.00000000000E+00 -0.30363996535E+03  0.30363996535E+03  0.00000000000E+00 0.  1.
         25    1    1    2    0    0  0.19467524534E+03  0.81446527703E+02 -0.17537920437E+03  0.30152090035E+03  0.12500000000E+03 0.  0.
         25    1    1    2    0    0 -0.48313059811E+02  0.41273138050E+02  0.12456784882E+03  0.18756271653E+03  0.12500000000E+03 0.  0.
         25    1    1    2    0    0 -0.14636218553E+03 -0.12271966575E+03  0.35294429445E+03  0.42032925273E+03  0.12500000000E+03 0.  0.
</event>
<event>
 5    0  0.5576108E-005  0.2458805E+03  0.7546771E-02  0.1115936E+00
         21   -1    0    0  502  501  0.00000000000E+00  0.00000000000E+00  0.20709207806E+03  0.20709207806E+03  0.00000000000E+00 0. -1.
         21   -1    0    0  501  502 -0.00000000000E+00 -0.00000000000E+00 -0.29193403619E+03  0.29193403619E+03  0.00000000000E+00 0. -1.
         25    1    1    2    0    0 -0.48908463596E+02  0.96400495884E+02  0.16375993118E+02  0.16606705443E+03  0.12500000000E+03 0.  0.
         25    1    1    2    0    0 -0.11799560665E+02  0.30265070338E+02 -0.43105553652E+02  0.13615539971E+03  0.12500000000E+03 0.  0.
         25    1    1    2    0    0  0.60708024262E+02 -0.12666556622E+03 -0.58112397597E+02  0.19680366010E+03  0.12500000000E+03 0.  0.
</event>
<event>
 5    0  0.5576108E-005  0.2535802E+03  0.7546771E-02  0.1111063E+00
         21   -1    0    0  502  501  0.00000000000E+00  0.00000000000E+00  0.58932744509E+03  0.58932744509E+03  0.00000000000E+00 0.  1.
         21   -1    0    0  501  502 -0.00000000000E+00 -0.00000000000E+00 -0.10911238065E+03  0.10911238065E+03  0.00000000000E+00 0.  1.
         25    1    1    2    0    0 -0.29606216529E+02  0.71390946119E+02  0.52302723219E+02  0.15599285272E+03  0.12500000000E+03 0.  0.
         25    1    1    2    0    0 -0.71290294449E+02 -0.31695581095E+02  0.29666805286E+03  0.33124590493E+03  0.12500000000E+03 0.  0.
         25    1    1    2    0    0  0.10089651098E+03 -0.39695365024E+02  0.13124428837E+03  0.21120106809E+03  0.12500000000E+03 0.  0.
</event>
<event>
 5    0  0.5804048E-005  0.3374429E+03  0.7546771E-02  0.1067890E+00
         21   -1    0    0  502  501  0.00000000000E+00  0.00000000000E+00  0.94274637655E+03  0.94274637655E+03  0.00000000000E+00 0.  1.
         21   -1    0    0  501  502 -0.00000000000E+00 -0.00000000000E+00 -0.12078298930E+03  0.12078298930E+03  0.00000000000E+00 0.  1.
         25    1    1    2    0    0 -0.83909596313E+02 -0.10364472329E+03  0.39430433266E+03  0.43460781835E+03  0.12500000000E+03 0.  0.
         25    1    1    2    0    0 -0.74088890874E+02  0.98451167395E+02  0.23215169070E+02  0.17704728235E+03  0.12500000000E+03 0.  0.
         25    1    1    2    0    0  0.15799848719E+03  0.51935558916E+01  0.40444388552E+03  0.45187426516E+03  0.12500000000E+03 0.  0.
</event>
<event>
 5    0  0.5576108E-005  0.2612280E+03  0.7546771E-02  0.1106408E+00
         21   -1    0    0  502  501  0.00000000000E+00  0.00000000000E+00  0.78387037823E+02  0.78387037823E+02  0.00000000000E+00 0. -1.
         21   -1    0    0  501  502 -0.00000000000E+00 -0.00000000000E+00 -0.87055308161E+03  0.87055308161E+03  0.00000000000E+00 0. -1.
         25    1    1    2    0    0 -0.21132837063E+02  0.64269998485E+02 -0.15708490451E+03  0.21184403870E+03  0.12500000000E+03 0.  0.
         25    1    1    2    0    0 -0.62900584772E+02  0.36357908538E+02 -0.47099030817E+03  0.49268169386E+03  0.12500000000E+03 0.  0.
         25    1    1    2    0    0  0.84033421835E+02 -0.10062790702E+03 -0.16409083111E+03  0.24441438688E+03  0.12500000000E+03 0.  0.
</event>
<event>
 5    0  0.5743346E-005  0.3627877E+03  0.7546771E-02  0.1057485E+00
         21   -1    0    0  502  501  0.00000000000E+00  0.00000000000E+00  0.22913600933E+03  0.22913600933E+03  0.00000000000E+00 0. -1.
         21   -1    0    0  501  502 -0.00000000000E+00 -0.00000000000E+00 -0.57439653340E+03  0.57439653340E+03  0.00000000000E+00 0. -1.
         25    1    1    2    0    0 -0.21446418007E+02 -0.11258646990E+03 -0.33234588801E+03  0.37311452844E+03  0.12500000000E+03 0.  0.
         25    1    1    2    0    0 -0.15028780508E+03  0.56701298579E+02  0.32557514116E+02  0.20612242319E+03  0.12500000000E+03 0.  0.
         25    1    1    2    0    0  0.17173422308E+03  0.55885171319E+02 -0.45472150170E+02  0.22429559111E+03  0.12500000000E+03 0.  0.
</event>
<event>
 5    0  0.5576108E-005  0.2612555E+03  0.7546771E-02  0.1106391E+00
         21   -1    0    0  502  501  0.00000000000E+00  0.00000000000E+00  0.87508601801E+02  0.87508601801E+02  0.00000000000E+00 0.  1.
         21   -1    0    0  501  502 -0.00000000000E+00 -0.00000000000E+00 -0.77997376388E+03  0.77997376388E+03  0.00000000000E+00 0.  1.
         25    1    1    2    0    0 -0.77054992668E+02  0.37342241779E+01 -0.27090582125E+03  0.30816615698E+03  0.12500000000E+03 0.  0.
         25    1    1    2    0    0  0.96450572190E+02  0.93686790631E+02 -0.12373464543E+03  0.22139374448E+03  0.12500000000E+03 0.  0.
         25    1    1    2    0    0 -0.19395579522E+02 -0.97421014809E+02 -0.29782469540E+03  0.33792246421E+03  0.12500000000E+03 0.  0.
</event>
<event>
 5    0  0.5576108E-005  0.4913849E+03  0.7546771E-02  0.1016052E+00
         21   -1    0    0  502  501  0.00000000000E+00  0.00000000000E+00  0.17260029036E+03  0.17260029036E+03  0.00000000000E+00 0. -1.
         21   -1    0    0  501  502 -0.00000000000E+00 -0.00000000000E+00 -0.13989495976E+04  0.13989495976E+04  0.00000000000E+00 0. -1.
         25    1    1    2    0    0  0.28264253109E+03  0.17951132437E+03 -0.36872026903E+03  0.51350827915E+03  0.12500000000E+03 0.  0.
         25    1    1    2    0    0  0.61722981902E+02  0.87813684590E+02 -0.26019673691E+03  0.30797453076E+03  0.12500000000E+03 0.  0.
         25    1    1    2    0    0 -0.34436551299E+03 -0.26732500896E+03 -0.59743230132E+03  0.75006707808E+03  0.12500000000E+03 0.  0.
</event>
<event>
 5    0  0.5576108E-005  0.3147160E+03  0.7546771E-02  0.1078107E+00
         21   -1    0    0  502  501  0.00000000000E+00  0.00000000000E+00  0.15109234757E+03  0.15109234757E+03  0.00000000000E+00 0. -1.
         21   -1    0    0  501  502 -0.00000000000E+00 -0.00000000000E+00 -0.65553385228E+03  0.65553385228E+03  0.00000000000E+00 0. -1.
         25    1    1    2    0    0  0.54413247236E+02  0.79047469121E+02 -0.37383539889E+03  0.40569349183E+03  0.12500000000E+03 0.  0.
         25    1    1    2    0    0 -0.94773148323E+02 -0.15956775891E+03 -0.93151746497E+02  0.24237587999E+03  0.12500000000E+03 0.  0.
         25    1    1    2    0    0  0.40359901086E+02  0.80520289785E+02 -0.37454359320E+02  0.15855682803E+03  0.12500000000E+03 0.  0.
</event>
<event>
 5    0  0.5576108E-005  0.3903824E+03  0.7546771E-02  0.1047162E+00
         21   -1    0    0  502  501  0.00000000000E+00  0.00000000000E+00  0.27720525240E+03  0.27720525240E+03  0.00000000000E+00 0.  1.
         21   -1    0    0  501  502 -0.00000000000E+00 -0.00000000000E+00 -0.54976730475E+03  0.54976730475E+03  0.00000000000E+00 0. -1.
         25    1    1    2    0    0  0.18626486690E+03  0.74446312304E+02  0.78744058353E+02  0.24912342480E+03  0.12500000000E+03 0.  0.
         25    1    1    2    0    0  0.57236725519E+02 -0.64929104005E+01 -0.23592841211E+03  0.27313992069E+03  0.12500000000E+03 0.  0.
         25    1    1    2    0    0 -0.24350159242E+03 -0.67953401903E+02 -0.11537769859E+03  0.30470921166E+03  0.12500000000E+03 0.  0.
</event>
<event>
 5    0  0.5576108E-005  0.2427921E+03  0.7546771E-02  0.1117947E+00
         21   -1    0    0  502  501  0.00000000000E+00  0.00000000000E+00  0.61033619622E+03  0.61033619622E+03  0.00000000000E+00 0. -1.
         21   -1    0    0  501  502 -0.00000000000E+00 -0.00000000000E+00 -0.96582820127E+02  0.96582820127E+02  0.00000000000E+00 0. -1.
         25    1    1    2    0    0  0.30653028228E+02  0.19461474460E+02  0.45468684160E+02  0.13787950670E+03  0.12500000000E+03 0.  0.
         25    1    1    2    0    0 -0.88786259098E+02  0.38358259349E+02  0.15234854302E+03  0.21952092024E+03  0.12500000000E+03 0.  0.
         25    1    1    2    0    0  0.58133230870E+02 -0.57819733808E+02  0.31593614892E+03  0.34951858941E+03  0.12500000000E+03 0.  0.
</event>
<event>
 5    0  0.5576108E-005  0.2460427E+03  0.7546771E-02  0.1115832E+00
         21   -1    0    0  502  501  0.00000000000E+00  0.00000000000E+00  0.13219933252E+04  0.13219933252E+04  0.00000000000E+00 0. -1.
         21   -1    0    0  501  502 -0.00000000000E+00 -0.00000000000E+00 -0.45792231214E+02  0.45792231214E+02  0.00000000000E+00 0. -1.
         25    1    1    2    0    0  0.14854988687E+02  0.46338316434E+00  0.14405866896E+03  0.19130809057E+03  0.12500000000E+03 0.  0.
         25    1    1    2    0    0  0.57850104172E+02 -0.58177943192E+01  0.83116791422E+03  0.84252334266E+03  0.12500000000E+03 0.  0.
         25    1    1    2    0    0 -0.72705092859E+02  0.53544111548E+01  0.30097451081E+03  0.33395412320E+03  0.12500000000E+03 0.  0.
</event>
<event>
 5    0  0.5576108E-005  0.3970553E+03  0.7546771E-02  0.1044804E+00
         21   -1    0    0  502  501  0.00000000000E+00  0.00000000000E+00  0.37509406052E+03  0.37509406052E+03  0.00000000000E+00 0.  1.
         21   -1    0    0  501  502 -0.00000000000E+00 -0.00000000000E+00 -0.42030237905E+03  0.42030237905E+03  0.00000000000E+00 0.  1.
         25    1    1    2    0    0  0.19866370552E+03  0.77935209557E+02 -0.10999071987E+03  0.27067346238E+03  0.12500000000E+03 0.  0.
         25    1    1    2    0    0 -0.28018118943E+03 -0.63813929364E+02 -0.72295069498E+02  0.32159803104E+03  0.12500000000E+03 0.  0.
         25    1    1    2    0    0  0.81517483913E+02 -0.14121280193E+02  0.13707747084E+03  0.20312494615E+03  0.12500000000E+03 0.  0.
</event>
<event>
 5    0  0.5576108E-005  0.3462973E+03  0.7546771E-02  0.1064145E+00
         21   -1    0    0  502  501  0.00000000000E+00  0.00000000000E+00  0.48636211042E+03  0.48636211042E+03  0.00000000000E+00 0.  1.
         21   -1    0    0  501  502 -0.00000000000E+00 -0.00000000000E+00 -0.24656905227E+03  0.24656905227E+03  0.00000000000E+00 0.  1.
         25    1    1    2    0    0 -0.66281571458E+02 -0.52690803645E+02  0.59984279888E+01  0.15109781151E+03  0.12500000000E+03 0.  0.
         25    1    1    2    0    0  0.10359651251E+03 -0.13540032264E+03 -0.49997048757E+02  0.21723303078E+03  0.12500000000E+03 0.  0.
         25    1    1    2    0    0 -0.37314941052E+02  0.18809112629E+03  0.28379167892E+03  0.36460032041E+03  0.12500000000E+03 0.  0.
</event>
<event>
 5    0  0.5576108E-005  0.2554487E+03  0.7546771E-02  0.1109909E+00
         21   -1    0    0  502  501  0.00000000000E+00  0.00000000000E+00  0.27253785032E+03  0.27253785032E+03  0.00000000000E+00 0. -1.
         21   -1    0    0  501  502 -0.00000000000E+00 -0.00000000000E+00 -0.23943111776E+03  0.23943111776E+03  0.00000000000E+00 0. -1.
         25    1    1    2    0    0 -0.43600700987E+02 -0.88522571770E+02  0.82729128792E+02  0.17946134846E+03  0.12500000000E+03 0.  0.
         25    1    1    2    0    0  0.83085649215E+02 -0.53276783460E+01  0.29278613482E+02  0.15301583732E+03  0.12500000000E+03 0.  0.
         25    1    1    2    0    0 -0.39484948227E+02  0.93850250116E+02 -0.78901009717E+02  0.17949178231E+03  0.12500000000E+03 0.  0.
</event>
<event>
 5    0  0.5576108E-005  0.4945618E+03  0.7546771E-02  0.1015208E+00
         21   -1    0    0  502  501  0.00000000000E+00  0.00000000000E+00  0.18797877734E+03  0.18797877734E+03  0.00000000000E+00 0.  1.
         21   -1    0    0  501  502 -0.00000000000E+00 -0.00000000000E+00 -0.13011649513E+04  0.13011649513E+04  0.00000000000E+00 0.  1.
         25    1    1    2    0    0 -0.24455816539E+03 -0.67047190850E+02 -0.40741368314E+03  0.49589810573E+03  0.12500000000E+03 0.  0.
         25    1    1    2    0    0  0.36873255501E+03  0.22996229472E+03 -0.39356689200E+03  0.59947164454E+03  0.12500000000E+03 0.  0.
         25    1    1    2    0    0 -0.12417438962E+03 -0.16291510387E+03 -0.31220559882E+03  0.39377397837E+03  0.12500000000E+03 0.  0.
</event>
<event>
 5    0  0.6251536E-005  0.3498889E+03  0.7546771E-02  0.1062661E+00
         21   -1    0    0  502  501  0.00000000000E+00  0.00000000000E+00  0.77014049713E+03  0.77014049713E+03  0.00000000000E+00 0.  1.
         21   -1    0    0  501  502 -0.00000000000E+00 -0.00000000000E+00 -0.15896090472E+03  0.15896090472E+03  0.00000000000E+00 0.  1.
         25    1    1    2    0    0 -0.13157334061E+03  0.12905812321E+03  0.19495089058E+03  0.29597025672E+03  0.12500000000E+03 0.  0.
         25    1    1    2    0    0  0.17399496752E+03 -0.80955252180E+02  0.43478495469E+03  0.49141729559E+03  0.12500000000E+03 0.  0.
         25    1    1    2    0    0 -0.42421626918E+02 -0.48102871027E+02 -0.18556252863E+02  0.14171384954E+03  0.12500000000E+03 0.  0.
</event>
<event>
 5    0  0.5576108E-005  0.2955948E+03  0.7546771E-02  0.1087464E+00
         21   -1    0    0  502  501  0.00000000000E+00  0.00000000000E+00  0.22427837360E+04  0.22427837360E+04  0.00000000000E+00 0.  1.
         21   -1    0    0  501  502 -0.00000000000E+00 -0.00000000000E+00 -0.38958859326E+02  0.38958859326E+02  0.00000000000E+00 0.  1.
         25    1    1    2    0    0 -0.15702891194E+03  0.72732952461E+02  0.90695565082E+03  0.93174122701E+03  0.12500000000E+03 0.  0.
         25    1    1    2    0    0  0.17413328232E+03  0.21040911918E+02  0.82418977307E+03  0.85186789001E+03  0.12500000000E+03 0.  0.
         25    1    1    2    0    0 -0.17104370382E+02 -0.93773864379E+02  0.47267945275E+03  0.49813347827E+03  0.12500000000E+03 0.  0.
</event>
<event>
 5    0  0.5576108E-005  0.2472110E+03  0.7546771E-02  0.1115080E+00
         21   -1    0    0  502  501  0.00000000000E+00  0.00000000000E+00  0.24189570333E+03  0.24189570333E+03  0.00000000000E+00 0.  1.
         21   -1    0    0  501  502 -0.00000000000E+00 -0.00000000000E+00 -0.25264308936E+03  0.25264308936E+03  0.00000000000E+00 0.  1.
         25    1    1    2    0    0 -0.21775346633E+02  0.15975958379E+02  0.13439612795E+03  0.18551742823E+03  0.12500000000E+03 0.  0.
         25    1    1    2    0    0 -0.21164028869E+02 -0.23683107968E+02 -0.27413751526E+02  0.13185340153E+03  0.12500000000E+03 0.  0.
         25    1    1    2    0    0  0.42939375502E+02  0.77071495887E+01 -0.11772976245E+03  0.17716796293E+03  0.12500000000E+03 0.  0.
</event>
<event>
 5    0  0.5576108E-005  0.2372807E+03  0.7546771E-02  0.1121618E+00
         21   -1    0    0  502  501  0.00000000000E+00  0.00000000000E+00  0.53619939710E+02  0.53619939710E+02  0.00000000000E+00 0. -1.
         21   -1    0    0  501  502 -0.00000000000E+00 -0.00000000000E+00 -0.10500221043E+04  0.10500221043E+04  0.00000000000E+00 0. -1.
         25    1    1    2    0    0 -0.11192554953E+01 -0.33666450351E+02 -0.93635252229E+02  0.15977247282E+03  0.12500000000E+03 0.  0.
         25    1    1    2    0    0 -0.19130297798E-01  0.59859561932E+02 -0.34782848685E+03  0.37442332164E+03  0.12500000000E+03 0.  0.
         25    1    1    2    0    0  0.11383857931E+01 -0.26193111581E+02 -0.55493842547E+03  0.56944624951E+03  0.12500000000E+03 0.  0.
</event>
<event>
 5    0  0.5576108E-005  0.2918611E+03  0.7546771E-02  0.1089381E+00
         21   -1    0    0  502  501  0.00000000000E+00  0.00000000000E+00  0.76391751803E+02  0.76391751803E+02  0.00000000000E+00 0. -1.
         21   -1    0    0  501  502 -0.00000000000E+00 -0.00000000000E+00 -0.11150795482E+04  0.11150795482E+04  0.00000000000E+00 0. -1.
         25    1    1    2    0    0  0.75444569100E+02  0.44041747853E+02 -0.70342402469E+03  0.71976518190E+03  0.12500000000E+03 0.  0.
         25    1    1    2    0    0 -0.82900997950E+02  0.13517048897E+02 -0.56709587001E+02  0.16092315971E+03  0.12500000000E+03 0.  0.
         25    1    1    2    0    0  0.74564288501E+01 -0.57558796751E+02 -0.27855418471E+03  0.31078295840E+03  0.12500000000E+03 0.  0.
</event>
<event>
 5    0  0.5576108E-005  0.2798524E+03  0.7546771E-02  0.1095770E+00
         21   -1    0    0  502  501  0.00000000000E+00  0.00000000000E+00  0.36414441992E+03  0.36414441992E+03  0.00000000000E+00 0.  1.
         21   -1    0    0  501  502 -0.00000000000E+00 -0.00000000000E+00 -0.21507234327E+03  0.21507234327E+03  0.00000000000E+00 0.  1.
         25    1    1    2    0    0  0.99007371735E+02  0.76834005736E+02 -0.95037469907E+02  0.20090556185E+03  0.12500000000E+03 0.  0.
         25    1    1    2    0    0 -0.34466284367E+02 -0.11198885956E+02  0.81815477065E+02  0.15372739539E+03  0.12500000000E+03 0.  0.
         25    1    1    2    0    0 -0.64541087368E+02 -0.65635119781E+02  0.16229406949E+03  0.22458380596E+03  0.12500000000E+03 0.  0.
</event>
<event>
 5    0  0.6646542E-005  0.5298747E+03  0.7546771E-02  0.1006263E+00
         21   -1    0    0  502  501  0.00000000000E+00  0.00000000000E+00  0.29440970425E+03  0.29440970425E+03  0.00000000000E+00 0. -1.
         21   -1    0    0  501  502 -0.00000000000E+00 -0.00000000000E+00 -0.95366166374E+03  0.95366166374E+03  0.00000000000E+00 0. -1.
         25    1    1    2    0    0 -0.17271990515E+03  0.14583116697E+03 -0.31886545930E+03  0.41036456478E+03  0.12500000000E+03 0.  0.
         25    1    1    2    0    0  0.38746588069E+03 -0.51925442264E+02 -0.39149718053E+03  0.56720463910E+03  0.12500000000E+03 0.  0.
         25    1    1    2    0    0 -0.21474597554E+03 -0.93905724705E+02  0.51110680347E+02  0.27050216411E+03  0.12500000000E+03 0.  0.
</event>
<event>
 5    0  0.5576108E-005  0.3053515E+03  0.7546771E-02  0.1082596E+00
         21   -1    0    0  502  501  0.00000000000E+00  0.00000000000E+00  0.26005536420E+03  0.26005536420E+03  0.00000000000E+00 0.  1.
         21   -1    0    0  501  502 -0.00000000000E+00 -0.00000000000E+00 -0.35853734034E+03  0.35853734034E+03  0.00000000000E+00 0.  1.
         25    1    1    2    0    0 -0.33978691741E+02 -0.15899318766E+02 -0.40661622010E+02  0.13669567416E+03  0.12500000000E+03 0.  0.
         25    1    1    2    0    0  0.17845152514E+03 -0.71717765161E+02  0.65073715981E+02  0.23842813000E+03  0.12500000000E+03 0.  0.
         25    1    1    2    0    0 -0.14447283340E+03  0.87617083928E+02 -0.12289407011E+03  0.24346890038E+03  0.12500000000E+03 0.  0.
</event>
<event>
 5    0  0.5576108E-005  0.2987034E+03  0.7546771E-02  0.1085891E+00
         21   -1    0    0  502  501  0.00000000000E+00  0.00000000000E+00  0.14509733732E+04  0.14509733732E+04  0.00000000000E+00 0. -1.
         21   -1    0    0  501  502 -0.00000000000E+00 -0.00000000000E+00 -0.61492328636E+02  0.61492328636E+02  0.00000000000E+00 0. -1.
         25    1    1    2    0    0 -0.15269609632E+03  0.93357898233E+01  0.66822291443E+03  0.69681426376E+03  0.12500000000E+03 0.  0.
         25    1    1    2    0    0  0.12604888300E+03 -0.31082486954E+02  0.63463942757E+03  0.65973225246E+03  0.12500000000E+03 0.  0.
         25    1    1    2    0    0  0.26647213321E+02  0.21746697131E+02  0.86618702575E+02  0.15591918564E+03  0.12500000000E+03 0.  0.
</event>
<event>
 5    0  0.5576108E-005  0.3003476E+03  0.7546771E-02  0.1085067E+00
         21   -1    0    0  502  501  0.00000000000E+00  0.00000000000E+00  0.48280219921E+03  0.48280219921E+03  0.00000000000E+00 0.  1.
         21   -1    0    0  501  502 -0.00000000000E+00 -0.00000000000E+00 -0.18684400181E+03  0.18684400181E+03  0.00000000000E+00 0.  1.
         25    1    1    2    0    0  0.41661439901E+02  0.50090948937E+02  0.27298648439E+03  0.30723183331E+03  0.12500000000E+03 0.  0.
         25    1    1    2    0    0 -0.21276188679E+02  0.10122318757E+03 -0.91020591854E+01  0.16250125350E+03  0.12500000000E+03 0.  0.
         25    1    1    2    0    0 -0.20385251221E+02 -0.15131413650E+03  0.32073772190E+02  0.19991311422E+03  0.12500000000E+03 0.  0.
</event>
<event>
 5    0  0.5576108E-005  0.3303149E+03  0.7546771E-02  0.1070998E+00
         21   -1    0    0  502  501  0.00000000000E+00  0.00000000000E+00  0.53373382148E+02  0.53373382148E+02  0.00000000000E+00 0. -1.
         21   -1    0    0  501  502 -0.00000000000E+00 -0.00000000000E+00 -0.20442382080E+04  0.20442382080E+04  0.00000000000E+00 0. -1.
         25    1    1    2    0    0  0.14169351544E+03  0.13503699320E+03 -0.60610758593E+03  0.64907892245E+03  0.12500000000E+03 0.  0.
         25    1    1    2    0    0 -0.46565533871E+02 -0.16301885078E+03 -0.41143847302E+03  0.46222301083E+03  0.12500000000E+03 0.  0.
         25    1    1    2    0    0 -0.95127981568E+02  0.27981857586E+02 -0.97331876691E+03  0.98630965688E+03  0.12500000000E+03 0.  0.
</event>
<event>
 5    0  0.5576108E-005  0.2519016E+03  0.7546771E-02  0.1112109E+00
         21   -1    0    0  502  501  0.00000000000E+00  0.00000000000E+00  0.17854044204E+03  0.17854044204E+03  0.00000000000E+00 0. -1.
         21   -1    0    0  501  502 -0.00000000000E+00 -0.00000000000E+00 -0.35540636330E+03  0.35540636330E+03  0.00000000000E+00 0. -1.
         25    1    1    2    0    0  0.78034056962E+02  0.38913437527E+02 -0.33700344607E+02  0.15609062397E+03  0.12500000000E+03 0.  0.
         25    1    1    2    0    0 -0.49083817803E+02 -0.13379908626E+03 -0.88101129235E+02  0.20904120557E+03  0.12500000000E+03 0.  0.
         25    1    1    2    0    0 -0.28950239160E+02  0.94885648735E+02 -0.55064447423E+02  0.16881497580E+03  0.12500000000E+03 0.  0.
</event>
<event>
 5    0  0.5576108E-005  0.3139533E+03  0.7546771E-02  0.1078466E+00
         21   -1    0    0  502  501  0.00000000000E+00  0.00000000000E+00  0.12227432091E+04  0.12227432091E+04  0.00000000000E+00 0. -1.
         21   -1    0    0  501  502 -0.00000000000E+00 -0.00000000000E+00 -0.80611116382E+02  0.80611116382E+02  0.00000000000E+00 0. -1.
         25    1    1    2    0    0  0.62605590402E+01 -0.68085038105E+02  0.17955997060E+03  0.22921943647E+03  0.12500000000E+03 0.  0.
         25    1    1    2    0    0 -0.19316152602E+03 -0.25329867040E+02  0.51484748296E+03  0.56448729658E+03  0.12500000000E+03 0.  0.
         25    1    1    2    0    0  0.18690096698E+03  0.93414905144E+02  0.44772463918E+03  0.50964759245E+03  0.12500000000E+03 0.  0.
</event>
<event>
 5    0  0.5576108E-005  0.2511626E+03  0.7546771E-02  0.1112572E+00
         21   -1    0    0  502  501  0.00000000000E+00  0.00000000000E+00  0.30487987261E+03  0.30487987261E+03  0.00000000000E+00 0. -1.
         21   -1    0    0  501  502 -0.00000000000E+00 -0.00000000000E+00 -0.20690989534E+03  0.20690989534E+03  0.00000000000E+00 0. -1.
         25    1    1    2    0    0  0.32164312159E+02  0.10340036711E+03  0.19458758761E+02  0.16652273775E+03  0.12500000000E+03 0.  0.
         25    1    1    2    0    0  0.16821298299E+02 -0.14574177687E+03  0.66877929615E+02  0.20401293849E+03  0.12500000000E+03 0.  0.
         25    1    1    2    0    0 -0.48985610458E+02  0.42341409766E+02  0.11633288894E+02  0.14125409171E+03  0.12500000000E+03 0.  0.
</event>
<event>
 5    0  0.5576108E-005  0.3464618E+03  0.7546771E-02  0.1064077E+00
         21   -1    0    0  502  501  0.00000000000E+00  0.00000000000E+00  0.23155856670E+03  0.23155856670E+03  0.00000000000E+00 0. -1.
         21   -1    0    0  501  502 -0.00000000000E+00 -0.00000000000E+00 -0.51838197998E+03  0.51838197998E+03  0.00000000000E+00 0. -1.
         25    1    1    2    0    0  0.83616439556E+02 -0.11420116056E+03 -0.29231873809E+03  0.34800698079E+03  0.12500000000E+03 0.  0.
         25    1    1    2    0    0  0.61684935704E+02 -0.24185707609E+02 -0.64353838527E+02  0.15542328101E+03  0.12500000000E+03 0.  0.
         25    1    1    2    0    0 -0.14530137526E+03  0.13838686817E+03  0.69849163340E+02  0.24651028488E+03  0.12500000000E+03 0.  0.
</event>
<event>
 5    0  0.5576108E-005  0.2435759E+03  0.7546771E-02  0.1117433E+00
         21   -1    0    0  502  501  0.00000000000E+00  0.00000000000E+00  0.12569143356E+04  0.12569143356E+04  0.00000000000E+00 0.  1.
         21   -1    0    0  501  502 -0.00000000000E+00 -0.00000000000E+00 -0.47202292374E+02  0.47202292374E+02  0.00000000000E+00 0.  1.
         25    1    1    2    0    0 -0.71812237011E+02  0.22562138081E+02  0.16331407105E+03  0.21900350057E+03  0.12500000000E+03 0.  0.
         25    1    1    2    0    0 -0.11670068622E+02 -0.55625447258E+01  0.33464626570E+03  0.35746364228E+03  0.12500000000E+03 0.  0.
         25    1    1    2    0    0  0.83482305633E+02 -0.16999593355E+02  0.71175170647E+03  0.72764948512E+03  0.12500000000E+03 0.  0.
</event>
<event>
 5    0  0.5576108E-005  0.3061300E+03  0.7546771E-02  0.1082216E+00
         21   -1    0    0  502  501  0.00000000000E+00  0.00000000000E+00  0.10620024692E+04  0.10620024692E+04  0.00000000000E+00 0.  1.
         21   -1    0    0  501  502 -0.00000000000E+00 -0.00000000000E+00 -0.88244241689E+02  0.88244241689E+02  0.00000000000E+00 0.  1.
         25    1    1    2    0    0  0.87436957485E+02  0.13992356762E+03  0.24596788403E+03  0.32147943369E+03  0.12500000000E+03 0.  0.
         25    1    1    2    0    0 -0.26885372759E+02  0.68613019606E+02  0.24205947207E+03  0.28222040632E+03  0.12500000000E+03 0.  0.
         25    1    1    2    0    0 -0.60551584726E+02 -0.20853658723E+03  0.48573087144E+03  0.54654687090E+03  0.12500000000E+03 0.  0.
</event>
<event>
 5    0  0.5576108E-005  0.3936020E+03  0.7546771E-02  0.1046018E+00
         21   -1    0    0  502  501  0.00000000000E+00  0.00000000000E+00  0.23198024649E+04  0.23198024649E+04  0.00000000000E+00 0.  1.
         21   -1    0    0  501  502 -0.00000000000E+00 -0.00000000000E+00 -0.66782642554E+02  0.66782642554E+02  0.00000000000E+00 0.  1.
         25    1    1    2    0    0  0.83953672469E+02  0.73047875807E+02  0.88913858093E+03  0.90475224641E+03  0.12500000000E+03 0.  0.
         25    1    1    2    0    0 -0.73121111353E+02 -0.21761588679E+03  0.28751767289E+03  0.38858047215E+03  0.12500000000E+03 0.  0.
         25    1    1    2    0    0 -0.10832561116E+02  0.14456801099E+03  0.10763635685E+04  0.10932523889E+04  0.12500000000E+03 0.  0.
</event>
<event>
 5    0  0.5576108E-005  0.3481785E+03  0.7546771E-02  0.1063365E+00
         21   -1    0    0  502  501  0.00000000000E+00  0.00000000000E+00  0.12658027151E+03  0.12658027151E+03  0.00000000000E+00 0.  1.
         21   -1    0    0  501  502 -0.00000000000E+00 -0.00000000000E+00 -0.95771853997E+03  0.95771853997E+03  0.00000000000E+00 0.  1.
         25    1    1    2    0    0  0.21566469668E+03  0.95700323208E+02 -0.20293797898E+03  0.33537834839E+03  0.12500000000E+03 0.  0.
         25    1    1    2    0    0 -0.19534772233E+03 -0.90649273540E+02 -0.53959737067E+03  0.59427968655E+03  0.12500000000E+03 0.  0.
         25    1    1    2    0    0 -0.20316974355E+02 -0.50510496676E+01 -0.88602918804E+02  0.15464077654E+03  0.12500000000E+03 0.  0.
</event>
<event>
 5    0  0.5576108E-005  0.3173268E+03  0.7546771E-02  0.1076886E+00
         21   -1    0    0  502  501  0.00000000000E+00  0.00000000000E+00  0.12416858139E+04  0.12416858139E+04  0.00000000000E+00 0. -1.
         21   -1    0    0  501  502 -0.00000000000E+00 -0.00000000000E+00 -0.81096455708E+02  0.81096455708E+02  0.00000000000E+00 0. -1.
         25    1    1    2    0    0  0.34610532588E+02  0.18644376156E+03  0.34915671600E+03  0.41652680288E+03  0.12500000000E+03 0.  0.
         25    1    1    2    0    0  0.55883110678E+02 -0.19964792252E+03  0.41221874830E+03  0.47804969562E+03  0.12500000000E+03 0.  0.
         25    1    1    2    0    0 -0.90493643266E+02  0.13204160960E+02  0.39921389389E+03  0.42820577111E+03  0.12500000000E+03 0.  0.
</event>
<event>
 5    0  0.5576108E-005  0.5287243E+03  0.7546771E-02  0.1006542E+00
         21   -1    0    0  502  501  0.00000000000E+00  0.00000000000E+00  0.32206989892E+03  0.32206989892E+03  0.00000000000E+00 0.  1.
         21   -1    0    0  501  502 -0.00000000000E+00 -0.00000000000E+00 -0.86797753496E+03  0.86797753496E+03  0.00000000000E+00 0.  1.
         25    1    1    2    0    0  0.32328388480E+01 -0.18308587082E+03 -0.26557325629E+03  0.34595525982E+03  0.12500000000E+03 0.  0.
         25    1    1    2    0    0  0.28814502396E+02  0.29172608620E+03  0.17142666497E+03  0.36186528762E+03  0.12500000000E+03 0.  0.
         25    1    1    2    0    0 -0.32047341244E+02 -0.10864021538E+03 -0.45176104473E+03  0.48222688644E+03  0.12500000000E+03 0.  0.
</event>
<event>
 5    0  0.5576108E-005  0.3685210E+03  0.7546771E-02  0.1055260E+00
         21   -1    0    0  502  501  0.00000000000E+00  0.00000000000E+00  0.65839086462E+03  0.65839086462E+03  0.00000000000E+00 0. -1.
         21   -1    0    0  501  502 -0.00000000000E+00 -0.00000000000E+00 -0.20627218461E+03  0.20627218461E+03  0.00000000000E+00 0. -1.
         25    1    1    2    0    0 -0.25090121390E+02  0.27149793420E+03  0.29363115950E+03  0.41974385082E+03  0.12500000000E+03 0.  0.
         25    1    1    2    0    0  0.69857178859E+02 -0.22206486146E+03  0.56109893720E+02  0.27012246908E+03  0.12500000000E+03 0.  0.
         25    1    1    2    0    0 -0.44767057468E+02 -0.49433072748E+02  0.10237762680E+03  0.17479672933E+03  0.12500000000E+03 0.  0.
</event>
<event>
 5    0  0.5576108E-005  0.3428346E+03  0.7546771E-02  0.1065595E+00
         21   -1    0    0  502  501  0.00000000000E+00  0.00000000000E+00  0.11677974854E+03  0.11677974854E+03  0.00000000000E+00 0.  1.
         21   -1    0    0  501  502 -0.00000000000E+00 -0.00000000000E+00 -0.10064722126E+04  0.10064722126E+04  0.00000000000E+00 0.  1.
         25    1    1    2    0    0  0.10909008448E+03 -0.16644318054E+03 -0.21696583627E+03  0.31984864075E+03  0.12500000000E+03 0.  0.
         25    1    1    2    0    0 -0.18167127839E+03  0.12878812490E+03 -0.56253572524E+03  0.61778821345E+03  0.12500000000E+03 0.  0.
         25    1    1    2    0    0  0.72581193913E+02  0.37655055645E+02 -0.11019090257E+03  0.18561510697E+03  0.12500000000E+03 0.  0.
</event>
<event>
 5    0  0.5576108E-005  0.3464468E+03  0.7546771E-02  0.1064083E+00
         21   -1    0    0  502  501  0.00000000000E+00  0.00000000000E+00  0.10114762310E+04  0.10114762310E+04  0.00000000000E+00 0. -1.
         21   -1    0    0  501  502 -0.00000000000E+00 -0.00000000000E+00 -0.11866360385E+03  0.11866360385E+03  0.00000000000E+00 0. -1.
         25    1    1    2    0    0  0.32636993569E+02  0.10243838595E+03  0.39373545174E+03  0.42686227548E+03  0.12500000000E+03 0.  0.
         25    1    1    2    0    0 -0.76612497776E+02 -0.69242980382E+02 -0.22875703003E+02  0.16374481041E+03  0.12500000000E+03 0.  0.
         25    1    1    2    0    0  0.43975504206E+02 -0.33195405564E+02  0.52195287838E+03  0.53953274893E+03  0.12500000000E+03 0.  0.
</event>
<event>
 5    0  0.5576108E-005  0.3045346E+03  0.7546771E-02  0.1082996E+00
         21   -1    0    0  502  501  0.00000000000E+00  0.00000000000E+00  0.26855866158E+03  0.26855866158E+03  0.00000000000E+00 0. -1.
         21   -1    0    0  501  502 -0.00000000000E+00 -0.00000000000E+00 -0.34532983051E+03  0.34532983051E+03  0.00000000000E+00 0. -1.
         25    1    1    2    0    0 -0.13613231978E+03 -0.81678719825E+02  0.21994094573E+02  0.20325393467E+03  0.12500000000E+03 0.  0.
         25    1    1    2    0    0 -0.29373769006E+02 -0.42622226119E+02  0.27182597608E+02  0.13799770316E+03  0.12500000000E+03 0.  0.
         25    1    1    2    0    0  0.16550608879E+03  0.12430094594E+03 -0.12594786111E+03  0.27263685427E+03  0.12500000000E+03 0.  0.
</event>
<event>
 5    0  0.5576108E-005  0.3914326E+03  0.7546771E-02  0.1046787E+00
         21   -1    0    0  502  501  0.00000000000E+00  0.00000000000E+00  0.18661944447E+04  0.18661944447E+04  0.00000000000E+00 0.  1.
         21   -1    0    0  501  502 -0.00000000000E+00 -0.00000000000E+00 -0.82102646418E+02  0.82102646418E+02  0.00000000000E+00 0.  1.
         25    1    1    2    0    0 -0.83681691104E+02 -0.21642512202E+03  0.22885328829E+03  0.34905771218E+03  0.12500000000E+03 0.  0.
         25    1    1    2    0    0  0.10151281134E+03  0.12869780552E+03  0.10879548499E+04  0.11073114880E+04  0.12500000000E+03 0.  0.
         25    1    1    2    0    0 -0.17831120237E+02  0.87727316508E+02  0.46728366012E+03  0.49192789098E+03  0.12500000000E+03 0.  0.
</event>
<event>
 5    0  0.5576108E-005  0.2764237E+03  0.7546771E-02  0.1097658E+00
         21   -1    0    0  502  501  0.00000000000E+00  0.00000000000E+00  0.18476272858E+03  0.18476272858E+03  0.00000000000E+00 0.  1.
         21   -1    0    0  501  502 -0.00000000000E+00 -0.00000000000E+00 -0.41355777128E+03  0.41355777128E+03  0.00000000000E+00 0.  1.
         25    1    1    2    0    0 -0.95296538746E+01  0.16518612034E+03 -0.32397766109E+02  0.20988540661E+03  0.12500000000E+03 0.  0.
         25    1    1    2    0    0 -0.14676412727E+02 -0.58836474065E+02 -0.10574207749E+02  0.13933392136E+03  0.12500000000E+03 0.  0.
         25    1    1    2    0    0  0.24206066602E+02 -0.10634964628E+03 -0.18582306885E+03  0.24910117190E+03  0.12500000000E+03 0.  0.
</event>
<event>
 5    0  0.5576108E-005  0.4445366E+03  0.7546771E-02  0.1029364E+00
         21   -1    0    0  502  501  0.00000000000E+00  0.00000000000E+00  0.12744366754E+03  0.12744366754E+03  0.00000000000E+00 0.  1.
         21   -1    0    0  501  502 -0.00000000000E+00 -0.00000000000E+00 -0.15505893587E+04  0.15505893587E+04  0.00000000000E+00 0.  1.
         25    1    1    2    0    0  0.62159579371E+02 -0.21347138856E+03 -0.12011434765E+04  0.12279269108E+04  0.12500000000E+03 0.  0.
         25    1    1    2    0    0  0.17750929031E+02  0.19718017971E+03 -0.17918371529E+03  0.29483372021E+03  0.12500000000E+03 0.  0.
         25    1    1    2    0    0 -0.79910508402E+02  0.16291208850E+02 -0.42818499349E+02  0.15527239525E+03  0.12500000000E+03 0.  0.
</event>
<event>
 5    0  0.5576108E-005  0.2774198E+03  0.7546771E-02  0.1097107E+00
         21   -1    0    0  502  501  0.00000000000E+00  0.00000000000E+00  0.80191667392E+03  0.80191667392E+03  0.00000000000E+00 0.  1.
         21   -1    0    0  501  502 -0.00000000000E+00 -0.00000000000E+00 -0.95972227595E+02  0.95972227595E+02  0.00000000000E+00 0.  1.
         25    1    1    2    0    0  0.11003876937E+03  0.44419437315E+02  0.18627105190E+03  0.25377848993E+03  0.12500000000E+03 0.  0.
         25    1    1    2    0    0  0.30576589441E+02 -0.29168871588E+02  0.39856582267E+03  0.41983980980E+03  0.12500000000E+03 0.  0.
         25    1    1    2    0    0 -0.14061535881E+03 -0.15250565727E+02  0.12110757175E+03  0.22427060178E+03  0.12500000000E+03 0.  0.
</event>
<event>
 5    0  0.5576108E-005  0.6538403E+03  0.7546771E-02  0.9799600E-01
         21   -1    0    0  502  501  0.00000000000E+00  0.00000000000E+00  0.14704660411E+04  0.14704660411E+04  0.00000000000E+00 0. -1.
         21   -1    0    0  501  502 -0.00000000000E+00 -0.00000000000E+00 -0.29072897561E+03  0.29072897561E+03  0.00000000000E+00 0. -1.
         25    1    1    2    0    0 -0.60572671277E+03  0.12779284751E+03  0.61944837743E+03  0.88463391001E+03  0.12500000000E+03 0.  0.
         25    1    1    2    0    0  0.25192153479E+03 -0.50880875772E+02  0.18584440513E+03  0.34090536242E+03  0.12500000000E+03 0.  0.
         25    1    1    2    0    0  0.35380517799E+03 -0.76911971741E+02  0.37444428295E+03  0.53565574430E+03  0.12500000000E+03 0.  0.
</event>
<event>
 5    0  0.5576108E-005  0.2176322E+03  0.7546771E-02  0.1135661E+00
         21   -1    0    0  502  501  0.00000000000E+00  0.00000000000E+00  0.48655349269E+03  0.48655349269E+03  0.00000000000E+00 0.  1.
         21   -1    0    0  501  502 -0.00000000000E+00 -0.00000000000E+00 -0.97345501072E+02  0.97345501072E+02  0.00000000000E+00 0.  1.
         25    1    1    2    0    0  0.26151622768E+02  0.41641289015E+02  0.11367750940E+03  0.17597011243E+03  0.12500000000E+03 0.  0.
         25    1    1    2    0    0  0.45876238033E+02  0.28501030372E+02  0.16079110978E+03  0.21070291629E+03  0.12500000000E+03 0.  0.
         25    1    1    2    0    0 -0.72027860801E+02 -0.70142319387E+02  0.11473937244E+03  0.19722596504E+03  0.12500000000E+03 0.  0.
</event>
<event>
 5    0  0.5576108E-005  0.2765890E+03  0.7546771E-02  0.1097567E+00
         21   -1    0    0  502  501  0.00000000000E+00  0.00000000000E+00  0.44173576545E+03  0.44173576545E+03  0.00000000000E+00 0. -1.
         21   -1    0    0  501  502 -0.00000000000E+00 -0.00000000000E+00 -0.17318373955E+03  0.17318373955E+03  0.00000000000E+00 0. -1.
         25    1    1    2    0    0 -0.12292109080E+03 -0.12903679485E+03  0.12633033877E+03  0.25168322050E+03  0.12500000000E+03 0.  0.
         25    1    1    2    0    0  0.13205102688E+03  0.88080575586E+02  0.94029511560E+02  0.22285019753E+03  0.12500000000E+03 0.  0.
         25    1    1    2    0    0 -0.91299360782E+01  0.40956219268E+02  0.48192175569E+02  0.14038608697E+03  0.12500000000E+03 0.  0.
</event>
<event>
 5    0  0.5576108E-005  0.2245131E+03  0.7546771E-02  0.1130562E+00
         21   -1    0    0  502  501  0.00000000000E+00  0.00000000000E+00  0.19617980985E+03  0.19617980985E+03  0.00000000000E+00 0.  1.
         21   -1    0    0  501  502 -0.00000000000E+00 -0.00000000000E+00 -0.25693849313E+03  0.25693849313E+03  0.00000000000E+00 0.  1.
         25    1    1    2    0    0 -0.84490927656E+02 -0.10410792233E+01 -0.39800928704E+02  0.15604138755E+03  0.12500000000E+03 0.  0.
         25    1    1    2    0    0  0.69138572490E+02  0.62825357096E+02 -0.12031683068E+02  0.15651494848E+03  0.12500000000E+03 0.  0.
         25    1    1    2    0    0  0.15352355166E+02 -0.61784277873E+02 -0.89260715001E+01  0.14056196695E+03  0.12500000000E+03 0.  0.
</event>
<event>
 5    0  0.5576108E-005  0.2793073E+03  0.7546771E-02  0.1096068E+00
         21   -1    0    0  502  501  0.00000000000E+00  0.00000000000E+00  0.97606472284E+03  0.97606472284E+03  0.00000000000E+00 0.  1.
         21   -1    0    0  501  502 -0.00000000000E+00 -0.00000000000E+00 -0.79925616786E+02  0.79925616786E+02  0.00000000000E+00 0.  1.
         25    1    1    2    0    0  0.64833819115E+02 -0.71108069978E+02  0.83428148176E+02  0.17845177955E+03  0.12500000000E+03 0.  0.
         25    1    1    2    0    0 -0.53254415237E+02  0.10132045719E+03  0.26312182023E+03  0.31298555888E+03  0.12500000000E+03 0.  0.
         25    1    1    2    0    0 -0.11579403878E+02 -0.30212387211E+02  0.54958913765E+03  0.56455300119E+03  0.12500000000E+03 0.  0.
</event>
<event>
 5    0  0.5576108E-005  0.4623172E+03  0.7546771E-02  0.1024111E+00
         21   -1    0    0  502  501  0.00000000000E+00  0.00000000000E+00  0.24736381058E+03  0.24736381058E+03  0.00000000000E+00 0. -1.
         21   -1    0    0  501  502 -0.00000000000E+00 -0.00000000000E+00 -0.86406020081E+03  0.86406020081E+03  0.00000000000E+00 0. -1.
         25    1    1    2    0    0 -0.59141124903E+02 -0.22245992120E+03 -0.24852217968E+03  0.36107390239E+03  0.12500000000E+03 0.  0.
         25    1    1    2    0    0  0.23720218891E+03  0.17548096980E+03 -0.36646716835E+00  0.32044279285E+03  0.12500000000E+03 0.  0.
         25    1    1    2    0    0 -0.17806106401E+03  0.46978951397E+02 -0.36780774337E+03  0.42990731615E+03  0.12500000000E+03 0.  0.
</event>
<event>
 5    0  0.5576108E-005  0.3459803E+03  0.7546771E-02  0.1064277E+00
         21   -1    0    0  502  501  0.00000000000E+00  0.00000000000E+00  0.45057713474E+03  0.45057713474E+03  0.00000000000E+00 0.  1.
         21   -1    0    0  501  502 -0.00000000000E+00 -0.00000000000E+00 -0.26566459461E+03  0.26566459461E+03  0.00000000000E+00 0.  1.
         25    1    1    2    0    0 -0.60425672403E+02 -0.66002509091E+02 -0.43031936982E+02  0.15963815550E+03  0.12500000000E+03 0.  0.
         25    1    1    2    0    0  0.22871120590E+03  0.67839304429E+02  0.21839855436E+03  0.34674762505E+03  0.12500000000E+03 0.  0.
         25    1    1    2    0    0 -0.16828553350E+03 -0.18367953379E+01  0.95459227413E+01  0.20985594879E+03  0.12500000000E+03 0.  0.
</event>
<event>
 5    0  0.5576108E-005  0.2621051E+03  0.7546771E-02  0.1105885E+00
         21   -1    0    0  502  501  0.00000000000E+00  0.00000000000E+00  0.20543670710E+03  0.20543670710E+03  0.00000000000E+00 0. -1.
         21   -1    0    0  501  502 -0.00000000000E+00 -0.00000000000E+00 -0.33440513813E+03  0.33440513813E+03  0.00000000000E+00 0. -1.
         25    1    1    2    0    0 -0.68047708820E+02  0.12449596781E+03 -0.86434736719E+02  0.20790791324E+03  0.12500000000E+03 0.  0.
         25    1    1    2    0    0  0.13443966082E+02  0.13097681145E+02  0.20789761671E+02  0.12809958496E+03  0.12500000000E+03 0.  0.
         25    1    1    2    0    0  0.54603742738E+02 -0.13759364896E+03 -0.63323455984E+02  0.20383434704E+03  0.12500000000E+03 0.  0.
</event>
<event>
 5    0  0.5576108E-005  0.4085367E+03  0.7546771E-02  0.1040863E+00
         21   -1    0    0  502  501  0.00000000000E+00  0.00000000000E+00  0.51125205319E+03  0.51125205319E+03  0.00000000000E+00 0.  1.
         21   -1    0    0  501  502 -0.00000000000E+00 -0.00000000000E+00 -0.32645779171E+03  0.32645779171E+03  0.00000000000E+00 0. -1.
         25    1    1    2    0    0  0.17716530948E+03  0.16161438542E+03  0.34698427170E+03  0.43992026694E+03  0.12500000000E+03 0.  0.
         25    1    1    2    0    0 -0.11776866820E+03 -0.11267855576E+03 -0.45784253163E+02  0.21044503790E+03  0.12500000000E+03 0.  0.
         25    1    1    2    0    0 -0.59396641280E+02 -0.48935829661E+02 -0.11640575704E+03  0.18734454007E+03  0.12500000000E+03 0.  0.
</event>
<event>
 5    0  0.5576108E-005  0.8318360E+03  0.7546771E-02  0.9515046E-01
         21   -1    0    0  502  501  0.00000000000E+00  0.00000000000E+00  0.73615062445E+03  0.73615062445E+03  0.00000000000E+00 0. -1.
         21   -1    0    0  501  502 -0.00000000000E+00 -0.00000000000E+00 -0.93995873723E+03  0.93995873723E+03  0.00000000000E+00 0. -1.
         25    1    1    2    0    0 -0.10815155630E+03  0.69327759575E+01  0.18414156570E+03  0.24754381174E+03  0.12500000000E+03 0.  0.
         25    1    1    2    0    0  0.54726250098E+03  0.57353925801E+02 -0.67935303352E+03  0.88313717051E+03  0.12500000000E+03 0.  0.
         25    1    1    2    0    0 -0.43911094468E+03 -0.64286701759E+02  0.29140335504E+03  0.54542837943E+03  0.12500000000E+03 0.  0.
</event>
<event>
 5    0  0.5576108E-005  0.5057880E+03  0.7546771E-02  0.1012279E+00
         21   -1    0    0  502  501  0.00000000000E+00  0.00000000000E+00  0.13336118616E+03  0.13336118616E+03  0.00000000000E+00 0.  1.
         21   -1    0    0  501  502 -0.00000000000E+00 -0.00000000000E+00 -0.19182605674E+04  0.19182605674E+04  0.00000000000E+00 0. -1.
         25    1    1    2    0    0 -0.12192066883E+02 -0.25723667594E+03 -0.12273644194E+04  0.12603046345E+04  0.12500000000E+03 0.  0.
         25    1    1    2    0    0  0.53958293703E+02 -0.94326403437E+02 -0.27657170752E+03  0.32237536699E+03  0.12500000000E+03 0.  0.
         25    1    1    2    0    0 -0.41766226820E+02  0.35156307938E+03 -0.28096325436E+03  0.46894175202E+03  0.12500000000E+03 0.  0.
</event>
<event>
 5    0  0.5576108E-005  0.2888735E+03  0.7546771E-02  0.1090939E+00
         21   -1    0    0  502  501  0.00000000000E+00  0.00000000000E+00  0.24026033965E+04  0.24026033965E+04  0.00000000000E+00 0. -1.
         21   -1    0    0  501  502 -0.00000000000E+00 -0.00000000000E+00 -0.34732290917E+02  0.34732290917E+02  0.00000000000E+00 0. -1.
         25    1    1    2    0    0 -0.11599102743E+02  0.51950391784E+02  0.12468057470E+04  0.12541861717E+04  0.12500000000E+03 0.  0.
         25    1    1    2    0    0  0.66760965003E+02 -0.79883448602E+02  0.23281261049E+03  0.28401602668E+03  0.12500000000E+03 0.  0.
         25    1    1    2    0    0 -0.55161862260E+02  0.27933056818E+02  0.88825274809E+03  0.89913348909E+03  0.12500000000E+03 0.  0.
</event>
<event>
 5    0  0.5576108E-005  0.2409536E+03  0.7546771E-02  0.1119159E+00
         21   -1    0    0  502  501  0.00000000000E+00  0.00000000000E+00  0.42585605073E+03  0.42585605073E+03  0.00000000000E+00 0.  1.
         21   -1    0    0  501  502 -0.00000000000E+00 -0.00000000000E+00 -0.13633397001E+03  0.13633397001E+03  0.00000000000E+00 0.  1.
         25    1    1    2    0    0 -0.12915588353E+03  0.96867285586E+01  0.10481903761E+03  0.20829571673E+03  0.12500000000E+03 0.  0.
         25    1    1    2    0    0  0.13998907048E+02  0.97429981227E+01  0.48242163252E+02  0.13506739698E+03  0.12500000000E+03 0.  0.
         25    1    1    2    0    0  0.11515697649E+03 -0.19429726681E+02  0.13646087985E+03  0.21882690704E+03  0.12500000000E+03 0.  0.
</event>
<event>
 5    0  0.5576108E-005  0.3618631E+03  0.7546771E-02  0.1057849E+00
         21   -1    0    0  502  501  0.00000000000E+00  0.00000000000E+00  0.30770990403E+03  0.30770990403E+03  0.00000000000E+00 0.  1.
         21   -1    0    0  501  502 -0.00000000000E+00 -0.00000000000E+00 -0.42554658903E+03  0.42554658903E+03  0.00000000000E+00 0.  1.
         25    1    1    2    0    0 -0.17735195529E+03 -0.66776073028E+02  0.10864824523E+03  0.25167876583E+03  0.12500000000E+03 0.  0.
         25    1    1    2    0    0 -0.28658112028E+01 -0.58246430135E+02  0.64389847599E+01  0.13808446698E+03  0.12500000000E+03 0.  0.
         25    1    1    2    0    0  0.18021776649E+03  0.12502250316E+03 -0.23292391499E+03  0.34349326024E+03  0.12500000000E+03 0.  0.
</event>
<event>
 5    0  0.5576108E-005  0.2886468E+03  0.7546771E-02  0.1091058E+00
         21   -1    0    0  502  501  0.00000000000E+00  0.00000000000E+00  0.67501510855E+03  0.67501510855E+03  0.00000000000E+00 0. -1.
         21   -1    0    0  501  502 -0.00000000000E+00 -0.00000000000E+00 -0.12342980618E+03  0.12342980618E+03  0.00000000000E+00 0. -1.
         25    1    1    2    0    0 -0.13607454525E+03 -0.44750396200E+02  0.30383234650E+03  0.35841034388E+03  0.12500000000E+03 0.  0.
         25    1    1    2    0    0  0.11926150139E+03 -0.54521711441E+02  0.20570985371E+03  0.27411214247E+03  0.12500000000E+03 0.  0.
         25    1    1    2    0    0  0.16813043854E+02  0.99272107642E+02  0.42043102158E+02  0.16592242838E+03  0.12500000000E+03 0.  0.
</event>
<event>
 5    0  0.5576108E-005  0.5079594E+03  0.7546771E-02  0.1011722E+00
         21   -1    0    0  502  501  0.00000000000E+00  0.00000000000E+00  0.14425457331E+03  0.14425457331E+03  0.00000000000E+00 0. -1.
         21   -1    0    0  501  502 -0.00000000000E+00 -0.00000000000E+00 -0.17886622565E+04  0.17886622565E+04  0.00000000000E+00 0. -1.
         25    1    1    2    0    0 -0.16167039909E+03  0.45472528137E+02 -0.60379506970E+02  0.21788931506E+03  0.12500000000E+03 0.  0.
         25    1    1    2    0    0  0.23851194071E+03  0.11260631225E+03 -0.32158392778E+03  0.43429177983E+03  0.12500000000E+03 0.  0.
         25    1    1    2    0    0 -0.76841541624E+02 -0.15807884039E+03 -0.12624442484E+04  0.12807357349E+04  0.12500000000E+03 0.  0.
</event>
<event>
 5    0  0.6381064E-005  0.2839128E+03  0.7546771E-02  0.1093571E+00
         21   -1    0    0  502  501  0.00000000000E+00  0.00000000000E+00  0.48481831540E+03  0.48481831540E+03  0.00000000000E+00 0. -1.
         21   -1    0    0  501  502 -0.00000000000E+00 -0.00000000000E+00 -0.16626116324E+03  0.16626116324E+03  0.00000000000E+00 0. -1.
         25    1    1    2    0    0 -0.23089085373E+02  0.11856534871E+03 -0.35831446588E+02  0.17748166199E+03  0.12500000000E+03 0.  0.
         25    1    1    2    0    0  0.72249436913E+02 -0.19340539023E+02  0.18834967350E+03  0.23810635668E+03  0.12500000000E+03 0.  0.
         25    1    1    2    0    0 -0.49160351540E+02 -0.99224809689E+02  0.16603892525E+03  0.23549145997E+03  0.12500000000E+03 0.  0.
</event>
<event>
 5    0  0.5576108E-005  0.2853115E+03  0.7546771E-02  0.1092823E+00
         21   -1    0    0  502  501  0.00000000000E+00  0.00000000000E+00  0.25135745633E+03  0.25135745633E+03  0.00000000000E+00 0. -1.
         21   -1    0    0  501  502 -0.00000000000E+00 -0.00000000000E+00 -0.32385217506E+03  0.32385217506E+03  0.00000000000E+00 0. -1.
         25    1    1    2    0    0 -0.11717150419E+01 -0.14305159944E+03  0.84319332460E+02  0.20784581508E+03  0.12500000000E+03 0.  0.
         25    1    1    2    0    0  0.54082459287E+02  0.84928460786E+02 -0.12659279452E+02  0.16100625208E+03  0.12500000000E+03 0.  0.
         25    1    1    2    0    0 -0.52910744245E+02  0.58123138653E+02 -0.14415477173E+03  0.20635756423E+03  0.12500000000E+03 0.  0.
</event>
<event>
 5    0  0.5576108E-005  0.4498984E+03  0.7546771E-02  0.1027752E+00
         21   -1    0    0  502  501  0.00000000000E+00  0.00000000000E+00  0.89067401562E+03  0.89067401562E+03  0.00000000000E+00 0. -1.
         21   -1    0    0  501  502 -0.00000000000E+00 -0.00000000000E+00 -0.22725322122E+03  0.22725322122E+03  0.00000000000E+00 0. -1.
         25    1    1    2    0    0 -0.22965463146E+02 -0.84852664588E+02 -0.95385984913E+02  0.18014125930E+03  0.12500000000E+03 0.  0.
         25    1    1    2    0    0 -0.54537233353E+02 -0.14709253575E+03  0.57062915535E+03  0.60485796418E+03  0.12500000000E+03 0.  0.
         25    1    1    2    0    0  0.77502696499E+02  0.23194520034E+03  0.18817762396E+03  0.33292801336E+03  0.12500000000E+03 0.  0.
</event>
<event>
 5    0  0.5576108E-005  0.3520068E+03  0.7546771E-02  0.1061794E+00
         21   -1    0    0  502  501  0.00000000000E+00  0.00000000000E+00  0.20061745104E+03  0.20061745104E+03  0.00000000000E+00 0. -1.
         21   -1    0    0  501  502 -0.00000000000E+00 -0.00000000000E+00 -0.61763697580E+03  0.61763697580E+03  0.00000000000E+00 0. -1.
         25    1    1    2    0    0  0.89391352186E+02 -0.70683504542E+02 -0.49805871686E+03  0.52599853336E+03  0.12500000000E+03 0.  0.
         25    1    1    2    0    0 -0.29951912547E+02  0.42389565494E+02  0.64770532248E+02  0.15004737311E+03  0.12500000000E+03 0.  0.
         25    1    1    2    0    0 -0.59439439639E+02  0.28293939048E+02  0.16268659857E+02  0.14220852037E+03  0.12500000000E+03 0.  0.
</event>
<event>
 5    0  0.5576108E-005  0.3070490E+03  0.7546771E-02  0.1081769E+00
         21   -1    0    0  502  501  0.00000000000E+00  0.00000000000E+00  0.20697713678E+04  0.20697713678E+04  0.00000000000E+00 0.  1.
         21   -1    0    0  501  502 -0.00000000000E+00 -0.00000000000E+00 -0.45550480252E+02  0.45550480252E+02  0.00000000000E+00 0.  1.
         25    1    1    2    0    0  0.21947175324E+02 -0.61976260097E+02  0.10469507094E+04  0.10564343440E+04  0.12500000000E+03 0.  0.
         25    1    1    2    0    0 -0.15893029378E+02  0.31610739098E+02  0.80310326257E+02  0.15273040206E+03  0.12500000000E+03 0.  0.
         25    1    1    2    0    0 -0.60541459461E+01  0.30365520999E+02  0.89695985189E+03  0.90615710197E+03  0.12500000000E+03 0.  0.
</event>
<event>
 5    0  0.5576108E-005  0.2660526E+03  0.7546771E-02  0.1103560E+00
         21   -1    0    0  502  501  0.00000000000E+00  0.00000000000E+00  0.35336628738E+02  0.35336628738E+02  0.00000000000E+00 0.  1.
         21   -1    0    0  501  502 -0.00000000000E+00 -0.00000000000E+00 -0.20031328021E+04  0.20031328021E+04  0.00000000000E+00 0.  1.
         25    1    1    2    0    0  0.56281911995E+02  0.24347110970E+01 -0.10070177263E+04  0.10163086551E+04  0.12500000000E+03 0.  0.
         25    1    1    2    0    0 -0.40465745307E+02  0.83340044879E+02 -0.72425463719E+03  0.74077852230E+03  0.12500000000E+03 0.  0.
         25    1    1    2    0    0 -0.15816166688E+02 -0.85774755976E+02 -0.23652380996E+03  0.28138225347E+03  0.12500000000E+03 0.  0.
</event>
<event>
 5    0  0.5576108E-005  0.2701211E+03  0.7546771E-02  0.1101210E+00
         21   -1    0    0  502  501  0.00000000000E+00  0.00000000000E+00  0.35716413253E+03  0.35716413253E+03  0.00000000000E+00 0. -1.
         21   -1    0    0  501  502 -0.00000000000E+00 -0.00000000000E+00 -0.20429101298E+03  0.20429101298E+03  0.00000000000E+00 0. -1.
         25    1    1    2    0    0  0.29764445780E+02 -0.11027123326E+01 -0.97273880782E+02  0.16116558593E+03  0.12500000000E+03 0.  0.
         25    1    1    2    0    0 -0.56267078577E+02 -0.15540067379E+02  0.23233358322E+03  0.27020616521E+03  0.12500000000E+03 0.  0.
         25    1    1    2    0    0  0.26502632797E+02  0.16642779712E+02  0.17813417109E+02  0.13008339437E+03  0.12500000000E+03 0.  0.
</event>
<event>
 5    0  0.5576108E-005  0.4057568E+03  0.7546771E-02  0.1041804E+00
         21   -1    0    0  502  501  0.00000000000E+00  0.00000000000E+00  0.90634460698E+03  0.90634460698E+03  0.00000000000E+00 0. -1.
         21   -1    0    0  501  502 -0.00000000000E+00 -0.00000000000E+00 -0.18165116763E+03  0.18165116763E+03  0.00000000000E+00 0. -1.
         25    1    1    2    0    0  0.56822325253E+02  0.17284097652E+03  0.47834645416E+03  0.52682360428E+03  0.12500000000E+03 0.  0.
         25    1    1    2    0    0 -0.18133320400E+03  0.54669585223E+01  0.21594514220E+03  0.30849460765E+03  0.12500000000E+03 0.  0.
         25    1    1    2    0    0  0.12451087874E+03 -0.17830793505E+03  0.30401842993E+02  0.25267756268E+03  0.12500000000E+03 0.  0.
</event>
<event>
 5    0  0.5576108E-005  0.2686412E+03  0.7546771E-02  0.1102060E+00
         21   -1    0    0  502  501  0.00000000000E+00  0.00000000000E+00  0.45760376646E+03  0.45760376646E+03  0.00000000000E+00 0.  1.
         21   -1    0    0  501  502 -0.00000000000E+00 -0.00000000000E+00 -0.15770875075E+03  0.15770875075E+03  0.00000000000E+00 0.  1.
         25    1    1    2    0    0 -0.66015164729E+02  0.16234582926E+03  0.70704284948E+02  0.22657949193E+03  0.12500000000E+03 0.  0.
         25    1    1    2    0    0  0.41531473857E+02 -0.89823200471E+02  0.16266797217E+03  0.22776948838E+03  0.12500000000E+03 0.  0.
         25    1    1    2    0    0  0.24483690872E+02 -0.72522628789E+02  0.66522758584E+02  0.16096353691E+03  0.12500000000E+03 0.  0.
</event>
<event>
 5    0  0.5576108E-005  0.3685705E+03  0.7546771E-02  0.1055241E+00
         21   -1    0    0  502  501  0.00000000000E+00  0.00000000000E+00  0.80894926660E+02  0.80894926660E+02  0.00000000000E+00 0.  1.
         21   -1    0    0  501  502 -0.00000000000E+00 -0.00000000000E+00 -0.16792669807E+04  0.16792669807E+04  0.00000000000E+00 0.  1.
         25    1    1    2    0    0  0.10180029485E+03 -0.94816156898E+01 -0.35077666880E+03  0.38616378965E+03  0.12500000000E+03 0.  0.
         25    1    1    2    0    0  0.82120944503E+02 -0.20324208007E+03 -0.72336764308E+03  0.76611809775E+03  0.12500000000E+03 0.  0.
         25    1    1    2    0    0 -0.18392123935E+03  0.21272369576E+03 -0.52422774219E+03  0.60788001999E+03  0.12500000000E+03 0.  0.
</event>
<event>
 5    0  0.5576108E-005  0.5891761E+03  0.7546771E-02  0.9928120E-01
         21   -1    0    0  502  501  0.00000000000E+00  0.00000000000E+00  0.22120000539E+04  0.22120000539E+04  0.00000000000E+00 0. -1.
         21   -1    0    0  501  502 -0.00000000000E+00 -0.00000000000E+00 -0.15692969164E+03  0.15692969164E+03  0.00000000000E+00 0. -1.
         25    1    1    2    0    0 -0.28678048513E+03 -0.21601700749E+03  0.12660989865E+04  0.13219447937E+04  0.12500000000E+03 0.  0.
         25    1    1    2    0    0 -0.14841837678E+03  0.44270759099E+02  0.17509390447E+03  0.26508638226E+03  0.12500000000E+03 0.  0.
         25    1    1    2    0    0  0.43519886191E+03  0.17174624839E+03  0.61387747130E+03  0.78189856952E+03  0.12500000000E+03 0.  0.
</event>
<event>
 5    0  0.5576108E-005  0.6502092E+03  0.7546771E-02  0.9806387E-01
         21   -1    0    0  502  501  0.00000000000E+00  0.00000000000E+00  0.49499017549E+03  0.49499017549E+03  0.00000000000E+00 0.  1.
         21   -1    0    0  501  502 -0.00000000000E+00 -0.00000000000E+00 -0.85410183741E+03  0.85410183741E+03  0.00000000000E+00 0.  1.
         25    1    1    2    0    0  0.37387717651E+03 -0.25086126025E+03  0.19963990887E+03  0.50813050315E+03  0.12500000000E+03 0.  0.
         25    1    1    2    0    0 -0.20340718477E+03 -0.62976465077E+02 -0.26265858835E+03  0.36049279050E+03  0.12500000000E+03 0.  0.
         25    1    1    2    0    0 -0.17046999174E+03  0.31383772533E+03 -0.29609298244E+03  0.48046871925E+03  0.12500000000E+03 0.  0.
</event>
<event>
 5    0  0.5576108E-005  0.3855014E+03  0.7546771E-02  0.1048919E+00
         21   -1    0    0  502  501  0.00000000000E+00  0.00000000000E+00  0.26201702648E+03  0.26201702648E+03  0.00000000000E+00 0. -1.
         21   -1    0    0  501  502 -0.00000000000E+00 -0.00000000000E+00 -0.56718201313E+03  0.56718201313E+03  0.00000000000E+00 0. -1.
         25    1    1    2    0    0 -0.76375250403E+02  0.13764436602E+03 -0.36972493479E+03  0.42083331353E+03  0.12500000000E+03 0.  0.
         25    1    1    2    0    0  0.40373368821E+02  0.62058421189E+02 -0.36021046876E+02  0.14967889754E+03  0.12500000000E+03 0.  0.
         25    1    1    2    0    0  0.36001881582E+02 -0.19970278721E+03  0.10058099502E+03  0.25868682854E+03  0.12500000000E+03 0.  0.
</event>
<event>
 5    0  0.5576108E-005  0.2818104E+03  0.7546771E-02  0.1094704E+00
         21   -1    0    0  502  501  0.00000000000E+00  0.00000000000E+00  0.13421709403E+03  0.13421709403E+03  0.00000000000E+00 0. -1.
         21   -1    0    0  501  502 -0.00000000000E+00 -0.00000000000E+00 -0.59170638552E+03  0.59170638552E+03  0.00000000000E+00 0. -1.
         25    1    1    2    0    0  0.53385099102E+02 -0.47407048303E+01 -0.29293862292E+02  0.13912430937E+03  0.12500000000E+03 0.  0.
         25    1    1    2    0    0  0.10974074094E+03 -0.71266795216E+02 -0.21586887455E+03  0.28168485461E+03  0.12500000000E+03 0.  0.
         25    1    1    2    0    0 -0.16312584004E+03  0.76007500047E+02 -0.21232655465E+03  0.30511431556E+03  0.12500000000E+03 0.  0.
</event>
<event>
 5    0  0.5576108E-005  0.2584916E+03  0.7546771E-02  0.1108053E+00
         21   -1    0    0  502  501  0.00000000000E+00  0.00000000000E+00  0.16703953420E+03  0.16703953420E+03  0.00000000000E+00 0.  1.
         21   -1    0    0  501  502 -0.00000000000E+00 -0.00000000000E+00 -0.40001247920E+03  0.40001247920E+03  0.00000000000E+00 0.  1.
         25    1    1    2    0    0  0.53261763172E+02  0.10525902203E+03 -0.17456153675E+03  0.24497552377E+03  0.12500000000E+03 0.  0.
         25    1    1    2    0    0  0.43054768925E+02 -0.31051549257E+02  0.66161537733E+01  0.13596575057E+03  0.12500000000E+03 0.  0.
         25    1    1    2    0    0 -0.96316532096E+02 -0.74207472771E+02 -0.65027562021E+02  0.18611073906E+03  0.12500000000E+03 0.  0.
</event>
<event>
 5    0  0.5576108E-005  0.8092252E+03  0.7546771E-02  0.9546759E-01
         21   -1    0    0  502  501  0.00000000000E+00  0.00000000000E+00  0.11486620807E+04  0.11486620807E+04  0.00000000000E+00 0. -1.
         21   -1    0    0  501  502 -0.00000000000E+00 -0.00000000000E+00 -0.57009400393E+03  0.57009400393E+03  0.00000000000E+00 0. -1.
         25    1    1    2    0    0  0.42104151645E+03 -0.26073517651E+03  0.60045831136E+02  0.51428522503E+03  0.12500000000E+03 0.  0.
         25    1    1    2    0    0 -0.67791727575E+03 -0.51961198051E+01  0.39792320235E+03  0.79596903670E+03  0.12500000000E+03 0.  0.
         25    1    1    2    0    0  0.25687575930E+03  0.26593129632E+03  0.12059904330E+03  0.40850182291E+03  0.12500000000E+03 0.  0.
</event>
<event>
 5    0  0.5576108E-005  0.2322582E+03  0.7546771E-02  0.1125060E+00
         21   -1    0    0  502  501  0.00000000000E+00  0.00000000000E+00  0.17442192474E+03  0.17442192474E+03  0.00000000000E+00 0.  1.
         21   -1    0    0  501  502 -0.00000000000E+00 -0.00000000000E+00 -0.30927233333E+03  0.30927233333E+03  0.00000000000E+00 0.  1.
         25    1    1    2    0    0 -0.55524658333E+02  0.11113665219E+02 -0.29230283994E+02  0.14030648859E+03  0.12500000000E+03 0.  0.
         25    1    1    2    0    0  0.38099663144E+02  0.29662138738E+02  0.46246569629E+02  0.14175744075E+03  0.12500000000E+03 0.  0.
         25    1    1    2    0    0  0.17424995190E+02 -0.40775803957E+02 -0.15186669423E+03  0.20163032873E+03  0.12500000000E+03 0.  0.
</event>
<event>
 5    0  0.5576108E-005  0.3116872E+03  0.7546771E-02  0.1079540E+00
         21   -1    0    0  502  501  0.00000000000E+00  0.00000000000E+00  0.82167966993E+02  0.82167966993E+02  0.00000000000E+00 0.  1.
         21   -1    0    0  501  502 -0.00000000000E+00 -0.00000000000E+00 -0.11823209249E+04  0.11823209249E+04  0.00000000000E+00 0.  1.
         25    1    1    2    0    0 -0.85139668932E+01  0.54227496569E+01 -0.21681443238E+02  0.12726735177E+03  0.12500000000E+03 0.  0.
         25    1    1    2    0    0 -0.11842924773E+03 -0.22483826470E+02 -0.41118000697E+03  0.44634628631E+03  0.12500000000E+03 0.  0.
         25    1    1    2    0    0  0.12694321463E+03  0.17061076813E+02 -0.66729150774E+03  0.69087525385E+03  0.12500000000E+03 0.  0.
</event>
<event>
 5    0  0.5576108E-005  0.2610180E+03  0.7546771E-02  0.1106533E+00
         21   -1    0    0  502  501  0.00000000000E+00  0.00000000000E+00  0.39550292765E+02  0.39550292765E+02  0.00000000000E+00 0. -1.
         21   -1    0    0  501  502 -0.00000000000E+00 -0.00000000000E+00 -0.17226274017E+04  0.17226274017E+04  0.00000000000E+00 0. -1.
         25    1    1    2    0    0 -0.22010376425E+02  0.16108297398E+03 -0.54717732099E+03  0.58434596069E+03  0.12500000000E+03 0.  0.
         25    1    1    2    0    0  0.52913639432E+02 -0.10110115795E+03 -0.59767695887E+03  0.62117955902E+03  0.12500000000E+03 0.  0.
         25    1    1    2    0    0 -0.30903263007E+02 -0.59981816031E+02 -0.53822282908E+03  0.55665217475E+03  0.12500000000E+03 0.  0.
</event>
<event>
 5    0  0.5576108E-005  0.3461783E+03  0.7546771E-02  0.1064195E+00
         21   -1    0    0  502  501  0.00000000000E+00  0.00000000000E+00  0.45756838255E+03  0.45756838255E+03  0.00000000000E+00 0. -1.
         21   -1    0    0  501  502 -0.00000000000E+00 -0.00000000000E+00 -0.26190500379E+03  0.26190500379E+03  0.00000000000E+00 0. -1.
         25    1    1    2    0    0  0.10190538277E+02 -0.96973083483E+02  0.36176139917E+03  0.39497333571E+03  0.12500000000E+03 0.  0.
         25    1    1    2    0    0 -0.26432209633E+02  0.55032329487E+02 -0.12050748435E+03  0.18404964759E+03  0.12500000000E+03 0.  0.
         25    1    1    2    0    0  0.16241671355E+02  0.41940753996E+02 -0.45590536056E+02  0.14045040303E+03  0.12500000000E+03 0.  0.
</event>
<event>
 5    0  0.5576108E-005  0.2860826E+03  0.7546771E-02  0.1092412E+00
         21   -1    0    0  502  501  0.00000000000E+00  0.00000000000E+00  0.81849526112E+02  0.81849526112E+02  0.00000000000E+00 0. -1.
         21   -1    0    0  501  502 -0.00000000000E+00 -0.00000000000E+00 -0.99992326345E+03  0.99992326345E+03  0.00000000000E+00 0. -1.
         25    1    1    2    0    0  0.34366050564E+02 -0.55169754390E+02 -0.30577564816E+03  0.33667265145E+03  0.12500000000E+03 0.  0.
         25    1    1    2    0    0  0.11415031324E+03 -0.25719057360E+02 -0.44360912365E+03  0.47550585539E+03  0.12500000000E+03 0.  0.
         25    1    1    2    0    0 -0.14851636380E+03  0.80888811750E+02 -0.16868896553E+03  0.26959428272E+03  0.12500000000E+03 0.  0.
</event>
<event>
 5    0  0.5576108E-005  0.3570456E+03  0.7546771E-02  0.1059760E+00
         21   -1    0    0  502  501  0.00000000000E+00  0.00000000000E+00  0.21597502698E+03  0.21597502698E+03  0.00000000000E+00 0. -1.
         21   -1    0    0  501  502 -0.00000000000E+00 -0.00000000000E+00 -0.59026049982E+03  0.59026049982E+03  0.00000000000E+00 0. -1.
         25    1    1    2    0    0  0.21161583619E+03 -0.82815408594E+02 -0.16904154918E+03  0.30957987560E+03  0.12500000000E+03 0.  0.
         25    1    1    2    0    0 -0.24223116481E+03 -0.26016245012E+02 -0.75733998262E+02  0.28410107480E+03  0.12500000000E+03 0.  0.
         25    1    1    2    0    0  0.30615328621E+02  0.10883165361E+03 -0.12950992540E+03  0.21255457640E+03  0.12500000000E+03 0.  0.
</event>
<event>
 5    0  0.5576108E-005  0.3283700E+03  0.7546771E-02  0.1071860E+00
         21   -1    0    0  502  501  0.00000000000E+00  0.00000000000E+00  0.17149077128E+03  0.17149077128E+03  0.00000000000E+00 0.  1.
         21   -1    0    0  501  502 -0.00000000000E+00 -0.00000000000E+00 -0.62876168883E+03  0.62876168883E+03  0.00000000000E+00 0.  1.
         25    1    1    2    0    0  0.16236631398E+01 -0.57401311942E+02 -0.32890414385E+03  0.35651154643E+03  0.12500000000E+03 0.  0.
         25    1    1    2    0    0 -0.77257902974E+02  0.12140629678E+02 -0.22044553947E+03  0.26521201770E+03  0.12500000000E+03 0.  0.
         25    1    1    2    0    0  0.75634239834E+02  0.45260682265E+02  0.92078765765E+02  0.17852889598E+03  0.12500000000E+03 0.  0.
</event>
<event>
 5    0  0.5576108E-005  0.2568924E+03  0.7546771E-02  0.1109025E+00
         21   -1    0    0  502  501  0.00000000000E+00  0.00000000000E+00  0.67859288098E+02  0.67859288098E+02  0.00000000000E+00 0. -1.
         21   -1    0    0  501  502 -0.00000000000E+00 -0.00000000000E+00 -0.97250789731E+03  0.97250789731E+03  0.00000000000E+00 0. -1.
         25    1    1    2    0    0  0.31919315704E+02  0.56172763226E+02 -0.18582712283E+03  0.23308998611E+03  0.12500000000E+03 0.  0.
         25    1    1    2    0    0 -0.12682570376E+03 -0.97029815441E+02 -0.35268719898E+03  0.40683264931E+03  0.12500000000E+03 0.  0.
         25    1    1    2    0    0  0.94906388054E+02  0.40857052215E+02 -0.36613428740E+03  0.40044454999E+03  0.12500000000E+03 0.  0.
</event>
<event>
 5    0  0.7966931E-005  0.3183506E+03  0.7546771E-02  0.1076411E+00
         21   -1    0    0  502  501  0.00000000000E+00  0.00000000000E+00  0.36158555327E+03  0.36158555327E+03  0.00000000000E+00 0. -1.
         21   -1    0    0  501  502 -0.00000000000E+00 -0.00000000000E+00 -0.28028523434E+03  0.28028523434E+03  0.00000000000E+00 0. -1.
         25    1    1    2    0    0 -0.10042872002E+03 -0.98602012456E+02 -0.33378145969E+02  0.19117370450E+03  0.12500000000E+03 0.  0.
         25    1    1    2    0    0  0.64929939134E+01 -0.91642400656E+02  0.13219930249E+03  0.20381890037E+03  0.12500000000E+03 0.  0.
         25    1    1    2    0    0  0.93935726110E+02  0.19024441311E+03 -0.17520837592E+02  0.24687818273E+03  0.12500000000E+03 0.  0.
</event>
<event>
 5    0  0.5576108E-005  0.5697573E+03  0.7546771E-02  0.9970216E-01
         21   -1    0    0  502  501  0.00000000000E+00  0.00000000000E+00  0.29270538162E+03  0.29270538162E+03  0.00000000000E+00 0.  1.
         21   -1    0    0  501  502 -0.00000000000E+00 -0.00000000000E+00 -0.11090447063E+04  0.11090447063E+04  0.00000000000E+00 0.  1.
         25    1    1    2    0    0 -0.17754889370E+03 -0.13286935751E+03  0.11074562706E+02  0.25480486996E+03  0.12500000000E+03 0.  0.
         25    1    1    2    0    0  0.26141827672E+03 -0.66435568453E+02 -0.15727260353E+02  0.29770043144E+03  0.12500000000E+03 0.  0.
         25    1    1    2    0    0 -0.83869383022E+02  0.19930492596E+03 -0.81168662701E+03  0.84924478650E+03  0.12500000000E+03 0.  0.
</event>
<event>
 5    0  0.5576108E-005  0.2756172E+03  0.7546771E-02  0.1098107E+00
         21   -1    0    0  502  501  0.00000000000E+00  0.00000000000E+00  0.52008272848E+03  0.52008272848E+03  0.00000000000E+00 0. -1.
         21   -1    0    0  501  502 -0.00000000000E+00 -0.00000000000E+00 -0.14606301999E+03  0.14606301999E+03  0.00000000000E+00 0. -1.
         25    1    1    2    0    0 -0.30847659165E+02  0.19457423067E+02  0.38869899538E+02  0.13588980270E+03  0.12500000000E+03 0.  0.
         25    1    1    2    0    0  0.14047114785E+03 -0.13451312384E+02  0.41923443620E+02  0.19312083344E+03  0.12500000000E+03 0.  0.
         25    1    1    2    0    0 -0.10962348869E+03 -0.60061106832E+01  0.29322636533E+03  0.33713511233E+03  0.12500000000E+03 0.  0.
</event>
<event>
 5    0  0.5576108E-005  0.4303214E+03  0.7546771E-02  0.1033758E+00
         21   -1    0    0  502  501  0.00000000000E+00  0.00000000000E+00  0.10236044229E+04  0.10236044229E+04  0.00000000000E+00 0.  1.
         21   -1    0    0  501  502 -0.00000000000E+00 -0.00000000000E+00 -0.18090635747E+03  0.18090635747E+03  0.00000000000E+00 0.  1.
         25    1    1    2    0    0  0.15102673264E+03 -0.11013065666E+03  0.17970346257E+03  0.28784747692E+03  0.12500000000E+03 0.  0.
         25    1    1    2    0    0 -0.33592952180E+03 -0.88726191796E+00  0.51274985226E+03  0.62560917660E+03  0.12500000000E+03 0.  0.
         25    1    1    2    0    0  0.18490278916E+03  0.11101791858E+03  0.15024475065E+03  0.29105412690E+03  0.12500000000E+03 0.  0.
</event>
<event>
 5    0  0.5576108E-005  0.3839859E+03  0.7546771E-02  0.1049470E+00
         21   -1    0    0  502  501  0.00000000000E+00  0.00000000000E+00  0.29708382145E+03  0.29708382145E+03  0.00000000000E+00 0.  1.
         21   -1    0    0  501  502 -0.00000000000E+00 -0.00000000000E+00 -0.49630839960E+03  0.49630839960E+03  0.00000000000E+00 0.  1.
         25    1    1    2    0    0 -0.21714080867E+03 -0.43118969026E+02 -0.27797200287E+02  0.25574804129E+03  0.12500000000E+03 0.  0.
         25    1    1    2    0    0  0.29009513015E+03  0.12304378987E+03 -0.78440375157E+02  0.34795524313E+03  0.12500000000E+03 0.  0.
         25    1    1    2    0    0 -0.72954321485E+02 -0.79924820846E+02 -0.92987002705E+02  0.18968893664E+03  0.12500000000E+03 0.  0.
</event>
<event>
 5    0  0.5576108E-005  0.3731799E+03  0.7546771E-02  0.1053484E+00
         21   -1    0    0  502  501  0.00000000000E+00  0.00000000000E+00  0.28503306226E+03  0.28503306226E+03  0.00000000000E+00 0.  1.
         21   -1    0    0  501  502 -0.00000000000E+00 -0.00000000000E+00 -0.48858634446E+03  0.48858634446E+03  0.00000000000E+00 0.  1.
         25    1    1    2    0    0  0.34683716165E+02 -0.79500441143E+02 -0.17006013194E+03  0.22818573308E+03  0.12500000000E+03 0.  0.
         25    1    1    2    0    0  0.66960277338E+02 -0.18538823440E+03  0.16668504828E+01  0.23341005674E+03  0.12500000000E+03 0.  0.
         25    1    1    2    0    0 -0.10164399350E+03  0.26488867555E+03 -0.35160000758E+02  0.31202361690E+03  0.12500000000E+03 0.  0.
</event>
<event>
 5    0  0.6162374E-005  0.3317093E+03  0.7546771E-02  0.1070383E+00
         21   -1    0    0  502  501  0.00000000000E+00  0.00000000000E+00  0.44197316748E+03  0.44197316748E+03  0.00000000000E+00 0.  1.
         21   -1    0    0  501  502 -0.00000000000E+00 -0.00000000000E+00 -0.24895415377E+03  0.24895415377E+03  0.00000000000E+00 0.  1.
         25    1    1    2    0    0  0.55763348514E+02 -0.91419261173E+02  0.89382440312E+02  0.18729990119E+03  0.12500000000E+03 0.  0.
         25    1    1    2    0    0 -0.59295349282E+02  0.11667204708E+03 -0.13986824120E+03  0.22872785119E+03  0.12500000000E+03 0.  0.
         25    1    1    2    0    0  0.35320007679E+01 -0.25252785902E+02  0.24350481460E+03  0.27489956886E+03  0.12500000000E+03 0.  0.
</event>
<event>
 5    0  0.5576108E-005  0.2846674E+03  0.7546771E-02  0.1093167E+00
         21   -1    0    0  502  501  0.00000000000E+00  0.00000000000E+00  0.82288116204E+02  0.82288116204E+02  0.00000000000E+00 0. -1.
         21   -1    0    0  501  502 -0.00000000000E+00 -0.00000000000E+00 -0.98477798286E+03  0.98477798286E+03  0.00000000000E+00 0. -1.
         25    1    1    2    0    0 -0.63391629032E+02  0.36728104916E+02 -0.12319010223E+03  0.19017952995E+03  0.12500000000E+03 0.  0.
         25    1    1    2    0    0  0.80755935821E+02  0.87240585976E+02 -0.60278319325E+03  0.62698087617E+03  0.12500000000E+03 0.  0.
         25    1    1    2    0    0 -0.17364306790E+02 -0.12396869089E+03 -0.17651657117E+03  0.24990569295E+03  0.12500000000E+03 0.  0.
</event>
<event>
 5    0  0.5576108E-005  0.3341064E+03  0.7546771E-02  0.1069334E+00
         21   -1    0    0  502  501  0.00000000000E+00  0.00000000000E+00  0.99729220692E+02  0.99729220692E+02  0.00000000000E+00 0. -1.
         21   -1    0    0  501  502 -0.00000000000E+00 -0.00000000000E+00 -0.11193015501E+04  0.11193015501E+04  0.00000000000E+00 0. -1.
         25    1    1    2    0    0  0.12383386981E+03 -0.14243223007E+03 -0.34922530076E+03  0.41617914191E+03  0.12500000000E+03 0.  0.
         25    1    1    2    0    0 -0.20901439539E+03  0.13398917436E+03 -0.33810573764E+03  0.43769921881E+03  0.12500000000E+03 0.  0.
         25    1    1    2    0    0  0.85180525577E+02  0.84430557050E+01 -0.33224129103E+03  0.36515241008E+03  0.12500000000E+03 0.  0.
</event>
<event>
 5    0  0.5576108E-005  0.4362139E+03  0.7546771E-02  0.1031915E+00
         21   -1    0    0  502  501  0.00000000000E+00  0.00000000000E+00  0.14361158343E+03  0.14361158343E+03  0.00000000000E+00 0.  1.
         21   -1    0    0  501  502 -0.00000000000E+00 -0.00000000000E+00 -0.13249806649E+04  0.13249806649E+04  0.00000000000E+00 0.  1.
         25    1    1    2    0    0 -0.16400108755E+03 -0.33586085209E+03 -0.40664387607E+03  0.56628889326E+03  0.12500000000E+03 0.  0.
         25    1    1    2    0    0  0.10701569203E+03  0.13579495372E+03 -0.28785991678E+03  0.35830288791E+03  0.12500000000E+03 0.  0.
         25    1    1    2    0    0  0.56985395511E+02  0.20006589837E+03 -0.48686528859E+03  0.54400046712E+03  0.12500000000E+03 0.  0.
</event>
<event>
 5    0  0.5576108E-005  0.2530580E+03  0.7546771E-02  0.1111387E+00
         21   -1    0    0  502  501  0.00000000000E+00  0.00000000000E+00  0.10260600752E+04  0.10260600752E+04  0.00000000000E+00 0. -1.
         21   -1    0    0  501  502 -0.00000000000E+00 -0.00000000000E+00 -0.62411881919E+02  0.62411881919E+02  0.00000000000E+00 0. -1.
         25    1    1    2    0    0 -0.87474827470E+02  0.35383742159E+02  0.15217176543E+03  0.21836918474E+03  0.12500000000E+03 0.  0.
         25    1    1    2    0    0  0.53611476889E+02 -0.74746831086E+02  0.59403636239E+03  0.61397514531E+03  0.12500000000E+03 0.  0.
         25    1    1    2    0    0  0.33863350580E+02  0.39363088928E+02  0.21744006545E+03  0.25612762706E+03  0.12500000000E+03 0.  0.
</event>
<event>
 5    0  0.5576108E-005  0.2629790E+03  0.7546771E-02  0.1105366E+00
         21   -1    0    0  502  501  0.00000000000E+00  0.00000000000E+00  0.78217464304E+02  0.78217464304E+02  0.00000000000E+00 0.  1.
         21   -1    0    0  501  502 -0.00000000000E+00 -0.00000000000E+00 -0.88417555997E+03  0.88417555997E+03  0.00000000000E+00 0.  1.
         25    1    1    2    0    0 -0.59719094995E+02  0.72236827003E+02 -0.68483104048E+02  0.17058565304E+03  0.12500000000E+03 0.  0.
         25    1    1    2    0    0  0.28214563259E+02  0.14727975765E+02 -0.27176696600E+03  0.30082429865E+03  0.12500000000E+03 0.  0.
         25    1    1    2    0    0  0.31504531736E+02 -0.86964802768E+02 -0.46570802562E+03  0.49098307259E+03  0.12500000000E+03 0.  0.
</event>
<event>
 5    0  0.5576108E-005  0.2167539E+03  0.7546771E-02  0.1136327E+00
         21   -1    0    0  502  501  0.00000000000E+00  0.00000000000E+00  0.99964893215E+03  0.99964893215E+03  0.00000000000E+00 0.  1.
         21   -1    0    0  501  502 -0.00000000000E+00 -0.00000000000E+00 -0.46998766578E+02  0.46998766578E+02  0.00000000000E+00 0.  1.
         25    1    1    2    0    0  0.42165474899E+02 -0.36437013741E+02  0.22498696384E+03  0.26334334460E+03  0.12500000000E+03 0.  0.
         25    1    1    2    0    0  0.23235734299E+02  0.14261374981E+01  0.47590641184E+03  0.49259907232E+03  0.12500000000E+03 0.  0.
         25    1    1    2    0    0 -0.65401209198E+02  0.35010876243E+02  0.25175678988E+03  0.29070528181E+03  0.12500000000E+03 0.  0.
</event>
<event>
 5    0  0.5576108E-005  0.2750971E+03  0.7546771E-02  0.1098397E+00
         21   -1    0    0  502  501  0.00000000000E+00  0.00000000000E+00  0.36407994323E+03  0.36407994323E+03  0.00000000000E+00 0.  1.
         21   -1    0    0  501  502 -0.00000000000E+00 -0.00000000000E+00 -0.20786214190E+03  0.20786214190E+03  0.00000000000E+00 0.  1.
         25    1    1    2    0    0 -0.11239720576E+03 -0.11098682041E+03  0.18957784991E+02  0.20232548969E+03  0.12500000000E+03 0.  0.
         25    1    1    2    0    0  0.75448871844E+02  0.37083859956E+02  0.15805163113E+03  0.21834162002E+03  0.12500000000E+03 0.  0.
         25    1    1    2    0    0  0.36948333911E+02  0.73902960458E+02 -0.20791614788E+02  0.15127497542E+03  0.12500000000E+03 0.  0.
</event>
<event>
 5    0  0.5576108E-005  0.3476682E+03  0.7546771E-02  0.1063576E+00
         21   -1    0    0  502  501  0.00000000000E+00  0.00000000000E+00  0.17542194304E+04  0.17542194304E+04  0.00000000000E+00 0. -1.
         21   -1    0    0  501  502 -0.00000000000E+00 -0.00000000000E+00 -0.68904265509E+02  0.68904265509E+02  0.00000000000E+00 0. -1.
         25    1    1    2    0    0  0.20151607839E+03 -0.13193646319E+03  0.50603118343E+03  0.57420250676E+03  0.12500000000E+03 0.  0.
         25    1    1    2    0    0 -0.24747905778E+02  0.75926189868E+01  0.66617429020E+03  0.67829439893E+03  0.12500000000E+03 0.  0.
         25    1    1    2    0    0 -0.17676817262E+03  0.12434384421E+03  0.51310969130E+03  0.57062679025E+03  0.12500000000E+03 0.  0.
</event>
<event>
 5    0  0.5576108E-005  0.2354476E+03  0.7546771E-02  0.1122863E+00
         21   -1    0    0  502  501  0.00000000000E+00  0.00000000000E+00  0.11597706438E+03  0.11597706438E+03  0.00000000000E+00 0.  1.
         21   -1    0    0  501  502 -0.00000000000E+00 -0.00000000000E+00 -0.47798734236E+03  0.47798734236E+03  0.00000000000E+00 0.  1.
         25    1    1    2    0    0 -0.18695662140E+02  0.73727018744E+02 -0.59957349456E+02  0.15812996183E+03  0.12500000000E+03 0.  0.
         25    1    1    2    0    0 -0.58718018011E+02 -0.63038724266E+02 -0.21947547254E+03  0.26686357833E+03  0.12500000000E+03 0.  0.
         25    1    1    2    0    0  0.77413680151E+02 -0.10688294478E+02 -0.82577455981E+02  0.16897086657E+03  0.12500000000E+03 0.  0.
</event>
<event>
 5    0  0.5576108E-005  0.2434350E+03  0.7546771E-02  0.1117525E+00
         21   -1    0    0  502  501  0.00000000000E+00  0.00000000000E+00  0.21839331656E+03  0.21839331656E+03  0.00000000000E+00 0.  1.
         21   -1    0    0  501  502 -0.00000000000E+00 -0.00000000000E+00 -0.27134814215E+03  0.27134814215E+03  0.00000000000E+00 0.  1.
         25    1    1    2    0    0 -0.14164564946E+02 -0.54276082507E+01  0.61082987634E+02  0.13995079567E+03  0.12500000000E+03 0.  0.
         25    1    1    2    0    0  0.92126693371E+02  0.62915358893E+02 -0.88894809618E+02  0.18966538217E+03  0.12500000000E+03 0.  0.
         25    1    1    2    0    0 -0.77962128425E+02 -0.57487750643E+02 -0.25143003602E+02  0.16012528087E+03  0.12500000000E+03 0.  0.
</event>
<event>
 5    0  0.5576108E-005  0.2698451E+03  0.7546771E-02  0.1101368E+00
         21   -1    0    0  502  501  0.00000000000E+00  0.00000000000E+00  0.75005634380E+03  0.75005634380E+03  0.00000000000E+00 0.  1.
         21   -1    0    0  501  502 -0.00000000000E+00 -0.00000000000E+00 -0.97081230397E+02  0.97081230397E+02  0.00000000000E+00 0.  1.
         25    1    1    2    0    0  0.47854942776E+02  0.15643501939E+03  0.27670062171E+03  0.34489164225E+03  0.12500000000E+03 0.  0.
         25    1    1    2    0    0 -0.87871694152E+02 -0.12520404331E+03  0.23237557731E+03  0.30499327210E+03  0.12500000000E+03 0.  0.
         25    1    1    2    0    0  0.40016751376E+02 -0.31230976071E+02  0.14389891438E+03  0.19725265985E+03  0.12500000000E+03 0.  0.
</event>
<event>
 5    0  0.5576108E-005  0.3586217E+03  0.7546771E-02  0.1059131E+00
         21   -1    0    0  502  501  0.00000000000E+00  0.00000000000E+00  0.40406517590E+03  0.40406517590E+03  0.00000000000E+00 0. -1.
         21   -1    0    0  501  502 -0.00000000000E+00 -0.00000000000E+00 -0.31828906102E+03  0.31828906102E+03  0.00000000000E+00 0. -1.
         25    1    1    2    0    0 -0.18036005269E+03 -0.51211858933E+02 -0.13660185125E+03  0.26350990279E+03  0.12500000000E+03 0.  0.
         25    1    1    2    0    0  0.20184536213E+03  0.74438034818E+02  0.21641880894E+03  0.32976457072E+03  0.12500000000E+03 0.  0.
         25    1    1    2    0    0 -0.21485309435E+02 -0.23226175884E+02  0.59591571890E+01  0.12907976341E+03  0.12500000000E+03 0.  0.
</event>
<event>
 5    0  0.7264308E-005  0.2834301E+03  0.7546771E-02  0.1093830E+00
         21   -1    0    0  502  501  0.00000000000E+00  0.00000000000E+00  0.59630382456E+03  0.59630382456E+03  0.00000000000E+00 0.  1.
         21   -1    0    0  501  502 -0.00000000000E+00 -0.00000000000E+00 -0.13471759604E+03  0.13471759604E+03  0.00000000000E+00 0.  1.
         25    1    1    2    0    0 -0.37773103063E+02 -0.27776859015E+02  0.27383964745E+02  0.13628368478E+03  0.12500000000E+03 0.  0.
         25    1    1    2    0    0 -0.44802634928E+02 -0.24621151119E+02  0.41311800956E+03  0.43463199031E+03  0.12500000000E+03 0.  0.
         25    1    1    2    0    0  0.82575737991E+02  0.52398010134E+02  0.21084254208E+02  0.16010574551E+03  0.12500000000E+03 0.  0.
</event>
<event>
 5    0  0.5576108E-005  0.2704289E+03  0.7546771E-02  0.1101034E+00
         21   -1    0    0  502  501  0.00000000000E+00  0.00000000000E+00  0.14064172892E+04  0.14064172892E+04  0.00000000000E+00 0. -1.
         21   -1    0    0  501  502 -0.00000000000E+00 -0.00000000000E+00 -0.51998639169E+02  0.51998639169E+02  0.00000000000E+00 0. -1.
         25    1    1    2    0    0  0.80906902298E+02  0.53742011856E+02  0.13360356342E+03  0.20714498023E+03  0.12500000000E+03 0.  0.
         25    1    1    2    0    0 -0.44995318476E+02  0.19986187195E+01  0.59959457671E+03  0.61413942194E+03  0.12500000000E+03 0.  0.
         25    1    1    2    0    0 -0.35911583822E+02 -0.55740630576E+02  0.62122050994E+03  0.63713152623E+03  0.12500000000E+03 0.  0.
</event>
<event>
 5    0  0.5576108E-005  0.4815402E+03  0.7546771E-02  0.1018713E+00
         21   -1    0    0  502  501  0.00000000000E+00  0.00000000000E+00  0.23898315477E+03  0.23898315477E+03  0.00000000000E+00 0. -1.
         21   -1    0    0  501  502 -0.00000000000E+00 -0.00000000000E+00 -0.97028173596E+03  0.97028173596E+03  0.00000000000E+00 0. -1.
         25    1    1    2    0    0 -0.50875473959E+02  0.12099327887E+03 -0.52619509094E+02  0.18873658925E+03  0.12500000000E+03 0.  0.
         25    1    1    2    0    0  0.26081217395E+03 -0.26775518573E+03 -0.15345758995E+03  0.42295397087E+03  0.12500000000E+03 0.  0.
         25    1    1    2    0    0 -0.20993669999E+03  0.14676190686E+03 -0.52522148214E+03  0.59757433061E+03  0.12500000000E+03 0.  0.
</event>
<event>
 5    0  0.5576108E-005  0.3345351E+03  0.7546771E-02  0.1069148E+00
         21   -1    0    0  502  501  0.00000000000E+00  0.00000000000E+00  0.64340787114E+03  0.64340787114E+03  0.00000000000E+00 0.  1.
         21   -1    0    0  501  502 -0.00000000000E+00 -0.00000000000E+00 -0.17393906932E+03  0.17393906932E+03  0.00000000000E+00 0.  1.
         25    1    1    2    0    0 -0.22481785501E+03 -0.10488649275E+03  0.14572944747E+03  0.31369781025E+03  0.12500000000E+03 0.  0.
         25    1    1    2    0    0  0.52194035291E+02  0.68981193893E+02  0.61903632046E+02  0.16413312308E+03  0.12500000000E+03 0.  0.
         25    1    1    2    0    0  0.17262381972E+03  0.35905298854E+02  0.26183572231E+03  0.33951600713E+03  0.12500000000E+03 0.  0.
</event>
<event>
 5    0  0.5576108E-005  0.2702347E+03  0.7546771E-02  0.1101145E+00
         21   -1    0    0  502  501  0.00000000000E+00  0.00000000000E+00  0.87601769340E+03  0.87601769340E+03  0.00000000000E+00 0. -1.
         21   -1    0    0  501  502 -0.00000000000E+00 -0.00000000000E+00 -0.83362262355E+02  0.83362262355E+02  0.00000000000E+00 0. -1.
         25    1    1    2    0    0 -0.30122640303E+02 -0.51833441452E+02  0.39970651291E+03  0.42306545069E+03  0.12500000000E+03 0.  0.
         25    1    1    2    0    0  0.79426549738E+02 -0.36260735877E-02  0.35899244014E+03  0.38834153640E+03  0.12500000000E+03 0.  0.
         25    1    1    2    0    0 -0.49303909435E+02  0.51837067526E+02  0.33956477995E+02  0.14797296866E+03  0.12500000000E+03 0.  0.
</event>
<event>
 5    0  0.5576108E-005  0.2263181E+03  0.7546771E-02  0.1129258E+00
         21   -1    0    0  502  501  0.00000000000E+00  0.00000000000E+00  0.14501697724E+03  0.14501697724E+03  0.00000000000E+00 0.  1.
         21   -1    0    0  501  502 -0.00000000000E+00 -0.00000000000E+00 -0.35319915035E+03  0.35319915035E+03  0.00000000000E+00 0.  1.
         25    1    1    2    0    0 -0.44155283809E+02 -0.68398992085E+02 -0.21071606228E+02  0.15065564641E+03  0.12500000000E+03 0.  0.
         25    1    1    2    0    0  0.41508920242E+02  0.64029420114E+02 -0.16482243293E+03  0.22048626147E+03  0.12500000000E+03 0.  0.
         25    1    1    2    0    0  0.26463635667E+01  0.43695719708E+01 -0.22288133952E+02  0.12707421971E+03  0.12500000000E+03 0.  0.
</event>
<event>
 5    0  0.5576108E-005  0.3742013E+03  0.7546771E-02  0.1053098E+00
         21   -1    0    0  502  501  0.00000000000E+00  0.00000000000E+00  0.38704381720E+03  0.38704381720E+03  0.00000000000E+00 0.  1.
         21   -1    0    0  501  502 -0.00000000000E+00 -0.00000000000E+00 -0.36178486887E+03  0.36178486887E+03  0.00000000000E+00 0.  1.
         25    1    1    2    0    0  0.78872073934E+02 -0.36089392523E+02  0.19351296271E+03  0.24616156288E+03  0.12500000000E+03 0.  0.
         25    1    1    2    0    0  0.10613029744E+03 -0.10725553739E+03 -0.12865136342E+03  0.23440043440E+03  0.12500000000E+03 0.  0.
         25    1    1    2    0    0 -0.18500237138E+03  0.14334492992E+03 -0.39602650963E+02  0.26826668878E+03  0.12500000000E+03 0.  0.
</event>
<event>
 5    0  0.5576108E-005  0.3203922E+03  0.7546771E-02  0.1075469E+00
         21   -1    0    0  502  501  0.00000000000E+00  0.00000000000E+00  0.10042585304E+03  0.10042585304E+03  0.00000000000E+00 0. -1.
         21   -1    0    0  501  502 -0.00000000000E+00 -0.00000000000E+00 -0.10221589619E+04  0.10221589619E+04  0.00000000000E+00 0. -1.
         25    1    1    2    0    0  0.12390193049E+03  0.11346391238E+03 -0.23024275399E+03  0.31122736634E+03  0.12500000000E+03 0.  0.
         25    1    1    2    0    0  0.88682243457E+02 -0.54997302779E+02 -0.19604161513E+03  0.25484614669E+03  0.12500000000E+03 0.  0.
         25    1    1    2    0    0 -0.21258417395E+03 -0.58466609601E+02 -0.49544873978E+03  0.55651130195E+03  0.12500000000E+03 0.  0.
</event>
<event>
 5    0  0.5576108E-005  0.3019541E+03  0.7546771E-02  0.1084268E+00
         21   -1    0    0  502  501  0.00000000000E+00  0.00000000000E+00  0.18347475482E+03  0.18347475482E+03  0.00000000000E+00 0. -1.
         21   -1    0    0  501  502 -0.00000000000E+00 -0.00000000000E+00 -0.49694166628E+03  0.49694166628E+03  0.00000000000E+00 0. -1.
         25    1    1    2    0    0  0.35272297972E+02  0.10748992922E+03 -0.17441150869E+03  0.24257492503E+03  0.12500000000E+03 0.  0.
         25    1    1    2    0    0  0.21577357143E+02 -0.18988480450E+03 -0.40631700848E+01  0.22839293044E+03  0.12500000000E+03 0.  0.
         25    1    1    2    0    0 -0.56849655115E+02  0.82394875278E+02 -0.13499223268E+03  0.20944856563E+03  0.12500000000E+03 0.  0.
</event>
<event>
 5    0  0.5702552E-005  0.5184420E+03  0.7546771E-02  0.1009074E+00
         21   -1    0    0  502  501  0.00000000000E+00  0.00000000000E+00  0.89732520746E+03  0.89732520746E+03  0.00000000000E+00 0.  1.
         21   -1    0    0  501  502 -0.00000000000E+00 -0.00000000000E+00 -0.29953698874E+03  0.29953698874E+03  0.00000000000E+00 0.  1.
         25    1    1    2    0    0 -0.27499679042E+03  0.69755556168E+02  0.36055375008E+03  0.47551348988E+03  0.12500000000E+03 0.  0.
         25    1    1    2    0    0  0.23896285053E+02 -0.13306193883E+03 -0.15106982808E+03  0.23816717860E+03  0.12500000000E+03 0.  0.
         25    1    1    2    0    0  0.25110050536E+03  0.63306382664E+02  0.38830429672E+03  0.48318152772E+03  0.12500000000E+03 0.  0.
</event>
<event>
 5    0  0.5576108E-005  0.2486803E+03  0.7546771E-02  0.1114142E+00
         21   -1    0    0  502  501  0.00000000000E+00  0.00000000000E+00  0.53612461449E+03  0.53612461449E+03  0.00000000000E+00 0. -1.
         21   -1    0    0  501  502 -0.00000000000E+00 -0.00000000000E+00 -0.11534988253E+03  0.11534988253E+03  0.00000000000E+00 0. -1.
         25    1    1    2    0    0  0.49646642589E+02 -0.54365222300E+02  0.67315838361E+02  0.15992744796E+03  0.12500000000E+03 0.  0.
         25    1    1    2    0    0  0.23149510639E+02 -0.36603675431E+02  0.46489554364E+02  0.14022128071E+03  0.12500000000E+03 0.  0.
         25    1    1    2    0    0 -0.72796153228E+02  0.90968897731E+02  0.30696933924E+03  0.35132576836E+03  0.12500000000E+03 0.  0.
</event>
<event>
 5    0  0.5576108E-005  0.2967433E+03  0.7546771E-02  0.1086880E+00
         21   -1    0    0  502  501  0.00000000000E+00  0.00000000000E+00  0.42799838546E+02  0.42799838546E+02  0.00000000000E+00 0.  1.
         21   -1    0    0  501  502 -0.00000000000E+00 -0.00000000000E+00 -0.20574046472E+04  0.20574046472E+04  0.00000000000E+00 0.  1.
         25    1    1    2    0    0  0.65192218271E+02  0.21886053474E+02 -0.99689504231E+03  0.10070520096E+04  0.12500000000E+03 0.  0.
         25    1    1    2    0    0  0.61850258460E+02  0.11464393326E+02 -0.14387307843E+03  0.20070214120E+03  0.12500000000E+03 0.  0.
         25    1    1    2    0    0 -0.12704247673E+03 -0.33350446799E+02 -0.87383668787E+03  0.89245033490E+03  0.12500000000E+03 0.  0.
</event>
<event>
 5    0  0.5576108E-005  0.2742871E+03  0.7546771E-02  0.1098851E+00
         21   -1    0    0  502  501  0.00000000000E+00  0.00000000000E+00  0.28205053004E+03  0.28205053004E+03  0.00000000000E+00 0.  1.
         21   -1    0    0  501  502 -0.00000000000E+00 -0.00000000000E+00 -0.26673743607E+03  0.26673743607E+03  0.00000000000E+00 0.  1.
         25    1    1    2    0    0  0.19634081930E+02 -0.15693339954E+03 -0.75418436965E+02  0.21523598607E+03  0.12500000000E+03 0.  0.
         25    1    1    2    0    0 -0.34903738523E+02  0.34372260198E+02 -0.32055174840E+01  0.13429444730E+03  0.12500000000E+03 0.  0.
         25    1    1    2    0    0  0.15269656593E+02  0.12256113934E+03  0.93937048424E+02  0.19925753274E+03  0.12500000000E+03 0.  0.
</event>
<event>
 5    0  0.5576108E-005  0.2898018E+03  0.7546771E-02  0.1090453E+00
         21   -1    0    0  502  501  0.00000000000E+00  0.00000000000E+00  0.13106200549E+04  0.13106200549E+04  0.00000000000E+00 0. -1.
         21   -1    0    0  501  502 -0.00000000000E+00 -0.00000000000E+00 -0.64080430050E+02  0.64080430050E+02  0.00000000000E+00 0. -1.
         25    1    1    2    0    0  0.22890711899E+02 -0.30116691263E+02  0.22772908751E+03  0.26251959371E+03  0.12500000000E+03 0.  0.
         25    1    1    2    0    0 -0.81763833435E+02  0.77816592474E+02  0.92106933532E+03  0.93634099931E+03  0.12500000000E+03 0.  0.
         25    1    1    2    0    0  0.58873121535E+02 -0.47699901211E+02  0.97741201979E+02  0.17583989189E+03  0.12500000000E+03 0.  0.
</event>
<event>
 5    0  0.5576108E-005  0.2632291E+03  0.7546771E-02  0.1105218E+00
         21   -1    0    0  502  501  0.00000000000E+00  0.00000000000E+00  0.90337919748E+02  0.90337919748E+02  0.00000000000E+00 0.  1.
         21   -1    0    0  501  502 -0.00000000000E+00 -0.00000000000E+00 -0.76700439551E+03  0.76700439551E+03  0.00000000000E+00 0.  1.
         25    1    1    2    0    0  0.89915170329E+02  0.34954653272E+02 -0.18378486418E+03  0.24229824998E+03  0.12500000000E+03 0.  0.
         25    1    1    2    0    0  0.18616654382E+02 -0.97315303133E+02 -0.11143738903E+03  0.19457682215E+03  0.12500000000E+03 0.  0.
         25    1    1    2    0    0 -0.10853182471E+03  0.62360649861E+02 -0.38144422255E+03  0.42046724313E+03  0.12500000000E+03 0.  0.
</event>
<event>
 5    0  0.5576108E-005  0.4851660E+03  0.7546771E-02  0.1017725E+00
         21   -1    0    0  502  501  0.00000000000E+00  0.00000000000E+00  0.98856440690E+03  0.98856440690E+03  0.00000000000E+00 0. -1.
         21   -1    0    0  501  502 -0.00000000000E+00 -0.00000000000E+00 -0.23810899479E+03  0.23810899479E+03  0.00000000000E+00 0. -1.
         25    1    1    2    0    0  0.37539217390E+03 -0.28695125319E+02  0.40118141292E+03  0.56419342474E+03  0.12500000000E+03 0.  0.
         25    1    1    2    0    0  0.26274712027E+02 -0.31822578760E+02  0.42490911129E+02  0.13832394782E+03  0.12500000000E+03 0.  0.
         25    1    1    2    0    0 -0.40166688593E+03  0.60517704079E+02  0.30678308806E+03  0.52415602914E+03  0.12500000000E+03 0.  0.
</event>
<event>
 5    0  0.5576108E-005  0.3201738E+03  0.7546771E-02  0.1075569E+00
         21   -1    0    0  502  501  0.00000000000E+00  0.00000000000E+00  0.48496733546E+03  0.48496733546E+03  0.00000000000E+00 0.  1.
         21   -1    0    0  501  502 -0.00000000000E+00 -0.00000000000E+00 -0.21137762772E+03  0.21137762772E+03  0.00000000000E+00 0.  1.
         25    1    1    2    0    0 -0.85755779841E+01  0.18055608872E+03  0.19335103402E+03  0.29271772080E+03  0.12500000000E+03 0.  0.
         25    1    1    2    0    0  0.35737541293E+02 -0.60304941659E+02 -0.81542838315E+02  0.16488812064E+03  0.12500000000E+03 0.  0.
         25    1    1    2    0    0 -0.27161963309E+02 -0.12025114706E+03  0.16178151203E+03  0.23873912175E+03  0.12500000000E+03 0.  0.
</event>
<event>
 5    0  0.5576108E-005  0.4178048E+03  0.7546771E-02  0.1037783E+00
         21   -1    0    0  502  501  0.00000000000E+00  0.00000000000E+00  0.19317262565E+03  0.19317262565E+03  0.00000000000E+00 0. -1.
         21   -1    0    0  501  502 -0.00000000000E+00 -0.00000000000E+00 -0.90365232657E+03  0.90365232657E+03  0.00000000000E+00 0. -1.
         25    1    1    2    0    0  0.30215560424E+03 -0.10899786388E+03 -0.35581966562E+03  0.49538992516E+03  0.12500000000E+03 0.  0.
         25    1    1    2    0    0 -0.29691505117E+02 -0.10338133341E+02 -0.21320741639E+03  0.24914025142E+03  0.12500000000E+03 0.  0.
         25    1    1    2    0    0 -0.27246409913E+03  0.11933599722E+03 -0.14145261891E+03  0.35229477564E+03  0.12500000000E+03 0.  0.
</event>
<event>
 5    0  0.5576108E-005  0.3312174E+03  0.7546771E-02  0.1070599E+00
         21   -1    0    0  502  501  0.00000000000E+00  0.00000000000E+00  0.47069939949E+02  0.47069939949E+02  0.00000000000E+00 0.  1.
         21   -1    0    0  501  502 -0.00000000000E+00 -0.00000000000E+00 -0.23306805650E+04  0.23306805650E+04  0.00000000000E+00 0.  1.
         25    1    1    2    0    0 -0.59467178233E+02  0.23269177400E+03 -0.14107839572E+04  0.14365299094E+04  0.12500000000E+03 0.  0.
         25    1    1    2    0    0  0.49046920202E+02 -0.87580938955E+02 -0.38564103594E+03  0.41763624107E+03  0.12500000000E+03 0.  0.
         25    1    1    2    0    0  0.10420258032E+02 -0.14511083505E+03 -0.48718563196E+03  0.52358435444E+03  0.12500000000E+03 0.  0.
</event>
<event>
 5    0  0.5576108E-005  0.3324521E+03  0.7546771E-02  0.1070057E+00
         21   -1    0    0  502  501  0.00000000000E+00  0.00000000000E+00  0.33174112541E+03  0.33174112541E+03  0.00000000000E+00 0. -1.
         21   -1    0    0  501  502 -0.00000000000E+00 -0.00000000000E+00 -0.33316467923E+03  0.33316467923E+03  0.00000000000E+00 0.  1.
         25    1    1    2    0    0  0.16340376709E+02  0.72941785252E+02 -0.19461835741E+02  0.14693969851E+03  0.12500000000E+03 0.  0.
         25    1    1    2    0    0 -0.22475961383E+03  0.18021536524E+02  0.18445578824E+02  0.25847030616E+03  0.12500000000E+03 0.  0.
         25    1    1    2    0    0  0.20841923712E+03 -0.90963321776E+02 -0.40729690895E+00  0.25949579997E+03  0.12500000000E+03 0.  0.
</event>
<event>
 5    0  0.5576108E-005  0.2858386E+03  0.7546771E-02  0.1092542E+00
         21   -1    0    0  502  501  0.00000000000E+00  0.00000000000E+00  0.11258881991E+04  0.11258881991E+04  0.00000000000E+00 0.  1.
         21   -1    0    0  501  502 -0.00000000000E+00 -0.00000000000E+00 -0.72568246350E+02  0.72568246350E+02  0.00000000000E+00 0.  1.
         25    1    1    2    0    0  0.16085065571E+03  0.88911125527E+02  0.62981956305E+03  0.66788906540E+03  0.12500000000E+03 0.  0.
         25    1    1    2    0    0 -0.46294155331E+02 -0.36355991817E+02  0.14484314772E+03  0.20017353571E+03  0.12500000000E+03 0.  0.
         25    1    1    2    0    0 -0.11455650038E+03 -0.52555133710E+02  0.27865724194E+03  0.33039384429E+03  0.12500000000E+03 0.  0.
</event>
<event>
 5    0  0.5576108E-005  0.3326299E+03  0.7546771E-02  0.1069979E+00
         21   -1    0    0  502  501  0.00000000000E+00  0.00000000000E+00  0.46036382860E+03  0.46036382860E+03  0.00000000000E+00 0.  1.
         21   -1    0    0  501  502 -0.00000000000E+00 -0.00000000000E+00 -0.24033748145E+03  0.24033748145E+03  0.00000000000E+00 0.  1.
         25    1    1    2    0    0 -0.48900362850E+02  0.10178313831E+03  0.76119808900E+02  0.18485204364E+03  0.12500000000E+03 0.  0.
         25    1    1    2    0    0  0.34310473129E+02  0.51380442712E+02 -0.12125185733E+03  0.18478141510E+03  0.12500000000E+03 0.  0.
         25    1    1    2    0    0  0.14589889721E+02 -0.15316358102E+03  0.26515839558E+03  0.33106785132E+03  0.12500000000E+03 0.  0.
</event>
<event>
 5    0  0.5576108E-005  0.2830164E+03  0.7546771E-02  0.1094053E+00
         21   -1    0    0  502  501  0.00000000000E+00  0.00000000000E+00  0.76845314733E+02  0.76845314733E+02  0.00000000000E+00 0.  1.
         21   -1    0    0  501  502 -0.00000000000E+00 -0.00000000000E+00 -0.10423315766E+04  0.10423315766E+04  0.00000000000E+00 0.  1.
         25    1    1    2    0    0 -0.75572449014E+02 -0.88479497195E+02 -0.28643533685E+03  0.33348166167E+03  0.12500000000E+03 0.  0.
         25    1    1    2    0    0 -0.88034647032E+02  0.31277562516E+02 -0.43049808522E+03  0.45791045672E+03  0.12500000000E+03 0.  0.
         25    1    1    2    0    0  0.16360709605E+03  0.57201934679E+02 -0.24855283983E+03  0.32778477297E+03  0.12500000000E+03 0.  0.
</event>
<event>
 5    0  0.5576108E-005  0.2989470E+03  0.7546771E-02  0.1085768E+00
         21   -1    0    0  502  501  0.00000000000E+00  0.00000000000E+00  0.67534172315E+03  0.67534172315E+03  0.00000000000E+00 0. -1.
         21   -1    0    0  501  502 -0.00000000000E+00 -0.00000000000E+00 -0.13233199059E+03  0.13233199059E+03  0.00000000000E+00 0. -1.
         25    1    1    2    0    0 -0.15165282212E+03  0.35644523742E+01  0.63086898036E+02  0.20643701335E+03  0.12500000000E+03 0.  0.
         25    1    1    2    0    0  0.19140563547E+03  0.17157414067E+02  0.29657410542E+03  0.37484889509E+03  0.12500000000E+03 0.  0.
         25    1    1    2    0    0 -0.39752813349E+02 -0.20721866442E+02  0.18334872911E+03  0.22638780529E+03  0.12500000000E+03 0.  0.
</event>
<event>
 5    0  0.5576108E-005  0.3486227E+03  0.7546771E-02  0.1063182E+00
         21   -1    0    0  502  501  0.00000000000E+00  0.00000000000E+00  0.10497704048E+04  0.10497704048E+04  0.00000000000E+00 0.  1.
         21   -1    0    0  501  502 -0.00000000000E+00 -0.00000000000E+00 -0.11577558744E+03  0.11577558744E+03  0.00000000000E+00 0.  1.
         25    1    1    2    0    0 -0.62648877701E+02 -0.67539848802E+02  0.41230474266E+03  0.44057543494E+03  0.12500000000E+03 0.  0.
         25    1    1    2    0    0  0.53009990577E+02  0.15192363959E+03  0.24382875760E+02  0.20520812849E+03  0.12500000000E+03 0.  0.
         25    1    1    2    0    0  0.96388871237E+01 -0.84383790784E+02  0.49730719891E+03  0.51976242879E+03  0.12500000000E+03 0.  0.
</event>
<event>
 5    0  0.6065138E-005  0.2509155E+03  0.7546771E-02  0.1112728E+00
         21   -1    0    0  502  501  0.00000000000E+00  0.00000000000E+00  0.58221783572E+03  0.58221783572E+03  0.00000000000E+00 0. -1.
         21   -1    0    0  501  502 -0.00000000000E+00 -0.00000000000E+00 -0.10813575812E+03  0.10813575812E+03  0.00000000000E+00 0. -1.
         25    1    1    2    0    0 -0.43978317454E+02  0.52908345400E+02  0.16470017837E+03  0.21790946325E+03  0.12500000000E+03 0.  0.
         25    1    1    2    0    0  0.34636374214E+02 -0.13603029440E+03  0.95107717311E+02  0.21065231379E+03  0.12500000000E+03 0.  0.
         25    1    1    2    0    0  0.93419432403E+01  0.83121948996E+02  0.21427418192E+03  0.26179181680E+03  0.12500000000E+03 0.  0.
</event>
<event>
 5    0  0.5576108E-005  0.4913954E+03  0.7546771E-02  0.1016050E+00
         21   -1    0    0  502  501  0.00000000000E+00  0.00000000000E+00  0.69585706891E+03  0.69585706891E+03  0.00000000000E+00 0. -1.
         21   -1    0    0  501  502 -0.00000000000E+00 -0.00000000000E+00 -0.34701005182E+03  0.34701005182E+03  0.00000000000E+00 0. -1.
         25    1    1    2    0    0 -0.23641643871E+03 -0.22418337809E+03 -0.46573576519E+02  0.35205825872E+03  0.12500000000E+03 0.  0.
         25    1    1    2    0    0  0.58249452764E+02  0.19243296461E+03 -0.18081541446E+01  0.23675243196E+03  0.12500000000E+03 0.  0.
         25    1    1    2    0    0  0.17816698594E+03  0.31750413479E+02  0.39722874775E+03  0.45405643006E+03  0.12500000000E+03 0.  0.
</event>
<event>
 5    0  0.5576108E-005  0.4549812E+03  0.7546771E-02  0.1026247E+00
         21   -1    0    0  502  501  0.00000000000E+00  0.00000000000E+00  0.30854853146E+03  0.30854853146E+03  0.00000000000E+00 0.  1.
         21   -1    0    0  501  502 -0.00000000000E+00 -0.00000000000E+00 -0.67090871271E+03  0.67090871271E+03  0.00000000000E+00 0.  1.
         25    1    1    2    0    0 -0.19756007367E+02  0.12309915895E+03  0.95332126137E+02  0.20064126454E+03  0.12500000000E+03 0.  0.
         25    1    1    2    0    0 -0.38380902880E+02  0.22151821861E+03 -0.21599016633E+03  0.33588713407E+03  0.12500000000E+03 0.  0.
         25    1    1    2    0    0  0.58136910247E+02 -0.34461737756E+03 -0.24170214106E+03  0.44292884557E+03  0.12500000000E+03 0.  0.
</event>
<event>
 5    0  0.5576108E-005  0.4116513E+03  0.7546771E-02  0.1039818E+00
         21   -1    0    0  502  501  0.00000000000E+00  0.00000000000E+00  0.11554661459E+04  0.11554661459E+04  0.00000000000E+00 0. -1.
         21   -1    0    0  501  502 -0.00000000000E+00 -0.00000000000E+00 -0.14665662294E+03  0.14665662294E+03  0.00000000000E+00 0. -1.
         25    1    1    2    0    0  0.75558018582E+02 -0.16281799323E+03  0.38627242421E+03  0.44390325387E+03  0.12500000000E+03 0.  0.
         25    1    1    2    0    0  0.14066097211E+03 -0.72727570510E+02  0.40313061873E+03  0.45079275099E+03  0.12500000000E+03 0.  0.
         25    1    1    2    0    0 -0.21621899070E+03  0.23554556374E+03  0.21940648006E+03  0.40742676401E+03  0.12500000000E+03 0.  0.
</event>
<event>
 5    0  0.5576108E-005  0.2236879E+03  0.7546771E-02  0.1131163E+00
         21   -1    0    0  502  501  0.00000000000E+00  0.00000000000E+00  0.24113517938E+03  0.24113517938E+03  0.00000000000E+00 0. -1.
         21   -1    0    0  501  502 -0.00000000000E+00 -0.00000000000E+00 -0.20750299528E+03  0.20750299528E+03  0.00000000000E+00 0. -1.
         25    1    1    2    0    0 -0.43649401995E+02 -0.14462190777E+02 -0.12757181431E+02  0.13379899452E+03  0.12500000000E+03 0.  0.
         25    1    1    2    0    0  0.89496367462E+02 -0.80103243061E+01 -0.34055934023E+02  0.15766601323E+03  0.12500000000E+03 0.  0.
         25    1    1    2    0    0 -0.45846965466E+02  0.22472515083E+02  0.80445299559E+02  0.15717316691E+03  0.12500000000E+03 0.  0.
</event>
<event>
 5    0  0.5576108E-005  0.2713584E+03  0.7546771E-02  0.1100505E+00
         21   -1    0    0  502  501  0.00000000000E+00  0.00000000000E+00  0.23160709139E+03  0.23160709139E+03  0.00000000000E+00 0.  1.
         21   -1    0    0  501  502 -0.00000000000E+00 -0.00000000000E+00 -0.31793230808E+03  0.31793230808E+03  0.00000000000E+00 0.  1.
         25    1    1    2    0    0  0.61111112542E+02  0.25155033522E+02  0.11770246828E+03  0.18397340794E+03  0.12500000000E+03 0.  0.
         25    1    1    2    0    0  0.16491760735E+02 -0.76530179441E+02 -0.99217945064E+02  0.17775839547E+03  0.12500000000E+03 0.  0.
         25    1    1    2    0    0 -0.77602873278E+02  0.51375145919E+02 -0.10480973990E+03  0.18780759606E+03  0.12500000000E+03 0.  0.
</event>
<event>
 5    0  0.6048583E-005  0.5623824E+03  0.7546771E-02  0.9986678E-01
         21   -1    0    0  502  501  0.00000000000E+00  0.00000000000E+00  0.54580600724E+03  0.54580600724E+03  0.00000000000E+00 0. -1.
         21   -1    0    0  501  502 -0.00000000000E+00 -0.00000000000E+00 -0.57946226059E+03  0.57946226059E+03  0.00000000000E+00 0. -1.
         25    1    1    2    0    0  0.24924915882E+03 -0.27904175590E+03  0.14269064850E+03  0.41949382102E+03  0.12500000000E+03 0.  0.
         25    1    1    2    0    0  0.84760165045E+02  0.27091355385E+03 -0.15919833577E+03  0.34863670109E+03  0.12500000000E+03 0.  0.
         25    1    1    2    0    0 -0.33400932386E+03  0.81282020527E+01 -0.17148566072E+02  0.35713774571E+03  0.12500000000E+03 0.  0.
</event>
<event>
 5    0  0.6312360E-005  0.2914926E+03  0.7546771E-02  0.1089572E+00
         21   -1    0    0  502  501  0.00000000000E+00  0.00000000000E+00  0.16565664928E+03  0.16565664928E+03  0.00000000000E+00 0. -1.
         21   -1    0    0  501  502 -0.00000000000E+00 -0.00000000000E+00 -0.51291577706E+03  0.51291577706E+03  0.00000000000E+00 0. -1.
         25    1    1    2    0    0  0.10473715269E+03  0.16584619102E+03 -0.77124977343E+02  0.24504712273E+03  0.12500000000E+03 0.  0.
         25    1    1    2    0    0 -0.11812063676E+02 -0.74267914065E+02 -0.17974976194E+03  0.23149562593E+03  0.12500000000E+03 0.  0.
         25    1    1    2    0    0 -0.92925089017E+02 -0.91578276954E+02 -0.90384388494E+02  0.20202967768E+03  0.12500000000E+03 0.  0.
</event>
<event>
 5    0  0.6527046E-005  0.3400253E+03  0.7546771E-02  0.1066785E+00
         21   -1    0    0  502  501  0.00000000000E+00  0.00000000000E+00  0.36081508744E+03  0.36081508744E+03  0.00000000000E+00 0.  1.
         21   -1    0    0  501  502 -0.00000000000E+00 -0.00000000000E+00 -0.32043334935E+03  0.32043334935E+03  0.00000000000E+00 0.  1.
         25    1    1    2    0    0  0.15117432046E+03  0.31739951412E+02  0.13732939616E+02  0.19918507302E+03  0.12500000000E+03 0.  0.
         25    1    1    2    0    0 -0.17480389719E+03 -0.10202152008E+03  0.15848096566E+03  0.28584263067E+03  0.12500000000E+03 0.  0.
         25    1    1    2    0    0  0.23629576728E+02  0.70281568671E+02 -0.13183216719E+03  0.19622073309E+03  0.12500000000E+03 0.  0.
</event>
<event>
 5    0  0.5576108E-005  0.3400313E+03  0.7546771E-02  0.1066783E+00
         21   -1    0    0  502  501  0.00000000000E+00  0.00000000000E+00  0.27654848081E+03  0.27654848081E+03  0.00000000000E+00 0.  1.
         21   -1    0    0  501  502 -0.00000000000E+00 -0.00000000000E+00 -0.41808684212E+03  0.41808684212E+03  0.00000000000E+00 0.  1.
         25    1    1    2    0    0  0.18223682338E+02 -0.14719895510E+03 -0.18842637497E+03  0.27042398889E+03  0.12500000000E+03 0.  0.
         25    1    1    2    0    0 -0.78449553210E+02  0.19164355421E+03  0.10964674465E+03  0.26557295209E+03  0.12500000000E+03 0.  0.
         25    1    1    2    0    0  0.60225870871E+02 -0.44444599105E+02 -0.62758730996E+02  0.15863838195E+03  0.12500000000E+03 0.  0.
</event>
<event>
 5    0  0.6421212E-005  0.2681780E+03  0.7546771E-02  0.1102327E+00
         21   -1    0    0  502  501  0.00000000000E+00  0.00000000000E+00  0.36420434692E+03  0.36420434692E+03  0.00000000000E+00 0. -1.
         21   -1    0    0  501  502 -0.00000000000E+00 -0.00000000000E+00 -0.19746998185E+03  0.19746998185E+03  0.00000000000E+00 0. -1.
         25    1    1    2    0    0  0.90385464383E+02  0.92031027753E+00  0.10748015196E+03  0.18800894183E+03  0.12500000000E+03 0.  0.
         25    1    1    2    0    0 -0.10744846276E+03 -0.11259900240E+03  0.19658180199E+02  0.20058701738E+03  0.12500000000E+03 0.  0.
         25    1    1    2    0    0  0.17062998376E+02  0.11167869213E+03  0.39596032910E+02  0.17307836956E+03  0.12500000000E+03 0.  0.
</event>
<event>
 5    0  0.5576108E-005  0.3519101E+03  0.7546771E-02  0.1061834E+00
         21   -1    0    0  502  501  0.00000000000E+00  0.00000000000E+00  0.21479172797E+03  0.21479172797E+03  0.00000000000E+00 0. -1.
         21   -1    0    0  501  502 -0.00000000000E+00 -0.00000000000E+00 -0.57656185308E+03  0.57656185308E+03  0.00000000000E+00 0. -1.
         25    1    1    2    0    0 -0.33424315077E+02 -0.65834395913E+02  0.47213774352E+01  0.14525372260E+03  0.12500000000E+03 0.  0.
         25    1    1    2    0    0  0.24197653765E+03  0.71326640927E+02 -0.14288803712E+03  0.31572476246E+03  0.12500000000E+03 0.  0.
         25    1    1    2    0    0 -0.20855222258E+03 -0.54922450139E+01 -0.22360346543E+03  0.33037509598E+03  0.12500000000E+03 0.  0.
</event>
<event>
 5    0  0.5576108E-005  0.3987590E+03  0.7546771E-02  0.1044210E+00
         21   -1    0    0  502  501  0.00000000000E+00  0.00000000000E+00  0.27352901543E+03  0.27352901543E+03  0.00000000000E+00 0.  1.
         21   -1    0    0  501  502 -0.00000000000E+00 -0.00000000000E+00 -0.58132301508E+03  0.58132301508E+03  0.00000000000E+00 0.  1.
         25    1    1    2    0    0 -0.13374498594E+03  0.10386821504E+03 -0.49746889331E+02  0.21627778517E+03  0.12500000000E+03 0.  0.
         25    1    1    2    0    0  0.43139835637E+02  0.15159394513E+02  0.14134285409E+03  0.19414853865E+03  0.12500000000E+03 0.  0.
         25    1    1    2    0    0  0.90605150307E+02 -0.11902760955E+03 -0.39938996440E+03  0.44442570668E+03  0.12500000000E+03 0.  0.
</event>
<event>
 5    0  0.5576108E-005  0.2695037E+03  0.7546771E-02  0.1101564E+00
         21   -1    0    0  502  501  0.00000000000E+00  0.00000000000E+00  0.10847263130E+03  0.10847263130E+03  0.00000000000E+00 0.  1.
         21   -1    0    0  501  502 -0.00000000000E+00 -0.00000000000E+00 -0.66959048400E+03  0.66959048400E+03  0.00000000000E+00 0.  1.
         25    1    1    2    0    0  0.15718578454E+03 -0.22450526221E+02 -0.14378398013E+03  0.24801256003E+03  0.12500000000E+03 0.  0.
         25    1    1    2    0    0 -0.12168585003E+03  0.12133683316E+02 -0.32900379345E+03  0.37258981263E+03  0.12500000000E+03 0.  0.
         25    1    1    2    0    0 -0.35499934504E+02  0.10316842905E+02 -0.88330079116E+02  0.15746074264E+03  0.12500000000E+03 0.  0.
</event>
<event>
 5    0  0.5576108E-005  0.2609177E+03  0.7546771E-02  0.1106593E+00
         21   -1    0    0  502  501  0.00000000000E+00  0.00000000000E+00  0.93914788049E+02  0.93914788049E+02  0.00000000000E+00 0. -1.
         21   -1    0    0  501  502 -0.00000000000E+00 -0.00000000000E+00 -0.72489174211E+03  0.72489174211E+03  0.00000000000E+00 0. -1.
         25    1    1    2    0    0  0.93372918302E+02  0.31259106874E+02 -0.23870616420E+03  0.28688197305E+03  0.12500000000E+03 0.  0.
         25    1    1    2    0    0  0.54304461097E+02 -0.76318482113E+00 -0.66121378146E+02  0.15148133084E+03  0.12500000000E+03 0.  0.
         25    1    1    2    0    0 -0.14767737940E+03 -0.30495922053E+02 -0.32614941172E+03  0.38044322627E+03  0.12500000000E+03 0.  0.
</event>
<event>
 5    0  0.5576108E-005  0.4373343E+03  0.7546771E-02  0.1031568E+00
         21   -1    0    0  502  501  0.00000000000E+00  0.00000000000E+00  0.83290034507E+03  0.83290034507E+03  0.00000000000E+00 0. -1.
         21   -1    0    0  501  502 -0.00000000000E+00 -0.00000000000E+00 -0.22963291006E+03  0.22963291006E+03  0.00000000000E+00 0. -1.
         25    1    1    2    0    0 -0.12813559481E+02 -0.17384360867E+03  0.52593147029E+03  0.56799181247E+03  0.12500000000E+03 0.  0.
         25    1    1    2    0    0 -0.13914413845E+03  0.19509322286E+03  0.11388430445E+03  0.29328670558E+03  0.12500000000E+03 0.  0.
         25    1    1    2    0    0  0.15195769793E+03 -0.21249614188E+02 -0.36548339735E+02  0.20125473709E+03  0.12500000000E+03 0.  0.
</event>
<event>
 5    0  0.5576108E-005  0.5289614E+03  0.7546771E-02  0.1006484E+00
         21   -1    0    0  502  501  0.00000000000E+00  0.00000000000E+00  0.31336878518E+03  0.31336878518E+03  0.00000000000E+00 0.  1.
         21   -1    0    0  501  502 -0.00000000000E+00 -0.00000000000E+00 -0.89287809763E+03  0.89287809763E+03  0.00000000000E+00 0.  1.
         25    1    1    2    0    0 -0.25059826949E+03 -0.10131045929E+03 -0.36173855695E+03  0.46855425024E+03  0.12500000000E+03 0.  0.
         25    1    1    2    0    0  0.41472252901E+03  0.84321318850E+02 -0.56688037696E+01  0.44131847482E+03  0.12500000000E+03 0.  0.
         25    1    1    2    0    0 -0.16412425952E+03  0.16989140445E+02 -0.21210195173E+03  0.29637415775E+03  0.12500000000E+03 0.  0.
</event>
<event>
 5    0  0.5661818E-005  0.2951493E+03  0.7546771E-02  0.1087691E+00
         21   -1    0    0  502  501  0.00000000000E+00  0.00000000000E+00  0.57300885859E+03  0.57300885859E+03  0.00000000000E+00 0. -1.
         21   -1    0    0  501  502 -0.00000000000E+00 -0.00000000000E+00 -0.15202753863E+03  0.15202753863E+03  0.00000000000E+00 0. -1.
         25    1    1    2    0    0 -0.95438961307E+02 -0.67673180637E+02  0.20845924784E+03  0.26975639514E+03  0.12500000000E+03 0.  0.
         25    1    1    2    0    0  0.82128115458E+02 -0.10037689604E+03  0.42215481857E+02  0.18500728503E+03  0.12500000000E+03 0.  0.
         25    1    1    2    0    0  0.13310845849E+02  0.16805007667E+03  0.17030659027E+03  0.27027271704E+03  0.12500000000E+03 0.  0.
</event>
<event>
 5    0  0.5741930E-005  0.2902061E+03  0.7546771E-02  0.1090242E+00
         21   -1    0    0  502  501  0.00000000000E+00  0.00000000000E+00  0.49042811337E+03  0.49042811337E+03  0.00000000000E+00 0. -1.
         21   -1    0    0  501  502 -0.00000000000E+00 -0.00000000000E+00 -0.17172662965E+03  0.17172662965E+03  0.00000000000E+00 0.  1.
         25    1    1    2    0    0 -0.72570533790E+01 -0.16091587450E+03  0.59212667887E+00  0.20389196675E+03  0.12500000000E+03 0.  0.
         25    1    1    2    0    0 -0.34600929852E+02  0.14503984830E+03  0.16087210867E+03  0.25246508133E+03  0.12500000000E+03 0.  0.
         25    1    1    2    0    0  0.41857983231E+02  0.15876026197E+02  0.15723724837E+03  0.20579769494E+03  0.12500000000E+03 0.  0.
</event>
<event>
 5    0  0.5576108E-005  0.2253852E+03  0.7546771E-02  0.1129931E+00
         21   -1    0    0  502  501  0.00000000000E+00  0.00000000000E+00  0.47659513956E+02  0.47659513956E+02  0.00000000000E+00 0.  1.
         21   -1    0    0  501  502 -0.00000000000E+00 -0.00000000000E+00 -0.10658626633E+04  0.10658626633E+04  0.00000000000E+00 0.  1.
         25    1    1    2    0    0 -0.81438543662E+02 -0.68335474952E+02 -0.33541400032E+03  0.37340263141E+03  0.12500000000E+03 0.  0.
         25    1    1    2    0    0  0.15539095504E+02  0.13852771716E+02 -0.22897490218E+03  0.26170186970E+03  0.12500000000E+03 0.  0.
         25    1    1    2    0    0  0.65899448158E+02  0.54482703236E+02 -0.45381424686E+03  0.47841767617E+03  0.12500000000E+03 0.  0.
</event>
<event>
 5    0  0.5576108E-005  0.2792207E+03  0.7546771E-02  0.1096115E+00
         21   -1    0    0  502  501  0.00000000000E+00  0.00000000000E+00  0.16237779197E+03  0.16237779197E+03  0.00000000000E+00 0. -1.
         21   -1    0    0  501  502 -0.00000000000E+00 -0.00000000000E+00 -0.48014076815E+03  0.48014076815E+03  0.00000000000E+00 0. -1.
         25    1    1    2    0    0  0.63008377756E+02 -0.31315828812E+02  0.43548451638E+02  0.14990731951E+03  0.12500000000E+03 0.  0.
         25    1    1    2    0    0  0.13929910498E+02  0.24254299087E+02 -0.31255479191E+03  0.33778367541E+03  0.12500000000E+03 0.  0.
         25    1    1    2    0    0 -0.76938288254E+02  0.70615297249E+01 -0.48756635915E+02  0.15482756520E+03  0.12500000000E+03 0.  0.
</event>
<event>
 5    0  0.5576108E-005  0.3107383E+03  0.7546771E-02  0.1079993E+00
         21   -1    0    0  502  501  0.00000000000E+00  0.00000000000E+00  0.77619706360E+02  0.77619706360E+02  0.00000000000E+00 0. -1.
         21   -1    0    0  501  502 -0.00000000000E+00 -0.00000000000E+00 -0.12439917133E+04  0.12439917133E+04  0.00000000000E+00 0. -1.
         25    1    1    2    0    0  0.25076673536E+02 -0.63079152476E+02 -0.71290654758E+03  0.72695843390E+03  0.12500000000E+03 0.  0.
         25    1    1    2    0    0  0.12801023595E+03  0.63020596191E+01 -0.20780215956E+03  0.27428648159E+03  0.12500000000E+03 0.  0.
         25    1    1    2    0    0 -0.15308690948E+03  0.56777092857E+02 -0.24566329978E+03  0.32036650416E+03  0.12500000000E+03 0.  0.
</event>
<event>
 5    0  0.5576108E-005  0.3515012E+03  0.7546771E-02  0.1062001E+00
         21   -1    0    0  502  501  0.00000000000E+00  0.00000000000E+00  0.15710335500E+04  0.15710335500E+04  0.00000000000E+00 0. -1.
         21   -1    0    0  501  502 -0.00000000000E+00 -0.00000000000E+00 -0.78644463631E+02  0.78644463631E+02  0.00000000000E+00 0. -1.
         25    1    1    2    0    0  0.12491601793E+03 -0.22938429368E+01  0.38776938469E+03  0.42614477464E+03  0.12500000000E+03 0.  0.
         25    1    1    2    0    0 -0.70400407548E+02  0.20298360724E+03  0.33884528653E+03  0.42023765942E+03  0.12500000000E+03 0.  0.
         25    1    1    2    0    0 -0.54515610381E+02 -0.20068976430E+03  0.76577441519E+03  0.80329557961E+03  0.12500000000E+03 0.  0.
</event>
<event>
 5    0  0.5576108E-005  0.3852001E+03  0.7546771E-02  0.1049028E+00
         21   -1    0    0  502  501  0.00000000000E+00  0.00000000000E+00  0.66333847819E+03  0.66333847819E+03  0.00000000000E+00 0.  1.
         21   -1    0    0  501  502 -0.00000000000E+00 -0.00000000000E+00 -0.22368535384E+03  0.22368535384E+03  0.00000000000E+00 0.  1.
         25    1    1    2    0    0  0.22819452223E+03 -0.22420077593E+03  0.15493092350E+03  0.37678550790E+03  0.12500000000E+03 0.  0.
         25    1    1    2    0    0 -0.40564778059E+02  0.60191919364E+02  0.10148408773E+03  0.17661423623E+03  0.12500000000E+03 0.  0.
         25    1    1    2    0    0 -0.18762974417E+03  0.16400885656E+03  0.18323811313E+03  0.33362408791E+03  0.12500000000E+03 0.  0.
</event>
<event>
 5    0  0.5576108E-005  0.3065428E+03  0.7546771E-02  0.1082015E+00
         21   -1    0    0  502  501  0.00000000000E+00  0.00000000000E+00  0.34602774409E+02  0.34602774409E+02  0.00000000000E+00 0.  1.
         21   -1    0    0  501  502 -0.00000000000E+00 -0.00000000000E+00 -0.27156347151E+04  0.27156347151E+04  0.00000000000E+00 0.  1.
         25    1    1    2    0    0  0.86980590145E+02 -0.54832035192E+02 -0.60225238068E+03  0.62362256629E+03  0.12500000000E+03 0.  0.
         25    1    1    2    0    0 -0.20255621415E+03  0.11948038647E+03 -0.12548768811E+04  0.12828271782E+04  0.12500000000E+03 0.  0.
         25    1    1    2    0    0  0.11557562400E+03 -0.64648351281E+02 -0.82390267898E+03  0.84378774501E+03  0.12500000000E+03 0.  0.
</event>
<event>
 5    0  0.5576108E-005  0.3121590E+03  0.7546771E-02  0.1079316E+00
         21   -1    0    0  502  501  0.00000000000E+00  0.00000000000E+00  0.22993709431E+03  0.22993709431E+03  0.00000000000E+00 0. -1.
         21   -1    0    0  501  502 -0.00000000000E+00 -0.00000000000E+00 -0.42378229720E+03  0.42378229720E+03  0.00000000000E+00 0. -1.
         25    1    1    2    0    0 -0.10617344424E+03  0.59052223293E+02 -0.62933756399E+02  0.18532572146E+03  0.12500000000E+03 0.  0.
         25    1    1    2    0    0  0.15878736298E+03 -0.12589279233E+03  0.38653423342E+02  0.24120843463E+03  0.12500000000E+03 0.  0.
         25    1    1    2    0    0 -0.52613918737E+02  0.66840569036E+02 -0.16956486983E+03  0.22718523542E+03  0.12500000000E+03 0.  0.
</event>
<event>
 5    0  0.5576108E-005  0.2327233E+03  0.7546771E-02  0.1124738E+00
         21   -1    0    0  502  501  0.00000000000E+00  0.00000000000E+00  0.25651873472E+03  0.25651873472E+03  0.00000000000E+00 0. -1.
         21   -1    0    0  501  502 -0.00000000000E+00 -0.00000000000E+00 -0.21113518478E+03  0.21113518478E+03  0.00000000000E+00 0. -1.
         25    1    1    2    0    0  0.85899105886E+01  0.59063195569E+02 -0.25581658865E+02  0.14086045898E+03  0.12500000000E+03 0.  0.
         25    1    1    2    0    0  0.87041065175E+01 -0.94204173550E+02  0.10835730271E+03  0.19056886638E+03  0.12500000000E+03 0.  0.
         25    1    1    2    0    0 -0.17294017106E+02  0.35140977980E+02 -0.37392093907E+02  0.13622459414E+03  0.12500000000E+03 0.  0.
</event>
<event>
 5    0  0.5576108E-005  0.2870492E+03  0.7546771E-02  0.1091900E+00
         21   -1    0    0  502  501  0.00000000000E+00  0.00000000000E+00  0.17181173271E+03  0.17181173271E+03  0.00000000000E+00 0.  1.
         21   -1    0    0  501  502 -0.00000000000E+00 -0.00000000000E+00 -0.47957870673E+03  0.47957870673E+03  0.00000000000E+00 0.  1.
         25    1    1    2    0    0  0.98849576965E+02 -0.33646247929E+02 -0.11342602212E+02  0.16326960370E+03  0.12500000000E+03 0.  0.
         25    1    1    2    0    0 -0.39344720276E+02  0.15184459034E+03 -0.11541893385E+03  0.23141157473E+03  0.12500000000E+03 0.  0.
         25    1    1    2    0    0 -0.59504856689E+02 -0.11819834241E+03 -0.18100543796E+03  0.25670926101E+03  0.12500000000E+03 0.  0.
</event>
<event>
 5    0  0.5576108E-005  0.2304616E+03  0.7546771E-02  0.1126315E+00
         21   -1    0    0  502  501  0.00000000000E+00  0.00000000000E+00  0.16507047181E+04  0.16507047181E+04  0.00000000000E+00 0.  1.
         21   -1    0    0  501  502 -0.00000000000E+00 -0.00000000000E+00 -0.32175686631E+02  0.32175686631E+02  0.00000000000E+00 0.  1.
         25    1    1    2    0    0 -0.10776863033E+01  0.35755016908E+02  0.20906108903E+03  0.24619326064E+03  0.12500000000E+03 0.  0.
         25    1    1    2    0    0 -0.31158326995E+02  0.13341071135E+02  0.88106028018E+03  0.89052851882E+03  0.12500000000E+03 0.  0.
         25    1    1    2    0    0  0.32236013298E+02 -0.49096088043E+02  0.52840766222E+03  0.54615862522E+03  0.12500000000E+03 0.  0.
</event>
<event>
 5    0  0.5576108E-005  0.2516511E+03  0.7546771E-02  0.1112266E+00
         21   -1    0    0  502  501  0.00000000000E+00  0.00000000000E+00  0.52676846267E+03  0.52676846267E+03  0.00000000000E+00 0.  1.
         21   -1    0    0  501  502 -0.00000000000E+00 -0.00000000000E+00 -0.12022033727E+03  0.12022033727E+03  0.00000000000E+00 0.  1.
         25    1    1    2    0    0  0.88364085293E+02  0.12497846188E+02  0.12696132646E+03  0.19927013360E+03  0.12500000000E+03 0.  0.
         25    1    1    2    0    0 -0.29923922088E+02  0.35669821896E+02  0.27012058161E+03  0.30126052831E+03  0.12500000000E+03 0.  0.
         25    1    1    2    0    0 -0.58440163205E+02 -0.48167668084E+02  0.94662173241E+01  0.14645813803E+03  0.12500000000E+03 0.  0.
</event>
<event>
 5    0  0.5576108E-005  0.3383132E+03  0.7546771E-02  0.1067517E+00
         21   -1    0    0  502  501  0.00000000000E+00  0.00000000000E+00  0.17749985513E+04  0.17749985513E+04  0.00000000000E+00 0. -1.
         21   -1    0    0  501  502 -0.00000000000E+00 -0.00000000000E+00 -0.64482213745E+02  0.64482213745E+02  0.00000000000E+00 0. -1.
         25    1    1    2    0    0  0.23884447465E+03 -0.41292475907E+02  0.56183760777E+03  0.62453042291E+03  0.12500000000E+03 0.  0.
         25    1    1    2    0    0 -0.19077487858E+03  0.10022406701E+03  0.74752086622E+03  0.78794185276E+03  0.12500000000E+03 0.  0.
         25    1    1    2    0    0 -0.48069596066E+02 -0.58931591099E+02  0.40115786360E+03  0.42700848941E+03  0.12500000000E+03 0.  0.
</event>
<event>
 5    0  0.5576108E-005  0.3588871E+03  0.7546771E-02  0.1059025E+00
         21   -1    0    0  502  501  0.00000000000E+00  0.00000000000E+00  0.34652511909E+03  0.34652511909E+03  0.00000000000E+00 0.  1.
         21   -1    0    0  501  502 -0.00000000000E+00 -0.00000000000E+00 -0.37169018498E+03  0.37169018498E+03  0.00000000000E+00 0.  1.
         25    1    1    2    0    0  0.20070394987E+03  0.14396776928E+03 -0.60762186451E+02  0.28341813172E+03  0.12500000000E+03 0.  0.
         25    1    1    2    0    0 -0.40157386801E+02  0.89634119797E+01 -0.81317768053E+02  0.15469498334E+03  0.12500000000E+03 0.  0.
         25    1    1    2    0    0 -0.16054656306E+03 -0.15293118126E+03  0.11691488861E+03  0.28010218902E+03  0.12500000000E+03 0.  0.
</event>
<event>
 5    0  0.5576108E-005  0.2122747E+03  0.7546771E-02  0.1139777E+00
         21   -1    0    0  502  501  0.00000000000E+00  0.00000000000E+00  0.50562944341E+03  0.50562944341E+03  0.00000000000E+00 0.  1.
         21   -1    0    0  501  502 -0.00000000000E+00 -0.00000000000E+00 -0.89117693300E+02  0.89117693300E+02  0.00000000000E+00 0.  1.
         25    1    1    2    0    0  0.13616772657E+02 -0.51678326516E+02  0.15948668354E+03  0.20956399537E+03  0.12500000000E+03 0.  0.
         25    1    1    2    0    0  0.21546450942E+02 -0.23491789619E+02  0.74730995192E+02  0.14908331687E+03  0.12500000000E+03 0.  0.
         25    1    1    2    0    0 -0.35163223599E+02  0.75170116135E+02  0.18229407138E+03  0.23609982447E+03  0.12500000000E+03 0.  0.
</event>
<event>
 5    0  0.5576108E-005  0.2355388E+03  0.7546771E-02  0.1122801E+00
         21   -1    0    0  502  501  0.00000000000E+00  0.00000000000E+00  0.43246460008E+02  0.43246460008E+02  0.00000000000E+00 0. -1.
         21   -1    0    0  501  502 -0.00000000000E+00 -0.00000000000E+00 -0.12828456993E+04  0.12828456993E+04  0.00000000000E+00 0. -1.
         25    1    1    2    0    0  0.97914964985E+02  0.52224243828E+02 -0.46906180561E+03  0.49795450544E+03  0.12500000000E+03 0.  0.
         25    1    1    2    0    0 -0.43821704702E+02 -0.92337700711E+02 -0.40997298637E+03  0.44062392391E+03  0.12500000000E+03 0.  0.
         25    1    1    2    0    0 -0.54093260283E+02  0.40113456883E+02 -0.36056444733E+03  0.38751372996E+03  0.12500000000E+03 0.  0.
</event>
<event>
 5    0  0.5576108E-005  0.3138648E+03  0.7546771E-02  0.1078508E+00
         21   -1    0    0  502  501  0.00000000000E+00  0.00000000000E+00  0.15594376314E+04  0.15594376314E+04  0.00000000000E+00 0. -1.
         21   -1    0    0  501  502 -0.00000000000E+00 -0.00000000000E+00 -0.63170930927E+02  0.63170930927E+02  0.00000000000E+00 0. -1.
         25    1    1    2    0    0  0.59341753397E+02 -0.80810888853E+02  0.98263459222E+02  0.18796954772E+03  0.12500000000E+03 0.  0.
         25    1    1    2    0    0  0.50863769937E+02  0.15587249423E+02  0.45672204936E+03  0.47649776055E+03  0.12500000000E+03 0.  0.
         25    1    1    2    0    0 -0.11020552333E+03  0.65223639430E+02  0.94128119194E+03  0.95814125410E+03  0.12500000000E+03 0.  0.
</event>
<event>
 5    0  0.5576108E-005  0.3931108E+03  0.7546771E-02  0.1046192E+00
         21   -1    0    0  502  501  0.00000000000E+00  0.00000000000E+00  0.17923701024E+03  0.17923701024E+03  0.00000000000E+00 0.  1.
         21   -1    0    0  501  502 -0.00000000000E+00 -0.00000000000E+00 -0.86218839453E+03  0.86218839453E+03  0.00000000000E+00 0.  1.
         25    1    1    2    0    0  0.17404822577E+03 -0.10222571054E+03 -0.11378464635E+03  0.26327709079E+03  0.12500000000E+03 0.  0.
         25    1    1    2    0    0 -0.25821385777E+03  0.83139558595E+02 -0.15395996850E+03  0.33602865123E+03  0.12500000000E+03 0.  0.
         25    1    1    2    0    0  0.84165631993E+02  0.19086151948E+02 -0.41520676944E+03  0.44211966276E+03  0.12500000000E+03 0.  0.
</event>
<event>
 5    0  0.5576108E-005  0.4081379E+03  0.7546771E-02  0.1040998E+00
         21   -1    0    0  502  501  0.00000000000E+00  0.00000000000E+00  0.31941325408E+03  0.31941325408E+03  0.00000000000E+00 0. -1.
         21   -1    0    0  501  502 -0.00000000000E+00 -0.00000000000E+00 -0.52150791934E+03  0.52150791934E+03  0.00000000000E+00 0. -1.
         25    1    1    2    0    0 -0.15239719561E+02 -0.80287536338E+02 -0.39329274542E+03  0.42069290599E+03  0.12500000000E+03 0.  0.
         25    1    1    2    0    0 -0.97656802749E+01 -0.88095396306E+02  0.12833235891E+03  0.19987586574E+03  0.12500000000E+03 0.  0.
         25    1    1    2    0    0  0.25005399836E+02  0.16838293264E+03  0.62865721253E+02  0.22035240170E+03  0.12500000000E+03 0.  0.
</event>
<event>
 5    0  0.5576108E-005  0.2472026E+03  0.7546771E-02  0.1115086E+00
         21   -1    0    0  502  501  0.00000000000E+00  0.00000000000E+00  0.75897217331E+03  0.75897217331E+03  0.00000000000E+00 0.  1.
         21   -1    0    0  501  502 -0.00000000000E+00 -0.00000000000E+00 -0.80515602402E+02  0.80515602402E+02  0.00000000000E+00 0.  1.
         25    1    1    2    0    0  0.24034625276E+01 -0.86295644712E+02  0.12619237414E+03  0.19748982308E+03  0.12500000000E+03 0.  0.
         25    1    1    2    0    0 -0.85645466546E+02  0.36793826016E+01  0.20735313953E+03  0.25684432692E+03  0.12500000000E+03 0.  0.
         25    1    1    2    0    0  0.83242004018E+02  0.82616262110E+02  0.34491105723E+03  0.38515362571E+03  0.12500000000E+03 0.  0.
</event>
<event>
 5    0  0.5576108E-005  0.2508749E+03  0.7546771E-02  0.1112753E+00
         21   -1    0    0  502  501  0.00000000000E+00  0.00000000000E+00  0.43252281809E+03  0.43252281809E+03  0.00000000000E+00 0. -1.
         21   -1    0    0  501  502 -0.00000000000E+00 -0.00000000000E+00 -0.14551420992E+03  0.14551420992E+03  0.00000000000E+00 0. -1.
         25    1    1    2    0    0  0.84978898310E+02 -0.80888047726E+02  0.15802069292E+03  0.23315194362E+03  0.12500000000E+03 0.  0.
         25    1    1    2    0    0 -0.90790018026E+02  0.70343174460E+02  0.13830447217E+03  0.21896145001E+03  0.12500000000E+03 0.  0.
         25    1    1    2    0    0  0.58111197160E+01  0.10544873266E+02 -0.93165569248E+01  0.12592363439E+03  0.12500000000E+03 0.  0.
</event>
<event>
 5    0  0.6053200E-005  0.4878881E+03  0.7546771E-02  0.1016990E+00
         21   -1    0    0  502  501  0.00000000000E+00  0.00000000000E+00  0.52179922200E+03  0.52179922200E+03  0.00000000000E+00 0. -1.
         21   -1    0    0  501  502 -0.00000000000E+00 -0.00000000000E+00 -0.45618081836E+03  0.45618081836E+03  0.00000000000E+00 0. -1.
         25    1    1    2    0    0  0.29207566528E+03 -0.16240180289E+03  0.74725537171E+02  0.36454278999E+03  0.12500000000E+03 0.  0.
         25    1    1    2    0    0 -0.19105756569E+03  0.10797065352E+03 -0.22541067257E+03  0.33851975827E+03  0.12500000000E+03 0.  0.
         25    1    1    2    0    0 -0.10101809959E+03  0.54431149368E+02  0.21630353903E+03  0.27491749210E+03  0.12500000000E+03 0.  0.
</event>
<event>
 5    0  0.5611176E-005  0.2940156E+03  0.7546771E-02  0.1088271E+00
         21   -1    0    0  502  501  0.00000000000E+00  0.00000000000E+00  0.10629359532E+04  0.10629359532E+04  0.00000000000E+00 0. -1.
         21   -1    0    0  501  502 -0.00000000000E+00 -0.00000000000E+00 -0.81326779858E+02  0.81326779858E+02  0.00000000000E+00 0. -1.
         25    1    1    2    0    0  0.68095960633E+02  0.32851598549E+02  0.64656288731E+03  0.66286111263E+03  0.12500000000E+03 0.  0.
         25    1    1    2    0    0  0.72402564173E+02  0.10314701280E+02  0.94045259767E+02  0.17267899480E+03  0.12500000000E+03 0.  0.
         25    1    1    2    0    0 -0.14049852481E+03 -0.43166299829E+02  0.24100102624E+03  0.30872262561E+03  0.12500000000E+03 0.  0.
</event>
<event>
 5    0  0.5576108E-005  0.3283186E+03  0.7546771E-02  0.1071883E+00
         21   -1    0    0  502  501  0.00000000000E+00  0.00000000000E+00  0.15317648679E+04  0.15317648679E+04  0.00000000000E+00 0. -1.
         21   -1    0    0  501  502 -0.00000000000E+00 -0.00000000000E+00 -0.70371824559E+02  0.70371824559E+02  0.00000000000E+00 0. -1.
         25    1    1    2    0    0  0.15338046155E+02 -0.83151183310E+02  0.21189873406E+03  0.26014505270E+03  0.12500000000E+03 0.  0.
         25    1    1    2    0    0  0.61379805959E+02  0.23627229995E+03  0.62635426449E+03  0.68376658660E+03  0.12500000000E+03 0.  0.
         25    1    1    2    0    0 -0.76717852114E+02 -0.15312111664E+03  0.62314004478E+03  0.65822505315E+03  0.12500000000E+03 0.  0.
</event>
<event>
 5    0  0.5576108E-005  0.3936722E+03  0.7546771E-02  0.1045993E+00
         21   -1    0    0  502  501  0.00000000000E+00  0.00000000000E+00  0.13037231664E+03  0.13037231664E+03  0.00000000000E+00 0. -1.
         21   -1    0    0  501  502 -0.00000000000E+00 -0.00000000000E+00 -0.11887325492E+04  0.11887325492E+04  0.00000000000E+00 0. -1.
         25    1    1    2    0    0  0.74571702920E+02  0.10056792269E+03 -0.77655686380E+01  0.17708797251E+03  0.12500000000E+03 0.  0.
         25    1    1    2    0    0  0.94241535643E+02  0.16130211923E+02 -0.69669238985E+03  0.71424571182E+03  0.12500000000E+03 0.  0.
         25    1    1    2    0    0 -0.16881323856E+03 -0.11669813461E+03 -0.35390227402E+03  0.42777118147E+03  0.12500000000E+03 0.  0.
</event>
<event>
 5    0  0.5576108E-005  0.2331955E+03  0.7546771E-02  0.1124411E+00
         21   -1    0    0  502  501  0.00000000000E+00  0.00000000000E+00  0.40143322870E+03  0.40143322870E+03  0.00000000000E+00 0. -1.
         21   -1    0    0  501  502 -0.00000000000E+00 -0.00000000000E+00 -0.13546502348E+03  0.13546502348E+03  0.00000000000E+00 0. -1.
         25    1    1    2    0    0  0.67649475621E+02 -0.24285866819E+02 -0.24693298697E+01  0.14421287206E+03  0.12500000000E+03 0.  0.
         25    1    1    2    0    0 -0.28723648799E+02  0.66232820687E+02  0.17308318879E+03  0.22537662873E+03  0.12500000000E+03 0.  0.
         25    1    1    2    0    0 -0.38925826822E+02 -0.41946953868E+02  0.95354346302E+02  0.16730875139E+03  0.12500000000E+03 0.  0.
</event>
<event>
 5    0  0.5576108E-005  0.2674272E+03  0.7546771E-02  0.1102761E+00
         21   -1    0    0  502  501  0.00000000000E+00  0.00000000000E+00  0.34158619833E+03  0.34158619833E+03  0.00000000000E+00 0.  1.
         21   -1    0    0  501  502 -0.00000000000E+00 -0.00000000000E+00 -0.20936823529E+03  0.20936823529E+03  0.00000000000E+00 0.  1.
         25    1    1    2    0    0  0.66173331185E+02  0.38365309114E+02 -0.99727141367E+02  0.17726056930E+03  0.12500000000E+03 0.  0.
         25    1    1    2    0    0  0.16498680414E+02  0.27859335640E+02  0.99648290570E+02  0.16310466226E+03  0.12500000000E+03 0.  0.
         25    1    1    2    0    0 -0.82672011599E+02 -0.66224644754E+02  0.13229681384E+03  0.21058920206E+03  0.12500000000E+03 0.  0.
</event>
<event>
 5    0  0.5576108E-005  0.2211118E+03  0.7546771E-02  0.1133057E+00
         21   -1    0    0  502  501  0.00000000000E+00  0.00000000000E+00  0.12688782064E+03  0.12688782064E+03  0.00000000000E+00 0. -1.
         21   -1    0    0  501  502 -0.00000000000E+00 -0.00000000000E+00 -0.38530427050E+03  0.38530427050E+03  0.00000000000E+00 0. -1.
         25    1    1    2    0    0 -0.32068929604E+01  0.86393004748E+02 -0.95561086836E+02  0.17952982134E+03  0.12500000000E+03 0.  0.
         25    1    1    2    0    0 -0.51756987590E+02 -0.33496710375E+02 -0.51086340871E+02  0.14844402849E+03  0.12500000000E+03 0.  0.
         25    1    1    2    0    0  0.54963880550E+02 -0.52896294373E+02 -0.11176902215E+03  0.18421824132E+03  0.12500000000E+03 0.  0.
</event>
<event>
 5    0  0.5576108E-005  0.3684791E+03  0.7546771E-02  0.1055276E+00
         21   -1    0    0  502  501  0.00000000000E+00  0.00000000000E+00  0.31978878177E+03  0.31978878177E+03  0.00000000000E+00 0.  1.
         21   -1    0    0  501  502 -0.00000000000E+00 -0.00000000000E+00 -0.42458290912E+03  0.42458290912E+03  0.00000000000E+00 0.  1.
         25    1    1    2    0    0  0.10140592830E+03 -0.97521746231E+02 -0.34886163351E+02  0.19140453933E+03  0.12500000000E+03 0.  0.
         25    1    1    2    0    0 -0.26552487452E+03  0.14829520173E+03 -0.86076841225E+02  0.33989579055E+03  0.12500000000E+03 0.  0.
         25    1    1    2    0    0  0.16411894621E+03 -0.50773455494E+02  0.16168877225E+02  0.21307136100E+03  0.12500000000E+03 0.  0.
</event>
<event>
 5    0  0.5576108E-005  0.2470141E+03  0.7546771E-02  0.1115207E+00
         21   -1    0    0  502  501  0.00000000000E+00  0.00000000000E+00  0.16988538019E+03  0.16988538019E+03  0.00000000000E+00 0.  1.
         21   -1    0    0  501  502 -0.00000000000E+00 -0.00000000000E+00 -0.35915958253E+03  0.35915958253E+03  0.00000000000E+00 0.  1.
         25    1    1    2    0    0  0.10533521895E+03  0.16930748289E+02  0.22817774846E+02  0.16591506694E+03  0.12500000000E+03 0.  0.
         25    1    1    2    0    0  0.38480531843E+00  0.41500068751E+00 -0.58633110498E+02  0.13806940989E+03  0.12500000000E+03 0.  0.
         25    1    1    2    0    0 -0.10572002427E+03 -0.17345748977E+02 -0.15345886669E+03  0.22506048588E+03  0.12500000000E+03 0.  0.
</event>
<event>
 5    0  0.5576108E-005  0.5094587E+03  0.7546771E-02  0.1011339E+00
         21   -1    0    0  502  501  0.00000000000E+00  0.00000000000E+00  0.10601502535E+03  0.10601502535E+03  0.00000000000E+00 0.  1.
         21   -1    0    0  501  502 -0.00000000000E+00 -0.00000000000E+00 -0.24482201820E+04  0.24482201820E+04  0.00000000000E+00 0.  1.
         25    1    1    2    0    0  0.10604266949E+03 -0.21415762420E+03 -0.84420622033E+03  0.88623793544E+03  0.12500000000E+03 0.  0.
         25    1    1    2    0    0 -0.20805130729E+03  0.29436895283E+03 -0.39052058823E+03  0.54595765100E+03  0.12500000000E+03 0.  0.
         25    1    1    2    0    0  0.10200863780E+03 -0.80211328629E+02 -0.11074783481E+04  0.11220396209E+04  0.12500000000E+03 0.  0.
</event>
<event>
 5    0  0.5576108E-005  0.2919749E+03  0.7546771E-02  0.1089323E+00
         21   -1    0    0  502  501  0.00000000000E+00  0.00000000000E+00  0.51637374465E+02  0.51637374465E+02  0.00000000000E+00 0.  1.
         21   -1    0    0  501  502 -0.00000000000E+00 -0.00000000000E+00 -0.16509234426E+04  0.16509234426E+04  0.00000000000E+00 0.  1.
         25    1    1    2    0    0  0.11094853098E+01  0.89655051850E+02 -0.53105031582E+03  0.55288217299E+03  0.12500000000E+03 0.  0.
         25    1    1    2    0    0 -0.10413761831E+03  0.53358772317E+02 -0.24736029359E+03  0.30083868930E+03  0.12500000000E+03 0.  0.
         25    1    1    2    0    0  0.10302813300E+03 -0.14301382417E+03 -0.82087545869E+03  0.84883995475E+03  0.12500000000E+03 0.  0.
</event>
<event>
 5    0  0.5576108E-005  0.3994951E+03  0.7546771E-02  0.1043955E+00
         21   -1    0    0  502  501  0.00000000000E+00  0.00000000000E+00  0.74914336212E+03  0.74914336212E+03  0.00000000000E+00 0.  1.
         21   -1    0    0  501  502 -0.00000000000E+00 -0.00000000000E+00 -0.21303843980E+03  0.21303843980E+03  0.00000000000E+00 0.  1.
         25    1    1    2    0    0 -0.58734927947E+02 -0.12865646429E+02  0.31329002264E+03  0.34262363448E+03  0.12500000000E+03 0.  0.
         25    1    1    2    0    0  0.27972048432E+03 -0.59564846680E+02  0.95177132267E+02  0.32630538889E+03  0.12500000000E+03 0.  0.
         25    1    1    2    0    0 -0.22098555638E+03  0.72430493109E+02  0.12763776742E+03  0.29325277856E+03  0.12500000000E+03 0.  0.
</event>
<event>
 5    0  0.5576108E-005  0.2925080E+03  0.7546771E-02  0.1089047E+00
         21   -1    0    0  502  501  0.00000000000E+00  0.00000000000E+00  0.36168282642E+03  0.36168282642E+03  0.00000000000E+00 0. -1.
         21   -1    0    0  501  502 -0.00000000000E+00 -0.00000000000E+00 -0.23656347929E+03  0.23656347929E+03  0.00000000000E+00 0. -1.
         25    1    1    2    0    0  0.61645884625E+02  0.14534006089E+03  0.37231552898E+01  0.20140211090E+03  0.12500000000E+03 0.  0.
         25    1    1    2    0    0 -0.14204827493E+03 -0.88147094065E+02  0.23862726503E+02  0.21010010071E+03  0.12500000000E+03 0.  0.
         25    1    1    2    0    0  0.80402390304E+02 -0.57192966824E+02  0.97533465336E+02  0.18674409410E+03  0.12500000000E+03 0.  0.
</event>
<event>
 5    0  0.5576108E-005  0.3403229E+03  0.7546771E-02  0.1066658E+00
         21   -1    0    0  502  501  0.00000000000E+00  0.00000000000E+00  0.39414079443E+03  0.39414079443E+03  0.00000000000E+00 0.  1.
         21   -1    0    0  501  502 -0.00000000000E+00 -0.00000000000E+00 -0.29385351779E+03  0.29385351779E+03  0.00000000000E+00 0.  1.
         25    1    1    2    0    0  0.77490805150E+02 -0.11271380057E+03  0.10102624875E+03  0.21104627137E+03  0.12500000000E+03 0.  0.
         25    1    1    2    0    0  0.95964861060E+02 -0.86192721391E+02  0.34194053775E+02  0.18284603658E+03  0.12500000000E+03 0.  0.
         25    1    1    2    0    0 -0.17345566621E+03  0.19890652196E+03 -0.34933025896E+02  0.29410200427E+03  0.12500000000E+03 0.  0.
</event>
<event>
 5    0  0.5576108E-005  0.2831811E+03  0.7546771E-02  0.1093964E+00
         21   -1    0    0  502  501  0.00000000000E+00  0.00000000000E+00  0.12254609576E+03  0.12254609576E+03  0.00000000000E+00 0.  1.
         21   -1    0    0  501  502 -0.00000000000E+00 -0.00000000000E+00 -0.65437852264E+03  0.65437852264E+03  0.00000000000E+00 0.  1.
         25    1    1    2    0    0 -0.28893747247E+02 -0.26737520301E+02  0.53054711859E+00  0.13105351999E+03  0.12500000000E+03 0.  0.
         25    1    1    2    0    0  0.10021459051E+01  0.12383109092E+03 -0.15040454096E+03  0.23147714642E+03  0.12500000000E+03 0.  0.
         25    1    1    2    0    0  0.27891601342E+02 -0.97093570617E+02 -0.38195843304E+03  0.41439395199E+03  0.12500000000E+03 0.  0.
</event>
<event>
 5    0  0.5582883E-005  0.2586420E+03  0.7546771E-02  0.1107962E+00
         21   -1    0    0  502  501  0.00000000000E+00  0.00000000000E+00  0.39056697638E+03  0.39056697638E+03  0.00000000000E+00 0.  1.
         21   -1    0    0  501  502 -0.00000000000E+00 -0.00000000000E+00 -0.17127843737E+03  0.17127843737E+03  0.00000000000E+00 0.  1.
         25    1    1    2    0    0  0.17913329171E+02  0.62473379394E+02  0.23184500744E+03  0.27129489116E+03  0.12500000000E+03 0.  0.
         25    1    1    2    0    0 -0.15204609056E+02 -0.97837552782E+02 -0.18171721642E+02  0.16049479225E+03  0.12500000000E+03 0.  0.
         25    1    1    2    0    0 -0.27087201147E+01  0.35364173389E+02  0.56152532039E+01  0.13005573033E+03  0.12500000000E+03 0.  0.
</event>
<event>
 5    0  0.5576108E-005  0.4029412E+03  0.7546771E-02  0.1042766E+00
         21   -1    0    0  502  501  0.00000000000E+00  0.00000000000E+00  0.22136245172E+04  0.22136245172E+04  0.00000000000E+00 0.  1.
         21   -1    0    0  501  502 -0.00000000000E+00 -0.00000000000E+00 -0.73346500293E+02  0.73346500293E+02  0.00000000000E+00 0.  1.
         25    1    1    2    0    0  0.15686506817E+03  0.95782495407E+02  0.32282157256E+03  0.39194349561E+03  0.12500000000E+03 0.  0.
         25    1    1    2    0    0 -0.17080829253E+03  0.99312188022E+02  0.13813153522E+04  0.14009623427E+04  0.12500000000E+03 0.  0.
         25    1    1    2    0    0  0.13943224364E+02 -0.19509468343E+03  0.43614109215E+03  0.49406517917E+03  0.12500000000E+03 0.  0.
</event>
<event>
 5    0  0.5576108E-005  0.3568285E+03  0.7546771E-02  0.1059847E+00
         21   -1    0    0  502  501  0.00000000000E+00  0.00000000000E+00  0.54334399245E+02  0.54334399245E+02  0.00000000000E+00 0. -1.
         21   -1    0    0  501  502 -0.00000000000E+00 -0.00000000000E+00 -0.23433881847E+04  0.23433881847E+04  0.00000000000E+00 0. -1.
         25    1    1    2    0    0  0.85407378886E+02 -0.10412342062E+03 -0.68906762168E+03  0.71314465176E+03  0.12500000000E+03 0.  0.
         25    1    1    2    0    0 -0.23728475404E+03  0.16430141278E+03 -0.10957935983E+04  0.11400384286E+04  0.12500000000E+03 0.  0.
         25    1    1    2    0    0  0.15187737515E+03 -0.60177992164E+02 -0.50419256554E+03  0.54453950359E+03  0.12500000000E+03 0.  0.
</event>
<event>
 5    0  0.5576108E-005  0.2697864E+03  0.7546771E-02  0.1101402E+00
         21   -1    0    0  502  501  0.00000000000E+00  0.00000000000E+00  0.17271539771E+04  0.17271539771E+04  0.00000000000E+00 0. -1.
         21   -1    0    0  501  502 -0.00000000000E+00 -0.00000000000E+00 -0.42141406853E+02  0.42141406853E+02  0.00000000000E+00 0. -1.
         25    1    1    2    0    0 -0.53499966084E+02 -0.98638266898E+01  0.30669446560E+03  0.33562782465E+03  0.12500000000E+03 0.  0.
         25    1    1    2    0    0  0.72488795310E+02  0.83809920040E+02  0.11522619590E+04  0.11643072405E+04  0.12500000000E+03 0.  0.
         25    1    1    2    0    0 -0.18988829226E+02 -0.73946093351E+02  0.22605614564E+03  0.26936031879E+03  0.12500000000E+03 0.  0.
</event>
<event>
 5    0  0.5576108E-005  0.2673117E+03  0.7546771E-02  0.1102828E+00
         21   -1    0    0  502  501  0.00000000000E+00  0.00000000000E+00  0.22799245138E+03  0.22799245138E+03  0.00000000000E+00 0.  1.
         21   -1    0    0  501  502 -0.00000000000E+00 -0.00000000000E+00 -0.31341198772E+03  0.31341198772E+03  0.00000000000E+00 0. -1.
         25    1    1    2    0    0  0.14084781552E+03 -0.92993494596E+02 -0.10219372462E+01  0.21002843029E+03  0.12500000000E+03 0.  0.
         25    1    1    2    0    0 -0.11216839423E+03  0.11266799459E+02 -0.47181311573E+02  0.17481351663E+03  0.12500000000E+03 0.  0.
         25    1    1    2    0    0 -0.28679421292E+02  0.81726695137E+02 -0.37216287524E+02  0.15656249219E+03  0.12500000000E+03 0.  0.
</event>
<event>
 5    0  0.5576108E-005  0.4627803E+03  0.7546771E-02  0.1023978E+00
         21   -1    0    0  502  501  0.00000000000E+00  0.00000000000E+00  0.30524808606E+03  0.30524808606E+03  0.00000000000E+00 0. -1.
         21   -1    0    0  501  502 -0.00000000000E+00 -0.00000000000E+00 -0.70161156196E+03  0.70161156196E+03  0.00000000000E+00 0. -1.
         25    1    1    2    0    0  0.74271666182E+02  0.29819123374E+02 -0.35047710435E+03  0.38061090525E+03  0.12500000000E+03 0.  0.
         25    1    1    2    0    0 -0.29123995398E+02 -0.14304611290E+03 -0.27666472893E+03  0.33686610064E+03  0.12500000000E+03 0.  0.
         25    1    1    2    0    0 -0.45147670785E+02  0.11322698952E+03  0.23077835738E+03  0.28938264214E+03  0.12500000000E+03 0.  0.
</event>
<event>
 5    0  0.5576108E-005  0.2607128E+03  0.7546771E-02  0.1106716E+00
         21   -1    0    0  502  501  0.00000000000E+00  0.00000000000E+00  0.10810306550E+04  0.10810306550E+04  0.00000000000E+00 0.  1.
         21   -1    0    0  501  502 -0.00000000000E+00 -0.00000000000E+00 -0.62876252179E+02  0.62876252179E+02  0.00000000000E+00 0.  1.
         25    1    1    2    0    0 -0.45835711295E+02  0.61795538336E+02  0.10423909798E+03  0.18002886029E+03  0.12500000000E+03 0.  0.
         25    1    1    2    0    0  0.90292104536E+02 -0.11301205812E+02  0.35482708014E+03  0.38704991693E+03  0.12500000000E+03 0.  0.
         25    1    1    2    0    0 -0.44456393240E+02 -0.50494332523E+02  0.55908822466E+03  0.57682812992E+03  0.12500000000E+03 0.  0.
</event>
<event>
 5    0  0.5785909E-005  0.4087757E+03  0.7546771E-02  0.1040783E+00
         21   -1    0    0  502  501  0.00000000000E+00  0.00000000000E+00  0.63967974246E+03  0.63967974246E+03  0.00000000000E+00 0. -1.
         21   -1    0    0  501  502 -0.00000000000E+00 -0.00000000000E+00 -0.26122061664E+03  0.26122061664E+03  0.00000000000E+00 0. -1.
         25    1    1    2    0    0 -0.13442363067E+03  0.18298697555E+03  0.16557118913E+03  0.30755936724E+03  0.12500000000E+03 0.  0.
         25    1    1    2    0    0  0.73878050253E+02 -0.58078647705E+02 -0.12967784849E+03  0.20315619611E+03  0.12500000000E+03 0.  0.
         25    1    1    2    0    0  0.60545580420E+02 -0.12490832784E+03  0.34256578518E+03  0.39018479577E+03  0.12500000000E+03 0.  0.
</event>
<event>
 5    0  0.5576108E-005  0.2572151E+03  0.7546771E-02  0.1108828E+00
         21   -1    0    0  502  501  0.00000000000E+00  0.00000000000E+00  0.35098932531E+03  0.35098932531E+03  0.00000000000E+00 0.  1.
         21   -1    0    0  501  502 -0.00000000000E+00 -0.00000000000E+00 -0.18849465605E+03  0.18849465605E+03  0.00000000000E+00 0.  1.
         25    1    1    2    0    0 -0.31937428146E+02  0.44048366253E+02 -0.13519359705E+02  0.13699646336E+03  0.12500000000E+03 0.  0.
         25    1    1    2    0    0 -0.46823956979E+00  0.10224499567E+03  0.45667227241E+02  0.16782358008E+03  0.12500000000E+03 0.  0.
         25    1    1    2    0    0  0.32405667716E+02 -0.14629336192E+03  0.13034680173E+03  0.23466393792E+03  0.12500000000E+03 0.  0.
</event>
<event>
 5    0  0.5576108E-005  0.2740306E+03  0.7546771E-02  0.1098995E+00
         21   -1    0    0  502  501  0.00000000000E+00  0.00000000000E+00  0.12795763692E+03  0.12795763692E+03  0.00000000000E+00 0. -1.
         21   -1    0    0  501  502 -0.00000000000E+00 -0.00000000000E+00 -0.58685658069E+03  0.58685658069E+03  0.00000000000E+00 0. -1.
         25    1    1    2    0    0 -0.11764611895E+03 -0.12857813680E+02 -0.13726947971E+03  0.22016776044E+03  0.12500000000E+03 0.  0.
         25    1    1    2    0    0 -0.96781575911E+01 -0.15294838961E+00  0.14037305564E+01  0.12538205847E+03  0.12500000000E+03 0.  0.
         25    1    1    2    0    0  0.12732427654E+03  0.13010762070E+02 -0.32303319461E+03  0.36926439869E+03  0.12500000000E+03 0.  0.
</event>
<event>
 5    0  0.5576108E-005  0.2892077E+03  0.7546771E-02  0.1090764E+00
         21   -1    0    0  502  501  0.00000000000E+00  0.00000000000E+00  0.74105957710E+03  0.74105957710E+03  0.00000000000E+00 0. -1.
         21   -1    0    0  501  502 -0.00000000000E+00 -0.00000000000E+00 -0.11286689337E+03  0.11286689337E+03  0.00000000000E+00 0. -1.
         25    1    1    2    0    0 -0.79695960618E+02 -0.18158506511E+02  0.13752339353E+03  0.20302428738E+03  0.12500000000E+03 0.  0.
         25    1    1    2    0    0 -0.10994221817E+03  0.71314934651E+02  0.13635728333E+03  0.22669675772E+03  0.12500000000E+03 0.  0.
         25    1    1    2    0    0  0.18963817879E+03 -0.53156428139E+02  0.35431200686E+03  0.42420542537E+03  0.12500000000E+03 0.  0.
</event>
<event>
 5    0  0.5576108E-005  0.3063054E+03  0.7546771E-02  0.1082130E+00
         21   -1    0    0  502  501  0.00000000000E+00  0.00000000000E+00  0.18996150339E+04  0.18996150339E+04  0.00000000000E+00 0.  1.
         21   -1    0    0  501  502 -0.00000000000E+00 -0.00000000000E+00 -0.49390519040E+02  0.49390519040E+02  0.00000000000E+00 0.  1.
         25    1    1    2    0    0 -0.70105441182E+02 -0.65902826316E+02  0.87182883274E+03  0.88598446318E+03  0.12500000000E+03 0.  0.
         25    1    1    2    0    0  0.82559142248E+02  0.10656826517E+03  0.87829373042E+03  0.89732808048E+03  0.12500000000E+03 0.  0.
         25    1    1    2    0    0 -0.12453701066E+02 -0.40665438855E+02  0.10010195166E+03  0.16569300925E+03  0.12500000000E+03 0.  0.
</event>
<event>
 5    0  0.5576108E-005  0.2748135E+03  0.7546771E-02  0.1098556E+00
         21   -1    0    0  502  501  0.00000000000E+00  0.00000000000E+00  0.48988819989E+03  0.48988819989E+03  0.00000000000E+00 0. -1.
         21   -1    0    0  501  502 -0.00000000000E+00 -0.00000000000E+00 -0.15416260959E+03  0.15416260959E+03  0.00000000000E+00 0. -1.
         25    1    1    2    0    0 -0.14024469681E+03 -0.35435395115E+02  0.97378289288E+02  0.21455016531E+03  0.12500000000E+03 0.  0.
         25    1    1    2    0    0  0.63343288271E+02  0.40855295081E+02  0.24197766218E+03  0.28259461477E+03  0.12500000000E+03 0.  0.
         25    1    1    2    0    0  0.76901408542E+02 -0.54198999662E+01 -0.36303611647E+01  0.14690602940E+03  0.12500000000E+03 0.  0.
</event>
<event>
 5    0  0.5576108E-005  0.2511512E+03  0.7546771E-02  0.1112579E+00
         21   -1    0    0  502  501  0.00000000000E+00  0.00000000000E+00  0.73091874794E+02  0.73091874794E+02  0.00000000000E+00 0.  1.
         21   -1    0    0  501  502 -0.00000000000E+00 -0.00000000000E+00 -0.86298147619E+03  0.86298147619E+03  0.00000000000E+00 0.  1.
         25    1    1    2    0    0 -0.10545256305E+03  0.42421277209E+02 -0.24820931028E+03  0.30025434139E+03  0.12500000000E+03 0.  0.
         25    1    1    2    0    0  0.94540848944E+02  0.56619275987E+02 -0.21401227065E+03  0.27123784124E+03  0.12500000000E+03 0.  0.
         25    1    1    2    0    0  0.10911714103E+02 -0.99040553196E+02 -0.32766802047E+03  0.36458116836E+03  0.12500000000E+03 0.  0.
</event>
<event>
 5    0  0.7223625E-005  0.4466918E+03  0.7546771E-02  0.1028713E+00
         21   -1    0    0  502  501  0.00000000000E+00  0.00000000000E+00  0.33892752305E+03  0.33892752305E+03  0.00000000000E+00 0.  1.
         21   -1    0    0  501  502 -0.00000000000E+00 -0.00000000000E+00 -0.58872034746E+03  0.58872034746E+03  0.00000000000E+00 0.  1.
         25    1    1    2    0    0 -0.99660247566E+02 -0.90357859934E+02 -0.30590884172E+03  0.35679395628E+03  0.12500000000E+03 0.  0.
         25    1    1    2    0    0  0.25347339685E+03 -0.93558179325E+02  0.29726542585E+02  0.29918315989E+03  0.12500000000E+03 0.  0.
         25    1    1    2    0    0 -0.15381314928E+03  0.18391603926E+03  0.26389474729E+02  0.27167075434E+03  0.12500000000E+03 0.  0.
</event>
<event>
 5    0  0.5576108E-005  0.2359862E+03  0.7546771E-02  0.1122496E+00
         21   -1    0    0  502  501  0.00000000000E+00  0.00000000000E+00  0.59638136233E+02  0.59638136233E+02  0.00000000000E+00 0.  1.
         21   -1    0    0  501  502 -0.00000000000E+00 -0.00000000000E+00 -0.93378977633E+03  0.93378977633E+03  0.00000000000E+00 0.  1.
         25    1    1    2    0    0  0.41968027168E+02 -0.98400066300E+02 -0.39953300722E+03  0.43208276084E+03  0.12500000000E+03 0.  0.
         25    1    1    2    0    0  0.14321831495E+02  0.60393465160E+02 -0.13971221914E+03  0.19747655473E+03  0.12500000000E+03 0.  0.
         25    1    1    2    0    0 -0.56289858664E+02  0.38006601140E+02 -0.33490641373E+03  0.36386859699E+03  0.12500000000E+03 0.  0.
</event>
<event>
 5    0  0.5576108E-005  0.3681868E+03  0.7546771E-02  0.1055388E+00
         21   -1    0    0  502  501  0.00000000000E+00  0.00000000000E+00  0.87506764468E+03  0.87506764468E+03  0.00000000000E+00 0. -1.
         21   -1    0    0  501  502 -0.00000000000E+00 -0.00000000000E+00 -0.15491543405E+03  0.15491543405E+03  0.00000000000E+00 0. -1.
         25    1    1    2    0    0 -0.45589576844E+02  0.17068289364E+02 -0.90477420681E+02  0.16180512869E+03  0.12500000000E+03 0.  0.
         25    1    1    2    0    0  0.10400754409E+03  0.64541054424E+01  0.53253089834E+03  0.55684233171E+03  0.12500000000E+03 0.  0.
         25    1    1    2    0    0 -0.58417967249E+02 -0.23522394807E+02  0.27809873297E+03  0.31133561832E+03  0.12500000000E+03 0.  0.
</event>
<event>
 5    0  0.5576108E-005  0.5033346E+03  0.7546771E-02  0.1012912E+00
         21   -1    0    0  502  501  0.00000000000E+00  0.00000000000E+00  0.47767443765E+03  0.47767443765E+03  0.00000000000E+00 0.  1.
         21   -1    0    0  501  502 -0.00000000000E+00 -0.00000000000E+00 -0.53037316616E+03  0.53037316616E+03  0.00000000000E+00 0. -1.
         25    1    1    2    0    0  0.33926784446E+03 -0.12228020306E+03 -0.53884379163E+02  0.38546549088E+03  0.12500000000E+03 0.  0.
         25    1    1    2    0    0 -0.64659445390E+02  0.10867814938E+03 -0.19385608460E+03  0.26305316111E+03  0.12500000000E+03 0.  0.
         25    1    1    2    0    0 -0.27460839907E+03  0.13602053683E+02  0.19504173526E+03  0.35952895182E+03  0.12500000000E+03 0.  0.
</event>
<event>
 5    0  0.5576108E-005  0.3066688E+03  0.7546771E-02  0.1081954E+00
         21   -1    0    0  502  501  0.00000000000E+00  0.00000000000E+00  0.88688483986E+03  0.88688483986E+03  0.00000000000E+00 0. -1.
         21   -1    0    0  501  502 -0.00000000000E+00 -0.00000000000E+00 -0.10604052986E+03  0.10604052986E+03  0.00000000000E+00 0. -1.
         25    1    1    2    0    0  0.20152907507E+03 -0.15801229771E+02  0.39257277113E+03  0.45891396535E+03  0.12500000000E+03 0.  0.
         25    1    1    2    0    0 -0.17757600082E+03  0.30562104733E+01  0.32607362893E+03  0.39178002498E+03  0.12500000000E+03 0.  0.
         25    1    1    2    0    0 -0.23953074251E+02  0.12745019298E+02  0.62197909945E+02  0.14223137939E+03  0.12500000000E+03 0.  0.
</event>
<event>
 5    0  0.5576108E-005  0.4149315E+03  0.7546771E-02  0.1038729E+00
         21   -1    0    0  502  501  0.00000000000E+00  0.00000000000E+00  0.76466257920E+02  0.76466257920E+02  0.00000000000E+00 0.  1.
         21   -1    0    0  501  502 -0.00000000000E+00 -0.00000000000E+00 -0.22515575797E+04  0.22515575797E+04  0.00000000000E+00 0.  1.
         25    1    1    2    0    0  0.74012179000E+02  0.28146927298E+03 -0.55294469655E+03  0.63724060740E+03  0.12500000000E+03 0.  0.
         25    1    1    2    0    0  0.42839538630E+02 -0.27190105920E+03 -0.93879355908E+03  0.98626758977E+03  0.12500000000E+03 0.  0.
         25    1    1    2    0    0 -0.11685171763E+03 -0.95682137739E+01 -0.68335306620E+03  0.70451564050E+03  0.12500000000E+03 0.  0.
</event>
<event>
 5    0  0.5576108E-005  0.2593743E+03  0.7546771E-02  0.1107520E+00
         21   -1    0    0  502  501  0.00000000000E+00  0.00000000000E+00  0.15892965080E+03  0.15892965080E+03  0.00000000000E+00 0.  1.
         21   -1    0    0  501  502 -0.00000000000E+00 -0.00000000000E+00 -0.42330071124E+03  0.42330071124E+03  0.00000000000E+00 0.  1.
         25    1    1    2    0    0 -0.83668000145E+01  0.56085620255E+01  0.72193428980E+02  0.14470090013E+03  0.12500000000E+03 0.  0.
         25    1    1    2    0    0  0.38711464724E+02 -0.40132746923E+02 -0.22699276620E+03  0.26506589895E+03  0.12500000000E+03 0.  0.
         25    1    1    2    0    0 -0.30344664710E+02  0.34524184897E+02 -0.10957172322E+03  0.17246356296E+03  0.12500000000E+03 0.  0.
</event>
<event>
 5    0  0.5576108E-005  0.4284863E+03  0.7546771E-02  0.1034339E+00
         21   -1    0    0  502  501  0.00000000000E+00  0.00000000000E+00  0.60209847991E+02  0.60209847991E+02  0.00000000000E+00 0.  1.
         21   -1    0    0  501  502 -0.00000000000E+00 -0.00000000000E+00 -0.30493433854E+04  0.30493433854E+04  0.00000000000E+00 0.  1.
         25    1    1    2    0    0  0.14055956811E+03  0.21495122960E+03 -0.74454480824E+03  0.79745407064E+03  0.12500000000E+03 0.  0.
         25    1    1    2    0    0 -0.11686016691E+03 -0.22862609250E+03 -0.62143907347E+03  0.68391352584E+03  0.12500000000E+03 0.  0.
         25    1    1    2    0    0 -0.23699401201E+02  0.13674862901E+02 -0.16231496556E+04  0.16281856369E+04  0.12500000000E+03 0.  0.
</event>
<event>
 5    0  0.5576108E-005  0.2295099E+03  0.7546771E-02  0.1126985E+00
         21   -1    0    0  502  501  0.00000000000E+00  0.00000000000E+00  0.36643768755E+03  0.36643768755E+03  0.00000000000E+00 0. -1.
         21   -1    0    0  501  502 -0.00000000000E+00 -0.00000000000E+00 -0.14374823869E+03  0.14374823869E+03  0.00000000000E+00 0. -1.
         25    1    1    2    0    0 -0.48320294513E+02  0.87632674875E+02  0.11909636940E+03  0.19955771539E+03  0.12500000000E+03 0.  0.
         25    1    1    2    0    0  0.60403866379E+02 -0.23001399457E+02  0.97570387143E+01  0.14105988535E+03  0.12500000000E+03 0.  0.
         25    1    1    2    0    0 -0.12083571866E+02 -0.64631275418E+02  0.93836040748E+02  0.16956832550E+03  0.12500000000E+03 0.  0.
</event>
<event>
 5    0  0.5576108E-005  0.2618671E+03  0.7546771E-02  0.1106027E+00
         21   -1    0    0  502  501  0.00000000000E+00  0.00000000000E+00  0.85999872739E+02  0.85999872739E+02  0.00000000000E+00 0.  1.
         21   -1    0    0  501  502 -0.00000000000E+00 -0.00000000000E+00 -0.79737794912E+03  0.79737794912E+03  0.00000000000E+00 0.  1.
         25    1    1    2    0    0 -0.23419193665E+02 -0.10731649637E+03 -0.15189619699E+03  0.22530588915E+03  0.12500000000E+03 0.  0.
         25    1    1    2    0    0 -0.13875465604E+02  0.13332077207E+03 -0.18391688060E+03  0.25964856206E+03  0.12500000000E+03 0.  0.
         25    1    1    2    0    0  0.37294659270E+02 -0.26004275698E+02 -0.37556499879E+03  0.39842337065E+03  0.12500000000E+03 0.  0.
</event>
<event>
 5    0  0.5576108E-005  0.2991864E+03  0.7546771E-02  0.1085648E+00
         21   -1    0    0  502  501  0.00000000000E+00  0.00000000000E+00  0.79422096240E+02  0.79422096240E+02  0.00000000000E+00 0.  1.
         21   -1    0    0  501  502 -0.00000000000E+00 -0.00000000000E+00 -0.11270481421E+04  0.11270481421E+04  0.00000000000E+00 0.  1.
         25    1    1    2    0    0  0.60370548299E+02 -0.16071515320E+03 -0.72258554261E+03  0.75314595529E+03  0.12500000000E+03 0.  0.
         25    1    1    2    0    0 -0.61608585433E+02  0.94032132318E+02 -0.22036634963E+03  0.27717140501E+03  0.12500000000E+03 0.  0.
         25    1    1    2    0    0  0.12380371340E+01  0.66683020884E+02 -0.10467415364E+03  0.17615287806E+03  0.12500000000E+03 0.  0.
</event>
<event>
 5    0  0.5576108E-005  0.4584938E+03  0.7546771E-02  0.1025219E+00
         21   -1    0    0  502  501  0.00000000000E+00  0.00000000000E+00  0.18980490603E+03  0.18980490603E+03  0.00000000000E+00 0. -1.
         21   -1    0    0  501  502 -0.00000000000E+00 -0.00000000000E+00 -0.11075399773E+04  0.11075399773E+04  0.00000000000E+00 0. -1.
         25    1    1    2    0    0 -0.61175772042E+01  0.79918290611E+02 -0.79676614606E+02  0.16851623317E+03  0.12500000000E+03 0.  0.
         25    1    1    2    0    0  0.31868178655E+03  0.10880099182E+03 -0.50086047944E+03  0.61634564715E+03  0.12500000000E+03 0.  0.
         25    1    1    2    0    0 -0.31256420935E+03 -0.18871928243E+03 -0.33719797723E+03  0.51248300301E+03  0.12500000000E+03 0.  0.
</event>
<event>
 5    0  0.5576108E-005  0.5183224E+03  0.7546771E-02  0.1009104E+00
         21   -1    0    0  502  501  0.00000000000E+00  0.00000000000E+00  0.28109506467E+03  0.28109506467E+03  0.00000000000E+00 0.  1.
         21   -1    0    0  501  502 -0.00000000000E+00 -0.00000000000E+00 -0.95575518372E+03  0.95575518372E+03  0.00000000000E+00 0.  1.
         25    1    1    2    0    0 -0.10063393063E+03  0.17970818302E+03 -0.76191111118E+02  0.25269013525E+03  0.12500000000E+03 0.  0.
         25    1    1    2    0    0 -0.25720932277E+03 -0.26141343998E+03 -0.36039120691E+03  0.52915068208E+03  0.12500000000E+03 0.  0.
         25    1    1    2    0    0  0.35784325341E+03  0.81705256966E+02 -0.23807780102E+03  0.45500943107E+03  0.12500000000E+03 0.  0.
</event>
<event>
 5    0  0.5576108E-005  0.3994804E+03  0.7546771E-02  0.1043960E+00
         21   -1    0    0  502  501  0.00000000000E+00  0.00000000000E+00  0.57701187476E+03  0.57701187476E+03  0.00000000000E+00 0. -1.
         21   -1    0    0  501  502 -0.00000000000E+00 -0.00000000000E+00 -0.27657071967E+03  0.27657071967E+03  0.00000000000E+00 0. -1.
         25    1    1    2    0    0  0.46022548741E+02 -0.22880427513E+03 -0.23986469861E+02  0.26583796201E+03  0.12500000000E+03 0.  0.
         25    1    1    2    0    0 -0.65329823174E+02 -0.75785288262E+02  0.11336531188E+03  0.19618381598E+03  0.12500000000E+03 0.  0.
         25    1    1    2    0    0  0.19307274432E+02  0.30458956339E+03  0.21106231307E+03  0.39156081644E+03  0.12500000000E+03 0.  0.
</event>
<event>
 5    0  0.5576108E-005  0.5240770E+03  0.7546771E-02  0.1007679E+00
         21   -1    0    0  502  501  0.00000000000E+00  0.00000000000E+00  0.28060512186E+04  0.28060512186E+04  0.00000000000E+00 0. -1.
         21   -1    0    0  501  502 -0.00000000000E+00 -0.00000000000E+00 -0.97880160267E+02  0.97880160267E+02  0.00000000000E+00 0. -1.
         25    1    1    2    0    0 -0.12388692909E+03  0.33063441017E+02  0.37917210635E+03  0.41932999960E+03  0.12500000000E+03 0.  0.
         25    1    1    2    0    0 -0.20085946909E+03 -0.25244901218E+03  0.48797471431E+03  0.59818003300E+03  0.12500000000E+03 0.  0.
         25    1    1    2    0    0  0.32474639817E+03  0.21938557116E+03  0.18410242377E+04  0.18864213463E+04  0.12500000000E+03 0.  0.
</event>
<event>
 5    0  0.5576108E-005  0.3405489E+03  0.7546771E-02  0.1066562E+00
         21   -1    0    0  502  501  0.00000000000E+00  0.00000000000E+00  0.11934258739E+03  0.11934258739E+03  0.00000000000E+00 0.  1.
         21   -1    0    0  501  502 -0.00000000000E+00 -0.00000000000E+00 -0.97177032372E+03  0.97177032372E+03  0.00000000000E+00 0.  1.
         25    1    1    2    0    0 -0.14035616693E+03  0.51309184412E+02 -0.48573709038E+02  0.20079066515E+03  0.12500000000E+03 0.  0.
         25    1    1    2    0    0  0.83063746331E+02 -0.14949991769E+03 -0.40220952614E+03  0.45458477126E+03  0.12500000000E+03 0.  0.
         25    1    1    2    0    0  0.57292420597E+02  0.98190733274E+02 -0.40164450115E+03  0.43573747470E+03  0.12500000000E+03 0.  0.
</event>
<event>
 5    0  0.5576108E-005  0.2132350E+03  0.7546771E-02  0.1139029E+00
         21   -1    0    0  502  501  0.00000000000E+00  0.00000000000E+00  0.96591008155E+02  0.96591008155E+02  0.00000000000E+00 0. -1.
         21   -1    0    0  501  502 -0.00000000000E+00 -0.00000000000E+00 -0.47073927866E+03  0.47073927866E+03  0.00000000000E+00 0. -1.
         25    1    1    2    0    0  0.29252419434E+02 -0.26597735316E+02 -0.22085357920E+03  0.25683544734E+03  0.12500000000E+03 0.  0.
         25    1    1    2    0    0  0.30444253775E+02  0.11337923655E+02 -0.57432970537E+02  0.14134690377E+03  0.12500000000E+03 0.  0.
         25    1    1    2    0    0 -0.59696673209E+02  0.15259811660E+02 -0.95861720770E+02  0.16914793570E+03  0.12500000000E+03 0.  0.
</event>
<event>
 5    0  0.5576108E-005  0.4303521E+03  0.7546771E-02  0.1033749E+00
         21   -1    0    0  502  501  0.00000000000E+00  0.00000000000E+00  0.12162093593E+04  0.12162093593E+04  0.00000000000E+00 0.  1.
         21   -1    0    0  501  502 -0.00000000000E+00 -0.00000000000E+00 -0.15227885438E+03  0.15227885438E+03  0.00000000000E+00 0.  1.
         25    1    1    2    0    0  0.11570055172E+03 -0.37184476626E+02  0.93292117379E+03  0.94907124047E+03  0.12500000000E+03 0.  0.
         25    1    1    2    0    0 -0.13229445977E+03  0.10281585261E+03 -0.22439593527E+02  0.21024143024E+03  0.12500000000E+03 0.  0.
         25    1    1    2    0    0  0.16593908047E+02 -0.65631375986E+02  0.15344892465E+03  0.20917554296E+03  0.12500000000E+03 0.  0.
</event>
<event>
 5    0  0.5576108E-005  0.2533835E+03  0.7546771E-02  0.1111185E+00
         21   -1    0    0  502  501  0.00000000000E+00  0.00000000000E+00  0.67197584589E+02  0.67197584589E+02  0.00000000000E+00 0.  1.
         21   -1    0    0  501  502 -0.00000000000E+00 -0.00000000000E+00 -0.95543905923E+03  0.95543905923E+03  0.00000000000E+00 0.  1.
         25    1    1    2    0    0  0.83866072292E+02  0.13076647752E+02 -0.99096257873E+02  0.18069196198E+03  0.12500000000E+03 0.  0.
         25    1    1    2    0    0 -0.92763310970E+02 -0.37431721228E+02 -0.35524020460E+03  0.38964954585E+03  0.12500000000E+03 0.  0.
         25    1    1    2    0    0  0.88972386785E+01  0.24355073476E+02 -0.43390501217E+03  0.45229513600E+03  0.12500000000E+03 0.  0.
</event>
<event>
 5    0  0.5576108E-005  0.3727441E+03  0.7546771E-02  0.1053649E+00
         21   -1    0    0  502  501  0.00000000000E+00  0.00000000000E+00  0.12953379856E+04  0.12953379856E+04  0.00000000000E+00 0. -1.
         21   -1    0    0  501  502 -0.00000000000E+00 -0.00000000000E+00 -0.10726013663E+03  0.10726013663E+03  0.00000000000E+00 0. -1.
         25    1    1    2    0    0  0.23844114747E+03 -0.92290458885E+02  0.62371275367E+03  0.68557589565E+03  0.12500000000E+03 0.  0.
         25    1    1    2    0    0 -0.25394519455E+03  0.12545283283E+03  0.43030174535E+03  0.53010486430E+03  0.12500000000E+03 0.  0.
         25    1    1    2    0    0  0.15504047080E+02 -0.33162373942E+02  0.13406334991E+03  0.18691736225E+03  0.12500000000E+03 0.  0.
</event>
<event>
 5    0  0.5576108E-005  0.5316837E+03  0.7546771E-02  0.1005825E+00
         21   -1    0    0  502  501  0.00000000000E+00  0.00000000000E+00  0.23380857826E+04  0.23380857826E+04  0.00000000000E+00 0. -1.
         21   -1    0    0  501  502 -0.00000000000E+00 -0.00000000000E+00 -0.12090554308E+03  0.12090554308E+03  0.00000000000E+00 0. -1.
         25    1    1    2    0    0  0.33373900300E+03 -0.16368079303E+03  0.59404240000E+03  0.71181774151E+03  0.12500000000E+03 0.  0.
         25    1    1    2    0    0  0.23408753678E+02  0.20354693224E+03  0.88202776201E+03  0.91409917204E+03  0.12500000000E+03 0.  0.
         25    1    1    2    0    0 -0.35714775668E+03 -0.39866139208E+02  0.74111007754E+03  0.83307441215E+03  0.12500000000E+03 0.  0.
</event>
<event>
 5    0  0.5576108E-005  0.3870676E+03  0.7546771E-02  0.1048352E+00
         21   -1    0    0  502  501  0.00000000000E+00  0.00000000000E+00  0.12807486638E+03  0.12807486638E+03  0.00000000000E+00 0.  1.
         21   -1    0    0  501  502 -0.00000000000E+00 -0.00000000000E+00 -0.11697948257E+04  0.11697948257E+04  0.00000000000E+00 0.  1.
         25    1    1    2    0    0 -0.48187393082E+02 -0.61037275903E+02 -0.96105393074E+03  0.97226397223E+03  0.12500000000E+03 0.  0.
         25    1    1    2    0    0  0.96956666731E+02  0.23180127699E+02 -0.94140770601E+02  0.18554082632E+03  0.12500000000E+03 0.  0.
         25    1    1    2    0    0 -0.48769273650E+02  0.37857148204E+02  0.13474742038E+02  0.14006489352E+03  0.12500000000E+03 0.  0.
</event>
<event>
 5    0  0.5576108E-005  0.3706188E+03  0.7546771E-02  0.1054457E+00
         21   -1    0    0  502  501  0.00000000000E+00  0.00000000000E+00  0.79206726924E+03  0.79206726924E+03  0.00000000000E+00 0.  1.
         21   -1    0    0  501  502 -0.00000000000E+00 -0.00000000000E+00 -0.17341749526E+03  0.17341749526E+03  0.00000000000E+00 0.  1.
         25    1    1    2    0    0  0.13001236314E+03  0.15303750824E+03  0.54232734543E+03  0.59166514440E+03  0.12500000000E+03 0.  0.
         25    1    1    2    0    0 -0.90808147177E+02 -0.15744888091E+03 -0.29918256158E+01  0.22061328318E+03  0.12500000000E+03 0.  0.
         25    1    1    2    0    0 -0.39204215964E+02  0.44113726691E+01  0.79314254170E+02  0.15320633692E+03  0.12500000000E+03 0.  0.
</event>
<event>
 5    0  0.5576108E-005  0.2516629E+03  0.7546771E-02  0.1112258E+00
         21   -1    0    0  502  501  0.00000000000E+00  0.00000000000E+00  0.32539556515E+03  0.32539556515E+03  0.00000000000E+00 0.  1.
         21   -1    0    0  501  502 -0.00000000000E+00 -0.00000000000E+00 -0.19463761882E+03  0.19463761882E+03  0.00000000000E+00 0.  1.
         25    1    1    2    0    0 -0.21611731743E+02 -0.51039560902E+02  0.65864153377E+02  0.15177348394E+03  0.12500000000E+03 0.  0.
         25    1    1    2    0    0 -0.10132815536E+03 -0.18075249049E+02 -0.16930443225E+02  0.16280586478E+03  0.12500000000E+03 0.  0.
         25    1    1    2    0    0  0.12293988711E+03  0.69114809951E+02  0.81824236183E+02  0.20545383526E+03  0.12500000000E+03 0.  0.
</event>
<event>
 5    0  0.5576108E-005  0.3473589E+03  0.7546771E-02  0.1063704E+00
         21   -1    0    0  502  501  0.00000000000E+00  0.00000000000E+00  0.97086732261E+03  0.97086732261E+03  0.00000000000E+00 0.  1.
         21   -1    0    0  501  502 -0.00000000000E+00 -0.00000000000E+00 -0.12427874348E+03  0.12427874348E+03  0.00000000000E+00 0.  1.
         25    1    1    2    0    0  0.15190252779E+03  0.26330006068E+01  0.47695107876E+03  0.51593472666E+03  0.12500000000E+03 0.  0.
         25    1    1    2    0    0  0.47352909790E+02 -0.12264090697E+03  0.13766160361E+03  0.22772528897E+03  0.12500000000E+03 0.  0.
         25    1    1    2    0    0 -0.19925543758E+03  0.12000790637E+03  0.23197589675E+03  0.35148605046E+03  0.12500000000E+03 0.  0.
</event>
<event>
 5    0  0.5576108E-005  0.7610513E+03  0.7546771E-02  0.9618170E-01
         21   -1    0    0  502  501  0.00000000000E+00  0.00000000000E+00  0.35221662942E+03  0.35221662942E+03  0.00000000000E+00 0. -1.
         21   -1    0    0  501  502 -0.00000000000E+00 -0.00000000000E+00 -0.16444398325E+04  0.16444398325E+04  0.00000000000E+00 0. -1.
         25    1    1    2    0    0 -0.23116048165E+03  0.73182584268E+02  0.80871925659E+02  0.28452790246E+03  0.12500000000E+03 0.  0.
         25    1    1    2    0    0  0.47916013123E+03 -0.14398680266E+03 -0.13246019361E+04  0.14214506393E+04  0.12500000000E+03 0.  0.
         25    1    1    2    0    0 -0.24799964958E+03  0.70804218394E+02 -0.48493192584E+02  0.29067792015E+03  0.12500000000E+03 0.  0.
</event>
<event>
 5    0  0.5576108E-005  0.2211153E+03  0.7546771E-02  0.1133054E+00
         21   -1    0    0  502  501  0.00000000000E+00  0.00000000000E+00  0.78367807338E+03  0.78367807338E+03  0.00000000000E+00 0.  1.
         21   -1    0    0  501  502 -0.00000000000E+00 -0.00000000000E+00 -0.62387833422E+02  0.62387833422E+02  0.00000000000E+00 0.  1.
         25    1    1    2    0    0  0.51067439395E+01 -0.38346845499E+01  0.35340199840E+03  0.37491166441E+03  0.12500000000E+03 0.  0.
         25    1    1    2    0    0  0.31011438989E+02  0.67200960788E+02  0.22469236136E+03  0.26756183534E+03  0.12500000000E+03 0.  0.
         25    1    1    2    0    0 -0.36118182928E+02 -0.63366276238E+02  0.14319588020E+03  0.20359240705E+03  0.12500000000E+03 0.  0.
</event>
<event>
 5    0  0.5576108E-005  0.3470493E+03  0.7546771E-02  0.1063833E+00
         21   -1    0    0  502  501  0.00000000000E+00  0.00000000000E+00  0.43156137790E+03  0.43156137790E+03  0.00000000000E+00 0. -1.
         21   -1    0    0  501  502 -0.00000000000E+00 -0.00000000000E+00 -0.27908712737E+03  0.27908712737E+03  0.00000000000E+00 0. -1.
         25    1    1    2    0    0 -0.10771865874E+03 -0.20660023116E+02 -0.12758499698E+03  0.20960218857E+03  0.12500000000E+03 0.  0.
         25    1    1    2    0    0 -0.19088591384E+02  0.10591670705E+03  0.83093890989E+01  0.16515680156E+03  0.12500000000E+03 0.  0.
         25    1    1    2    0    0  0.12680725013E+03 -0.85256683937E+02  0.27174985841E+03  0.33588951515E+03  0.12500000000E+03 0.  0.
</event>
<event>
 5    0  0.5576108E-005  0.2525144E+03  0.7546771E-02  0.1111726E+00
         21   -1    0    0  502  501  0.00000000000E+00  0.00000000000E+00  0.43270275517E+03  0.43270275517E+03  0.00000000000E+00 0. -1.
         21   -1    0    0  501  502 -0.00000000000E+00 -0.00000000000E+00 -0.14736099608E+03  0.14736099608E+03  0.00000000000E+00 0. -1.
         25    1    1    2    0    0  0.66987807163E+02  0.72331422753E+01  0.13370622722E+02  0.14263049536E+03  0.12500000000E+03 0.  0.
         25    1    1    2    0    0  0.58195294837E+02 -0.59819459905E+02  0.16872313608E+03  0.22595919272E+03  0.12500000000E+03 0.  0.
         25    1    1    2    0    0 -0.12518310200E+03  0.52586317630E+02  0.10324800029E+03  0.21147406317E+03  0.12500000000E+03 0.  0.
</event>
<event>
 5    0  0.5576108E-005  0.6269646E+03  0.7546771E-02  0.9850990E-01
         21   -1    0    0  502  501  0.00000000000E+00  0.00000000000E+00  0.56333320594E+03  0.56333320594E+03  0.00000000000E+00 0.  1.
         21   -1    0    0  501  502 -0.00000000000E+00 -0.00000000000E+00 -0.69778358363E+03  0.69778358363E+03  0.00000000000E+00 0.  1.
         25    1    1    2    0    0 -0.47948434930E+03 -0.22566910165E+03 -0.29271924189E+03  0.61817581579E+03  0.12500000000E+03 0.  0.
         25    1    1    2    0    0  0.34363856312E+03  0.93244128012E+02  0.21982591146E+02  0.37800815306E+03  0.12500000000E+03 0.  0.
         25    1    1    2    0    0  0.13584578618E+03  0.13242497364E+03  0.13628627304E+03  0.26493282071E+03  0.12500000000E+03 0.  0.
</event>
<event>
 5    0  0.7113117E-005  0.2983194E+03  0.7546771E-02  0.1086084E+00
         21   -1    0    0  502  501  0.00000000000E+00  0.00000000000E+00  0.49331525826E+03  0.49331525826E+03  0.00000000000E+00 0.  1.
         21   -1    0    0  501  502 -0.00000000000E+00 -0.00000000000E+00 -0.18040075885E+03  0.18040075885E+03  0.00000000000E+00 0.  1.
         25    1    1    2    0    0  0.15087416989E+02  0.13734826618E+03  0.41506205493E+02  0.19089248667E+03  0.12500000000E+03 0.  0.
         25    1    1    2    0    0 -0.32317871436E+02 -0.16606151730E+03  0.34894431285E+02  0.21322170076E+03  0.12500000000E+03 0.  0.
         25    1    1    2    0    0  0.17230454446E+02  0.28713251119E+02  0.23651386262E+03  0.26960182967E+03  0.12500000000E+03 0.  0.
</event>
<event>
 5    0  0.5576108E-005  0.2826678E+03  0.7546771E-02  0.1094241E+00
         21   -1    0    0  502  501  0.00000000000E+00  0.00000000000E+00  0.74493545891E+03  0.74493545891E+03  0.00000000000E+00 0. -1.
         21   -1    0    0  501  502 -0.00000000000E+00 -0.00000000000E+00 -0.10725908710E+03  0.10725908710E+03  0.00000000000E+00 0. -1.
         25    1    1    2    0    0  0.89157549083E+02 -0.61695036206E+02  0.49045724280E+03  0.51761825032E+03  0.12500000000E+03 0.  0.
         25    1    1    2    0    0  0.52489063459E+01 -0.49122159453E+01  0.92880165033E+02  0.15589549686E+03  0.12500000000E+03 0.  0.
         25    1    1    2    0    0 -0.94406455429E+02  0.66607252152E+02  0.54338963978E+02  0.17868079883E+03  0.12500000000E+03 0.  0.
</event>
<event>
 5    0  0.5576108E-005  0.4733805E+03  0.7546771E-02  0.1020970E+00
         21   -1    0    0  502  501  0.00000000000E+00  0.00000000000E+00  0.15331825724E+04  0.15331825724E+04  0.00000000000E+00 0. -1.
         21   -1    0    0  501  502 -0.00000000000E+00 -0.00000000000E+00 -0.14615946302E+03  0.14615946302E+03  0.00000000000E+00 0. -1.
         25    1    1    2    0    0 -0.44938792000E+02 -0.23311767013E+02  0.71478326249E+02  0.15263382532E+03  0.12500000000E+03 0.  0.
         25    1    1    2    0    0 -0.34865790778E+02 -0.12149788204E+03  0.13072328508E+04  0.13192649791E+04  0.12500000000E+03 0.  0.
         25    1    1    2    0    0  0.79804582778E+02  0.14480964906E+03  0.83119323347E+01  0.20744323106E+03  0.12500000000E+03 0.  0.
</event>
<event>
 5    0  0.5576108E-005  0.3298279E+03  0.7546771E-02  0.1071213E+00
         21   -1    0    0  502  501  0.00000000000E+00  0.00000000000E+00  0.36072609971E+03  0.36072609971E+03  0.00000000000E+00 0. -1.
         21   -1    0    0  501  502 -0.00000000000E+00 -0.00000000000E+00 -0.30157638588E+03  0.30157638588E+03  0.00000000000E+00 0. -1.
         25    1    1    2    0    0 -0.16384523617E+02  0.16771095331E+03 -0.95958957712E+02  0.23071310765E+03  0.12500000000E+03 0.  0.
         25    1    1    2    0    0  0.75582361612E+02  0.25120466886E+02  0.23584260271E+00  0.14821871294E+03  0.12500000000E+03 0.  0.
         25    1    1    2    0    0 -0.59197837996E+02 -0.19283142020E+03  0.15487282894E+03  0.28337066500E+03  0.12500000000E+03 0.  0.
</event>
<event>
 5    0  0.5576108E-005  0.2410042E+03  0.7546771E-02  0.1119126E+00
         21   -1    0    0  502  501  0.00000000000E+00  0.00000000000E+00  0.32391508527E+03  0.32391508527E+03  0.00000000000E+00 0. -1.
         21   -1    0    0  501  502 -0.00000000000E+00 -0.00000000000E+00 -0.17931563251E+03  0.17931563251E+03  0.00000000000E+00 0. -1.
         25    1    1    2    0    0  0.28896949882E+02  0.12692304864E+01 -0.74963088694E+01  0.12852174643E+03  0.12500000000E+03 0.  0.
         25    1    1    2    0    0 -0.95753348406E+02  0.73516568254E+02  0.37758647308E+02  0.17783167599E+03  0.12500000000E+03 0.  0.
         25    1    1    2    0    0  0.66856398524E+02 -0.74785798741E+02  0.11433711432E+03  0.19687729536E+03  0.12500000000E+03 0.  0.
</event>
<event>
 5    0  0.5576108E-005  0.3198830E+03  0.7546771E-02  0.1075703E+00
         21   -1    0    0  502  501  0.00000000000E+00  0.00000000000E+00  0.17425666966E+03  0.17425666966E+03  0.00000000000E+00 0. -1.
         21   -1    0    0  501  502 -0.00000000000E+00 -0.00000000000E+00 -0.58720942902E+03  0.58720942902E+03  0.00000000000E+00 0. -1.
         25    1    1    2    0    0  0.80722300993E+01  0.91796496532E+02 -0.66695567840E+02  0.16901200089E+03  0.12500000000E+03 0.  0.
         25    1    1    2    0    0 -0.52729287900E+02  0.14583554007E+03 -0.20485328688E+03  0.28572408316E+03  0.12500000000E+03 0.  0.
         25    1    1    2    0    0  0.44657057801E+02 -0.23763203661E+03 -0.14140390464E+03  0.30673001464E+03  0.12500000000E+03 0.  0.
</event>
<event>
 5    0  0.5933207E-005  0.3129256E+03  0.7546771E-02  0.1078952E+00
         21   -1    0    0  502  501  0.00000000000E+00  0.00000000000E+00  0.14328503537E+03  0.14328503537E+03  0.00000000000E+00 0. -1.
         21   -1    0    0  501  502 -0.00000000000E+00 -0.00000000000E+00 -0.68340983678E+03  0.68340983678E+03  0.00000000000E+00 0. -1.
         25    1    1    2    0    0  0.13759558345E+03  0.88650396749E+02 -0.31460391628E+03  0.37602135786E+03  0.12500000000E+03 0.  0.
         25    1    1    2    0    0 -0.67716841808E+02 -0.14738686830E+03 -0.21286597493E+03  0.29537329415E+03  0.12500000000E+03 0.  0.
         25    1    1    2    0    0 -0.69878741644E+02  0.58736471552E+02 -0.12654910200E+02  0.15530022014E+03  0.12500000000E+03 0.  0.
</event>
<event>
 5    0  0.5576108E-005  0.4003970E+03  0.7546771E-02  0.1043642E+00
         21   -1    0    0  502  501  0.00000000000E+00  0.00000000000E+00  0.15058869811E+03  0.15058869811E+03  0.00000000000E+00 0. -1.
         21   -1    0    0  501  502 -0.00000000000E+00 -0.00000000000E+00 -0.10646069105E+04  0.10646069105E+04  0.00000000000E+00 0. -1.
         25    1    1    2    0    0  0.28881335924E+02 -0.14945292583E+03 -0.19763790977E+03  0.27902697357E+03  0.12500000000E+03 0.  0.
         25    1    1    2    0    0  0.20830297903E+03  0.22168927267E+02 -0.53591229497E+03  0.58881965007E+03  0.12500000000E+03 0.  0.
         25    1    1    2    0    0 -0.23718431496E+03  0.12728399856E+03 -0.18046800761E+03  0.34734898492E+03  0.12500000000E+03 0.  0.
</event>
<event>
 5    0  0.5576108E-005  0.5565084E+03  0.7546771E-02  0.9999986E-01
         21   -1    0    0  502  501  0.00000000000E+00  0.00000000000E+00  0.11848958093E+04  0.11848958093E+04  0.00000000000E+00 0.  1.
         21   -1    0    0  501  502 -0.00000000000E+00 -0.00000000000E+00 -0.26137452791E+03  0.26137452791E+03  0.00000000000E+00 0.  1.
         25    1    1    2    0    0 -0.41251824363E+02  0.18085067441E+02  0.16816749602E+03  0.21432239593E+03  0.12500000000E+03 0.  0.
         25    1    1    2    0    0 -0.42195084355E+03 -0.85795957835E+02  0.18887980975E+03  0.48652239751E+03  0.12500000000E+03 0.  0.
         25    1    1    2    0    0  0.46320266791E+03  0.67710890394E+02  0.56647397559E+03  0.74542554374E+03  0.12500000000E+03 0.  0.
</event>
<event>
 5    0  0.5576108E-005  0.4857326E+03  0.7546771E-02  0.1017571E+00
         21   -1    0    0  502  501  0.00000000000E+00  0.00000000000E+00  0.34496566283E+03  0.34496566283E+03  0.00000000000E+00 0. -1.
         21   -1    0    0  501  502 -0.00000000000E+00 -0.00000000000E+00 -0.68394107356E+03  0.68394107356E+03  0.00000000000E+00 0. -1.
         25    1    1    2    0    0 -0.26216864696E+03  0.28178009646E+03 -0.63585719597E+02  0.40963467376E+03  0.12500000000E+03 0.  0.
         25    1    1    2    0    0  0.10191100779E+03 -0.30540389974E+03 -0.13349483584E+03  0.37027458282E+03  0.12500000000E+03 0.  0.
         25    1    1    2    0    0  0.16025763918E+03  0.23623803284E+02 -0.14189485529E+03  0.24899747982E+03  0.12500000000E+03 0.  0.
</event>
<event>
 5    0  0.5576108E-005  0.3079201E+03  0.7546771E-02  0.1081347E+00
         21   -1    0    0  502  501  0.00000000000E+00  0.00000000000E+00  0.13736688121E+03  0.13736688121E+03  0.00000000000E+00 0. -1.
         21   -1    0    0  501  502 -0.00000000000E+00 -0.00000000000E+00 -0.69023046257E+03  0.69023046257E+03  0.00000000000E+00 0. -1.
         25    1    1    2    0    0  0.14603535688E+03 -0.10536531257E+03 -0.16439161505E+03  0.27400324387E+03  0.12500000000E+03 0.  0.
         25    1    1    2    0    0 -0.16880446825E+02  0.17786701157E+02 -0.31636822040E+03  0.34105009471E+03  0.12500000000E+03 0.  0.
         25    1    1    2    0    0 -0.12915491006E+03  0.87578611412E+02 -0.72103745917E+02  0.21254400520E+03  0.12500000000E+03 0.  0.
</event>
<event>
 5    0  0.5576108E-005  0.3339163E+03  0.7546771E-02  0.1069417E+00
         21   -1    0    0  502  501  0.00000000000E+00  0.00000000000E+00  0.93281759932E+03  0.93281759932E+03  0.00000000000E+00 0. -1.
         21   -1    0    0  501  502 -0.00000000000E+00 -0.00000000000E+00 -0.11953045328E+03  0.11953045328E+03  0.00000000000E+00 0. -1.
         25    1    1    2    0    0 -0.21578179227E+03 -0.79647412689E+01  0.55153915514E+03  0.60534755193E+03  0.12500000000E+03 0.  0.
         25    1    1    2    0    0  0.10168463314E+03  0.35579767938E+02  0.21159857755E+03  0.26833680799E+03  0.12500000000E+03 0.  0.
         25    1    1    2    0    0  0.11409715914E+03 -0.27615026669E+02  0.50149413352E+02  0.17866369268E+03  0.12500000000E+03 0.  0.
</event>
<event>
 5    0  0.5576108E-005  0.3320464E+03  0.7546771E-02  0.1070235E+00
         21   -1    0    0  502  501  0.00000000000E+00  0.00000000000E+00  0.16391689267E+03  0.16391689267E+03  0.00000000000E+00 0. -1.
         21   -1    0    0  501  502 -0.00000000000E+00 -0.00000000000E+00 -0.67262626455E+03  0.67262626455E+03  0.00000000000E+00 0. -1.
         25    1    1    2    0    0 -0.18021511966E+03  0.13534968925E+03 -0.29778322097E+03  0.39382340512E+03  0.12500000000E+03 0.  0.
         25    1    1    2    0    0  0.19626148346E+03 -0.11652369971E+03 -0.12253154598E+03  0.28763748407E+03  0.12500000000E+03 0.  0.
         25    1    1    2    0    0 -0.16046363794E+02 -0.18825989534E+02 -0.88394604939E+02  0.15508226802E+03  0.12500000000E+03 0.  0.
</event>
<event>
 5    0  0.5576108E-005  0.2101597E+03  0.7546771E-02  0.1141440E+00
         21   -1    0    0  502  501  0.00000000000E+00  0.00000000000E+00  0.13059362245E+03  0.13059362245E+03  0.00000000000E+00 0. -1.
         21   -1    0    0  501  502 -0.00000000000E+00 -0.00000000000E+00 -0.33820250571E+03  0.33820250571E+03  0.00000000000E+00 0. -1.
         25    1    1    2    0    0 -0.20992836777E+02 -0.38338829633E+01 -0.96829332685E+02  0.15955036046E+03  0.12500000000E+03 0.  0.
         25    1    1    2    0    0 -0.36880179276E+01 -0.67820494508E+02 -0.61470430792E+02  0.15497365845E+03  0.12500000000E+03 0.  0.
         25    1    1    2    0    0  0.24680854704E+02  0.71654377471E+02 -0.49309119786E+02  0.15427210925E+03  0.12500000000E+03 0.  0.
</event>
<event>
 5    0  0.5576108E-005  0.5628228E+03  0.7546771E-02  0.9985688E-01
         21   -1    0    0  502  501  0.00000000000E+00  0.00000000000E+00  0.12485825382E+04  0.12485825382E+04  0.00000000000E+00 0. -1.
         21   -1    0    0  501  502 -0.00000000000E+00 -0.00000000000E+00 -0.25370326168E+03  0.25370326168E+03  0.00000000000E+00 0. -1.
         25    1    1    2    0    0  0.54365066218E+02 -0.11754368905E+03  0.12260207225E+03  0.21778050276E+03  0.12500000000E+03 0.  0.
         25    1    1    2    0    0  0.35173138044E+03 -0.22666661983E+02  0.92121748777E+02  0.38514952700E+03  0.12500000000E+03 0.  0.
         25    1    1    2    0    0 -0.40609644666E+03  0.14021035103E+03  0.78015545547E+03  0.89935577011E+03  0.12500000000E+03 0.  0.
</event>
<event>
 5    0  0.5576108E-005  0.2739033E+03  0.7546771E-02  0.1099066E+00
         21   -1    0    0  502  501  0.00000000000E+00  0.00000000000E+00  0.69151952930E+02  0.69151952930E+02  0.00000000000E+00 0. -1.
         21   -1    0    0  501  502 -0.00000000000E+00 -0.00000000000E+00 -0.10849005908E+04  0.10849005908E+04  0.00000000000E+00 0. -1.
         25    1    1    2    0    0 -0.42393256710E+02 -0.21330663427E+02 -0.43056680584E+03  0.45084915405E+03  0.12500000000E+03 0.  0.
         25    1    1    2    0    0 -0.11412606609E+03 -0.32284351772E+02 -0.18714149222E+03  0.25438941889E+03  0.12500000000E+03 0.  0.
         25    1    1    2    0    0  0.15651932280E+03  0.53615015199E+02 -0.39804033981E+03  0.44881397080E+03  0.12500000000E+03 0.  0.
</event>
<event>
 5    0  0.5576108E-005  0.4541883E+03  0.7546771E-02  0.1026480E+00
         21   -1    0    0  502  501  0.00000000000E+00  0.00000000000E+00  0.42779644704E+03  0.42779644704E+03  0.00000000000E+00 0. -1.
         21   -1    0    0  501  502 -0.00000000000E+00 -0.00000000000E+00 -0.48220830570E+03  0.48220830570E+03  0.00000000000E+00 0. -1.
         25    1    1    2    0    0  0.14213179515E+03  0.30414506008E+02 -0.15889618113E+03  0.24899695932E+03  0.12500000000E+03 0.  0.
         25    1    1    2    0    0 -0.23526332653E+03 -0.15912101569E+03  0.26089602405E+03  0.40541345045E+03  0.12500000000E+03 0.  0.
         25    1    1    2    0    0  0.93131531373E+02  0.12870650968E+03 -0.15641170158E+03  0.25559434297E+03  0.12500000000E+03 0.  0.
</event>
<event>
 5    0  0.5576108E-005  0.2318120E+03  0.7546771E-02  0.1125371E+00
         21   -1    0    0  502  501  0.00000000000E+00  0.00000000000E+00  0.16725173709E+03  0.16725173709E+03  0.00000000000E+00 0.  1.
         21   -1    0    0  501  502 -0.00000000000E+00 -0.00000000000E+00 -0.32129288409E+03  0.32129288409E+03  0.00000000000E+00 0.  1.
         25    1    1    2    0    0  0.11774796757E+03  0.10946416431E+02 -0.15346546210E+02  0.17275683599E+03  0.12500000000E+03 0.  0.
         25    1    1    2    0    0 -0.91425069464E+02 -0.16318454762E+02 -0.80765545819E+02  0.17542208722E+03  0.12500000000E+03 0.  0.
         25    1    1    2    0    0 -0.26322898107E+02  0.53720383302E+01 -0.57929054970E+02  0.14036569798E+03  0.12500000000E+03 0.  0.
</event>
<event>
 5    0  0.5576108E-005  0.3473119E+03  0.7546771E-02  0.1063724E+00
         21   -1    0    0  502  501  0.00000000000E+00  0.00000000000E+00  0.17288107453E+03  0.17288107453E+03  0.00000000000E+00 0. -1.
         21   -1    0    0  501  502 -0.00000000000E+00 -0.00000000000E+00 -0.69773736186E+03  0.69773736186E+03  0.00000000000E+00 0. -1.
         25    1    1    2    0    0  0.17945025703E+03 -0.51480740617E+02 -0.16054560420E+03  0.27613864712E+03  0.12500000000E+03 0.  0.
         25    1    1    2    0    0  0.25099599171E+02  0.13508062576E+03 -0.26108587641E+03  0.32041785249E+03  0.12500000000E+03 0.  0.
         25    1    1    2    0    0 -0.20454985620E+03 -0.83599885139E+02 -0.10322480672E+03  0.27406193678E+03  0.12500000000E+03 0.  0.
</event>
<event>
 5    0  0.5576108E-005  0.2415597E+03  0.7546771E-02  0.1118758E+00
         21   -1    0    0  502  501  0.00000000000E+00  0.00000000000E+00  0.13411399898E+04  0.13411399898E+04  0.00000000000E+00 0. -1.
         21   -1    0    0  501  502 -0.00000000000E+00 -0.00000000000E+00 -0.43508579485E+02  0.43508579485E+02  0.00000000000E+00 0. -1.
         25    1    1    2    0    0  0.37843657946E+02 -0.46207734275E+01  0.76139366022E+03  0.77252753984E+03  0.12500000000E+03 0.  0.
         25    1    1    2    0    0 -0.51334995059E+02 -0.43927752434E+02  0.16821047674E+03  0.22019240140E+03  0.12500000000E+03 0.  0.
         25    1    1    2    0    0  0.13491337112E+02  0.48548525861E+02  0.36802727335E+03  0.39192862803E+03  0.12500000000E+03 0.  0.
</event>
<event>
 5    0  0.5576108E-005  0.3603471E+03  0.7546771E-02  0.1058447E+00
         21   -1    0    0  502  501  0.00000000000E+00  0.00000000000E+00  0.40608693423E+03  0.40608693423E+03  0.00000000000E+00 0. -1.
         21   -1    0    0  501  502 -0.00000000000E+00 -0.00000000000E+00 -0.31975914787E+03  0.31975914787E+03  0.00000000000E+00 0. -1.
         25    1    1    2    0    0  0.32317144910E+02 -0.12449346710E+03  0.55790440377E+02  0.18783129250E+03  0.12500000000E+03 0.  0.
         25    1    1    2    0    0 -0.40352688965E+01 -0.15574070647E+03  0.98122334471E+02  0.22254088067E+03  0.12500000000E+03 0.  0.
         25    1    1    2    0    0 -0.28281876014E+02  0.28023417357E+03 -0.67584988481E+02  0.31547390893E+03  0.12500000000E+03 0.  0.
</event>
<event>
 5    0  0.5576108E-005  0.4134465E+03  0.7546771E-02  0.1039221E+00
         21   -1    0    0  502  501  0.00000000000E+00  0.00000000000E+00  0.29019710116E+03  0.29019710116E+03  0.00000000000E+00 0.  1.
         21   -1    0    0  501  502 -0.00000000000E+00 -0.00000000000E+00 -0.58904110639E+03  0.58904110639E+03  0.00000000000E+00 0.  1.
         25    1    1    2    0    0 -0.23664396588E+03  0.69362773853E+02 -0.96740155652E+02  0.29290820866E+03  0.12500000000E+03 0.  0.
         25    1    1    2    0    0 -0.51806872407E+02  0.48033347897E+02 -0.20555510036E+03  0.25073702124E+03  0.12500000000E+03 0.  0.
         25    1    1    2    0    0  0.28845083829E+03 -0.11739612175E+03  0.34512507879E+01  0.33559297765E+03  0.12500000000E+03 0.  0.
</event>
<event>
 5    0  0.5576108E-005  0.3142327E+03  0.7546771E-02  0.1078335E+00
         21   -1    0    0  502  501  0.00000000000E+00  0.00000000000E+00  0.96113383059E+03  0.96113383059E+03  0.00000000000E+00 0.  1.
         21   -1    0    0  501  502 -0.00000000000E+00 -0.00000000000E+00 -0.10273511611E+03  0.10273511611E+03  0.00000000000E+00 0.  1.
         25    1    1    2    0    0 -0.70921945943E+02 -0.10358488258E+02  0.20881743117E+02  0.14559624958E+03  0.12500000000E+03 0.  0.
         25    1    1    2    0    0 -0.63032988783E+02 -0.76237770262E+02  0.24720025373E+03  0.29413996793E+03  0.12500000000E+03 0.  0.
         25    1    1    2    0    0  0.13395493473E+03  0.86596258520E+02  0.59031671763E+03  0.62413272919E+03  0.12500000000E+03 0.  0.
</event>
<event>
 5    0  0.5576108E-005  0.2839878E+03  0.7546771E-02  0.1093531E+00
         21   -1    0    0  502  501  0.00000000000E+00  0.00000000000E+00  0.74436112127E+02  0.74436112127E+02  0.00000000000E+00 0.  1.
         21   -1    0    0  501  502 -0.00000000000E+00 -0.00000000000E+00 -0.10834667699E+04  0.10834667699E+04  0.00000000000E+00 0.  1.
         25    1    1    2    0    0  0.30902648395E+02  0.52353879797E+02 -0.41325785809E+03  0.43600798121E+03  0.12500000000E+03 0.  0.
         25    1    1    2    0    0 -0.13035317893E+03  0.75920232971E+02 -0.35749565272E+03  0.40765668735E+03  0.12500000000E+03 0.  0.
         25    1    1    2    0    0  0.99450530536E+02 -0.12827411277E+03 -0.23827714694E+03  0.31423821344E+03  0.12500000000E+03 0.  0.
</event>
<event>
 5    0  0.5576108E-005  0.3440884E+03  0.7546771E-02  0.1065068E+00
         21   -1    0    0  502  501  0.00000000000E+00  0.00000000000E+00  0.22277641182E+03  0.22277641182E+03  0.00000000000E+00 0.  1.
         21   -1    0    0  501  502 -0.00000000000E+00 -0.00000000000E+00 -0.53146027537E+03  0.53146027537E+03  0.00000000000E+00 0.  1.
         25    1    1    2    0    0 -0.70387010397E+02 -0.11054485561E+03  0.22001559386E+00  0.18110644588E+03  0.12500000000E+03 0.  0.
         25    1    1    2    0    0  0.75022841706E+02  0.22328223101E+02  0.70900684089E+02  0.16364254743E+03  0.12500000000E+03 0.  0.
         25    1    1    2    0    0 -0.46358313092E+01  0.88216632507E+02 -0.37980456324E+03  0.40948769388E+03  0.12500000000E+03 0.  0.
</event>
<event>
 5    0  0.5576108E-005  0.2518744E+03  0.7546771E-02  0.1112126E+00
         21   -1    0    0  502  501  0.00000000000E+00  0.00000000000E+00  0.30882034506E+03  0.30882034506E+03  0.00000000000E+00 0. -1.
         21   -1    0    0  501  502 -0.00000000000E+00 -0.00000000000E+00 -0.20542916719E+03  0.20542916719E+03  0.00000000000E+00 0. -1.
         25    1    1    2    0    0  0.13699541986E+02 -0.75670326333E+02  0.15472595812E+03  0.21325758569E+03  0.12500000000E+03 0.  0.
         25    1    1    2    0    0  0.18218121611E+02  0.41570588368E+02 -0.91750408635E+02  0.16156469682E+03  0.12500000000E+03 0.  0.
         25    1    1    2    0    0 -0.31917663598E+02  0.34099737965E+02  0.40415628389E+02  0.13942722975E+03  0.12500000000E+03 0.  0.
</event>
<event>
 5    0  0.5576108E-005  0.3890965E+03  0.7546771E-02  0.1047622E+00
         21   -1    0    0  502  501  0.00000000000E+00  0.00000000000E+00  0.22535651481E+03  0.22535651481E+03  0.00000000000E+00 0.  1.
         21   -1    0    0  501  502 -0.00000000000E+00 -0.00000000000E+00 -0.67180693722E+03  0.67180693722E+03  0.00000000000E+00 0.  1.
         25    1    1    2    0    0  0.22310115035E+03 -0.37250967579E+02 -0.24314688599E+03  0.35483399786E+03  0.12500000000E+03 0.  0.
         25    1    1    2    0    0  0.50626787889E+00 -0.14068166645E+03 -0.49660458745E+02  0.19463491142E+03  0.12500000000E+03 0.  0.
         25    1    1    2    0    0 -0.22360741823E+03  0.17793263403E+03 -0.15364307768E+03  0.34769454275E+03  0.12500000000E+03 0.  0.
</event>
<event>
 5    0  0.6347233E-005  0.2915273E+03  0.7546771E-02  0.1089554E+00
         21   -1    0    0  502  501  0.00000000000E+00  0.00000000000E+00  0.21062199471E+03  0.21062199471E+03  0.00000000000E+00 0. -1.
         21   -1    0    0  501  502 -0.00000000000E+00 -0.00000000000E+00 -0.40351028978E+03  0.40351028978E+03  0.00000000000E+00 0. -1.
         25    1    1    2    0    0  0.13086812343E+02  0.70461335863E+02  0.66944603923E+02  0.15887933945E+03  0.12500000000E+03 0.  0.
         25    1    1    2    0    0 -0.87327956553E+02 -0.57018724133E+02 -0.26289196578E+03  0.30921593195E+03  0.12500000000E+03 0.  0.
         25    1    1    2    0    0  0.74241144209E+02 -0.13442611730E+02  0.30590667892E+01  0.14603701309E+03  0.12500000000E+03 0.  0.
</event>
<event>
 5    0  0.5576108E-005  0.3427495E+03  0.7546771E-02  0.1065631E+00
         21   -1    0    0  502  501  0.00000000000E+00  0.00000000000E+00  0.87855863278E+02  0.87855863278E+02  0.00000000000E+00 0. -1.
         21   -1    0    0  501  502 -0.00000000000E+00 -0.00000000000E+00 -0.13371582426E+04  0.13371582426E+04  0.00000000000E+00 0. -1.
         25    1    1    2    0    0  0.68752628827E+02 -0.15932504086E+02 -0.59296952068E+03  0.61009722267E+03  0.12500000000E+03 0.  0.
         25    1    1    2    0    0 -0.19639247697E+03 -0.16591142650E+02 -0.15107418887E+03  0.27801741235E+03  0.12500000000E+03 0.  0.
         25    1    1    2    0    0  0.12763984814E+03  0.32523646735E+02 -0.50525866973E+03  0.53689947082E+03  0.12500000000E+03 0.  0.
</event>
<event>
 5    0  0.5576108E-005  0.2175727E+03  0.7546771E-02  0.1135706E+00
         21   -1    0    0  502  501  0.00000000000E+00  0.00000000000E+00  0.20063322314E+03  0.20063322314E+03  0.00000000000E+00 0.  1.
         21   -1    0    0  501  502 -0.00000000000E+00 -0.00000000000E+00 -0.23594245453E+03  0.23594245453E+03  0.00000000000E+00 0.  1.
         25    1    1    2    0    0 -0.86988734007E+02 -0.21320666686E+02 -0.38237067172E+02  0.15845719920E+03  0.12500000000E+03 0.  0.
         25    1    1    2    0    0  0.45238622640E+02  0.48013880901E+02 -0.16339888450E+02  0.14228091120E+03  0.12500000000E+03 0.  0.
         25    1    1    2    0    0  0.41750111367E+02 -0.26693214215E+02  0.19267724237E+02  0.13583756727E+03  0.12500000000E+03 0.  0.
</event>
<event>
 5    0  0.5576108E-005  0.2799931E+03  0.7546771E-02  0.1095693E+00
         21   -1    0    0  502  501  0.00000000000E+00  0.00000000000E+00  0.12247415399E+03  0.12247415399E+03  0.00000000000E+00 0.  1.
         21   -1    0    0  501  502 -0.00000000000E+00 -0.00000000000E+00 -0.64010372126E+03  0.64010372126E+03  0.00000000000E+00 0.  1.
         25    1    1    2    0    0  0.75255588842E+02 -0.16531211033E+02 -0.26327364562E+03  0.30145430345E+03  0.12500000000E+03 0.  0.
         25    1    1    2    0    0 -0.17682601525E+03 -0.24064088312E+02 -0.15751115911E+03  0.26885179051E+03  0.12500000000E+03 0.  0.
         25    1    1    2    0    0  0.10157042641E+03  0.40595299345E+02 -0.96844762542E+02  0.19227178129E+03  0.12500000000E+03 0.  0.
</event>
<event>
 5    0  0.5576108E-005  0.2558359E+03  0.7546771E-02  0.1109671E+00
         21   -1    0    0  502  501  0.00000000000E+00  0.00000000000E+00  0.18526561012E+03  0.18526561012E+03  0.00000000000E+00 0.  1.
         21   -1    0    0  501  502 -0.00000000000E+00 -0.00000000000E+00 -0.35328741831E+03  0.35328741831E+03  0.00000000000E+00 0.  1.
         25    1    1    2    0    0  0.66800266868E+02  0.63332678832E+02  0.25190070111E+02  0.15726679082E+03  0.12500000000E+03 0.  0.
         25    1    1    2    0    0 -0.12189511359E+03 -0.77448204779E+02 -0.10338198136E+03  0.21718535220E+03  0.12500000000E+03 0.  0.
         25    1    1    2    0    0  0.55094846725E+02  0.14115525947E+02 -0.89829896936E+02  0.16410088541E+03  0.12500000000E+03 0.  0.
</event>
<event>
 5    0  0.5576108E-005  0.2776656E+03  0.7546771E-02  0.1096971E+00
         21   -1    0    0  502  501  0.00000000000E+00  0.00000000000E+00  0.34502453705E+03  0.34502453705E+03  0.00000000000E+00 0.  1.
         21   -1    0    0  501  502 -0.00000000000E+00 -0.00000000000E+00 -0.22345717714E+03  0.22345717714E+03  0.00000000000E+00 0.  1.
         25    1    1    2    0    0 -0.10601201842E+02 -0.89831837458E+02  0.66153530338E+02  0.16787922468E+03  0.12500000000E+03 0.  0.
         25    1    1    2    0    0  0.41364340204E+02  0.18419090418E+03 -0.13363223938E+02  0.22680580587E+03  0.12500000000E+03 0.  0.
         25    1    1    2    0    0 -0.30763138362E+02 -0.94359066719E+02  0.68777053511E+02  0.17379668364E+03  0.12500000000E+03 0.  0.
</event>
<event>
 5    0  0.5576108E-005  0.5868690E+03  0.7546771E-02  0.9933030E-01
         21   -1    0    0  502  501  0.00000000000E+00  0.00000000000E+00  0.86813514175E+03  0.86813514175E+03  0.00000000000E+00 0. -1.
         21   -1    0    0  501  502 -0.00000000000E+00 -0.00000000000E+00 -0.39672990651E+03  0.39672990651E+03  0.00000000000E+00 0. -1.
         25    1    1    2    0    0  0.52978730529E+02  0.70781603293E+02  0.13287841632E+03  0.20272753828E+03  0.12500000000E+03 0.  0.
         25    1    1    2    0    0 -0.59806226621E+02  0.39182496534E+03 -0.83088425343E+02  0.42383047865E+03  0.12500000000E+03 0.  0.
         25    1    1    2    0    0  0.68274960917E+01 -0.46260656864E+03  0.42161524426E+03  0.63830703133E+03  0.12500000000E+03 0.  0.
</event>
<event>
 5    0  0.5576108E-005  0.2795994E+03  0.7546771E-02  0.1095908E+00
         21   -1    0    0  502  501  0.00000000000E+00  0.00000000000E+00  0.12479078927E+03  0.12479078927E+03  0.00000000000E+00 0.  1.
         21   -1    0    0  501  502 -0.00000000000E+00 -0.00000000000E+00 -0.62645518814E+03  0.62645518814E+03  0.00000000000E+00 0.  1.
         25    1    1    2    0    0 -0.11794539544E+02 -0.19619038173E+02 -0.23641426856E+03  0.26840403164E+03  0.12500000000E+03 0.  0.
         25    1    1    2    0    0  0.58740338551E+02 -0.10209064959E+03 -0.24756403396E+03  0.30130695149E+03  0.12500000000E+03 0.  0.
         25    1    1    2    0    0 -0.46945799007E+02  0.12170968777E+03 -0.17686096353E+02  0.18153499427E+03  0.12500000000E+03 0.  0.
</event>
<event>
 5    0  0.6063722E-005  0.2706520E+03  0.7546771E-02  0.1100907E+00
         21   -1    0    0  502  501  0.00000000000E+00  0.00000000000E+00  0.29360491101E+03  0.29360491101E+03  0.00000000000E+00 0. -1.
         21   -1    0    0  501  502 -0.00000000000E+00 -0.00000000000E+00 -0.24949348288E+03  0.24949348288E+03  0.00000000000E+00 0.  1.
         25    1    1    2    0    0 -0.13946201589E+02 -0.10652256546E+03  0.52018831879E+02  0.17283666382E+03  0.12500000000E+03 0.  0.
         25    1    1    2    0    0 -0.66408604416E+02  0.15871718614E+03 -0.30151523995E+01  0.21268601049E+03  0.12500000000E+03 0.  0.
         25    1    1    2    0    0  0.80354806005E+02 -0.52194620682E+02 -0.48922513439E+01  0.15757571957E+03  0.12500000000E+03 0.  0.
</event>
<event>
 5    0  0.5576108E-005  0.2844310E+03  0.7546771E-02  0.1093293E+00
         21   -1    0    0  502  501  0.00000000000E+00  0.00000000000E+00  0.15338270185E+03  0.15338270185E+03  0.00000000000E+00 0. -1.
         21   -1    0    0  501  502 -0.00000000000E+00 -0.00000000000E+00 -0.52744531887E+03  0.52744531887E+03  0.00000000000E+00 0. -1.
         25    1    1    2    0    0  0.35412504169E+02 -0.29329081494E+02 -0.76312018098E+02  0.15350167614E+03  0.12500000000E+03 0.  0.
         25    1    1    2    0    0 -0.10904540091E+03 -0.10083003992E+03 -0.26684887507E+03  0.32998623992E+03  0.12500000000E+03 0.  0.
         25    1    1    2    0    0  0.73632896739E+02  0.13015912141E+03 -0.30901723857E+02  0.19734010466E+03  0.12500000000E+03 0.  0.
</event>
<event>
 5    0  0.5576108E-005  0.2580284E+03  0.7546771E-02  0.1108334E+00
         21   -1    0    0  502  501  0.00000000000E+00  0.00000000000E+00  0.29697071278E+02  0.29697071278E+02  0.00000000000E+00 0. -1.
         21   -1    0    0  501  502 -0.00000000000E+00 -0.00000000000E+00 -0.22419268561E+04  0.22419268561E+04  0.00000000000E+00 0. -1.
         25    1    1    2    0    0  0.21781099293E+02  0.12661940830E+02 -0.17806868700E+03  0.21901643391E+03  0.12500000000E+03 0.  0.
         25    1    1    2    0    0  0.18502482367E+02  0.27108737997E+02 -0.12358404738E+04  0.12425795355E+04  0.12500000000E+03 0.  0.
         25    1    1    2    0    0 -0.40283581660E+02 -0.39770678827E+02 -0.79832062407E+03  0.81002795795E+03  0.12500000000E+03 0.  0.
</event>
<event>
 5    0  0.5576108E-005  0.3148554E+03  0.7546771E-02  0.1078042E+00
         21   -1    0    0  502  501  0.00000000000E+00  0.00000000000E+00  0.58160016812E+02  0.58160016812E+02  0.00000000000E+00 0. -1.
         21   -1    0    0  501  502 -0.00000000000E+00 -0.00000000000E+00 -0.17045026308E+04  0.17045026308E+04  0.00000000000E+00 0. -1.
         25    1    1    2    0    0 -0.17124233499E+03 -0.11164569792E+03 -0.63742054067E+03  0.68096890151E+03  0.12500000000E+03 0.  0.
         25    1    1    2    0    0  0.16959048215E+03 -0.92815032941E+01 -0.46369332196E+03  0.50939530305E+03  0.12500000000E+03 0.  0.
         25    1    1    2    0    0  0.16518528477E+01  0.12092720122E+03 -0.54522875138E+03  0.57229844308E+03  0.12500000000E+03 0.  0.
</event>
<event>
 5    0  0.5576108E-005  0.2725545E+03  0.7546771E-02  0.1099826E+00
         21   -1    0    0  502  501  0.00000000000E+00  0.00000000000E+00  0.47349000610E+03  0.47349000610E+03  0.00000000000E+00 0. -1.
         21   -1    0    0  501  502 -0.00000000000E+00 -0.00000000000E+00 -0.15689027845E+03  0.15689027845E+03  0.00000000000E+00 0. -1.
         25    1    1    2    0    0 -0.13383956499E+02  0.32797653321E+01  0.75785672214E+02  0.14682763795E+03  0.12500000000E+03 0.  0.
         25    1    1    2    0    0 -0.14977831954E+03 -0.40142277029E+02  0.17352004164E+03  0.26415743840E+03  0.12500000000E+03 0.  0.
         25    1    1    2    0    0  0.16316227604E+03  0.36862511697E+02  0.67294013798E+02  0.21939520820E+03  0.12500000000E+03 0.  0.
</event>
<event>
 5    0  0.5576108E-005  0.4088540E+03  0.7546771E-02  0.1040756E+00
         21   -1    0    0  502  501  0.00000000000E+00  0.00000000000E+00  0.13546823215E+03  0.13546823215E+03  0.00000000000E+00 0.  1.
         21   -1    0    0  501  502 -0.00000000000E+00 -0.00000000000E+00 -0.12339542444E+04  0.12339542444E+04  0.00000000000E+00 0.  1.
         25    1    1    2    0    0  0.10069490971E+03 -0.79446343350E+02 -0.24286088698E+03  0.30175751314E+03  0.12500000000E+03 0.  0.
         25    1    1    2    0    0 -0.44797505760E+00 -0.19244169920E+02  0.54915179351E+02  0.13788116507E+03  0.12500000000E+03 0.  0.
         25    1    1    2    0    0 -0.10024693465E+03  0.98690513271E+02 -0.91054030461E+03  0.92978379833E+03  0.12500000000E+03 0.  0.
</event>
<event>
 5    0  0.5758185E-005  0.2876723E+03  0.7546771E-02  0.1091571E+00
         21   -1    0    0  502  501  0.00000000000E+00  0.00000000000E+00  0.29278932899E+03  0.29278932899E+03  0.00000000000E+00 0.  1.
         21   -1    0    0  501  502 -0.00000000000E+00 -0.00000000000E+00 -0.28264479559E+03  0.28264479559E+03  0.00000000000E+00 0.  1.
         25    1    1    2    0    0 -0.69597443949E+02 -0.34394770429E+02  0.49724033124E+02  0.15531994047E+03  0.12500000000E+03 0.  0.
         25    1    1    2    0    0 -0.73344318068E+02 -0.10791285420E+03 -0.24435228778E+02  0.18233664881E+03  0.12500000000E+03 0.  0.
         25    1    1    2    0    0  0.14294176202E+03  0.14230762463E+03 -0.15144270944E+02  0.23777753531E+03  0.12500000000E+03 0.  0.
</event>
<event>
 5    0  0.5576108E-005  0.2079279E+03  0.7546771E-02  0.1143217E+00
         21   -1    0    0  502  501  0.00000000000E+00  0.00000000000E+00  0.10206300353E+03  0.10206300353E+03  0.00000000000E+00 0.  1.
         21   -1    0    0  501  502 -0.00000000000E+00 -0.00000000000E+00 -0.42360134787E+03  0.42360134787E+03  0.00000000000E+00 0.  1.
         25    1    1    2    0    0 -0.12803720944E+02 -0.12117216121E+02 -0.59155600827E+02  0.13940999715E+03  0.12500000000E+03 0.  0.
         25    1    1    2    0    0 -0.46402986124E+02  0.19951179358E+02 -0.78436439690E+02  0.15597615763E+03  0.12500000000E+03 0.  0.
         25    1    1    2    0    0  0.59206707068E+02 -0.78339632378E+01 -0.18394630383E+03  0.23027819661E+03  0.12500000000E+03 0.  0.
</event>
<event>
 5    0  0.5576108E-005  0.2272877E+03  0.7546771E-02  0.1128564E+00
         21   -1    0    0  502  501  0.00000000000E+00  0.00000000000E+00  0.15869818382E+03  0.15869818382E+03  0.00000000000E+00 0. -1.
         21   -1    0    0  501  502 -0.00000000000E+00 -0.00000000000E+00 -0.32552155262E+03  0.32552155262E+03  0.00000000000E+00 0. -1.
         25    1    1    2    0    0 -0.97875832494E+01 -0.39144689836E+02  0.39111602311E+02  0.13705043219E+03  0.12500000000E+03 0.  0.
         25    1    1    2    0    0  0.53413713312E+02  0.41951269745E+02 -0.74481183313E+02  0.16057826899E+03  0.12500000000E+03 0.  0.
         25    1    1    2    0    0 -0.43626130063E+02 -0.28065799088E+01 -0.13145378780E+03  0.18659103527E+03  0.12500000000E+03 0.  0.
</event>
<event>
 5    0  0.5576108E-005  0.2273295E+03  0.7546771E-02  0.1128534E+00
         21   -1    0    0  502  501  0.00000000000E+00  0.00000000000E+00  0.21810738507E+04  0.21810738507E+04  0.00000000000E+00 0.  1.
         21   -1    0    0  501  502 -0.00000000000E+00 -0.00000000000E+00 -0.23694147462E+02  0.23694147462E+02  0.00000000000E+00 0.  1.
         25    1    1    2    0    0  0.63578148164E+02 -0.42828557289E+02  0.68728028024E+03  0.70274863916E+03  0.12500000000E+03 0.  0.
         25    1    1    2    0    0  0.32592900475E+01 -0.29021888887E+02  0.93654540253E+03  0.94530163652E+03  0.12500000000E+03 0.  0.
         25    1    1    2    0    0 -0.66837438211E+02  0.71850446176E+02  0.53355402050E+03  0.55671772251E+03  0.12500000000E+03 0.  0.
</event>
<event>
 5    0  0.5576108E-005  0.4735004E+03  0.7546771E-02  0.1020937E+00
         21   -1    0    0  502  501  0.00000000000E+00  0.00000000000E+00  0.52510939865E+03  0.52510939865E+03  0.00000000000E+00 0.  1.
         21   -1    0    0  501  502 -0.00000000000E+00 -0.00000000000E+00 -0.42696370086E+03  0.42696370086E+03  0.00000000000E+00 0.  1.
         25    1    1    2    0    0 -0.24278544950E+03  0.90796169705E+02 -0.11681455328E+03  0.31057907009E+03  0.12500000000E+03 0.  0.
         25    1    1    2    0    0  0.11620776580E+03  0.59002838682E+02  0.33440467658E+03  0.38004876993E+03  0.12500000000E+03 0.  0.
         25    1    1    2    0    0  0.12657768370E+03 -0.14979900839E+03 -0.11944442551E+03  0.26144525949E+03  0.12500000000E+03 0.  0.
</event>
<event>
 5    0  0.5576108E-005  0.3577048E+03  0.7546771E-02  0.1059496E+00
         21   -1    0    0  502  501  0.00000000000E+00  0.00000000000E+00  0.34145772161E+03  0.34145772161E+03  0.00000000000E+00 0. -1.
         21   -1    0    0  501  502 -0.00000000000E+00 -0.00000000000E+00 -0.37472491620E+03  0.37472491620E+03  0.00000000000E+00 0. -1.
         25    1    1    2    0    0 -0.45086420288E+02 -0.78830024648E+02 -0.53472687546E+02  0.16349705317E+03  0.12500000000E+03 0.  0.
         25    1    1    2    0    0 -0.10841280511E+02  0.58870394495E+01  0.24746166942E+03  0.27751480759E+03  0.12500000000E+03 0.  0.
         25    1    1    2    0    0  0.55927700799E+02  0.72942985199E+02 -0.22725617646E+03  0.27517077706E+03  0.12500000000E+03 0.  0.
</event>
<event>
 5    0  0.5576108E-005  0.3601186E+03  0.7546771E-02  0.1058537E+00
         21   -1    0    0  502  501  0.00000000000E+00  0.00000000000E+00  0.14581466795E+03  0.14581466795E+03  0.00000000000E+00 0.  1.
         21   -1    0    0  501  502 -0.00000000000E+00 -0.00000000000E+00 -0.88938497139E+03  0.88938497139E+03  0.00000000000E+00 0.  1.
         25    1    1    2    0    0  0.22597010437E+02  0.33136130704E+02 -0.58517417225E+03  0.59971863395E+03  0.12500000000E+03 0.  0.
         25    1    1    2    0    0 -0.73558865693E+02 -0.11764436491E+03  0.29612870749E+02  0.18908470438E+03  0.12500000000E+03 0.  0.
         25    1    1    2    0    0  0.50961855257E+02  0.84508234210E+02 -0.18800900194E+03  0.24639630101E+03  0.12500000000E+03 0.  0.
</event>
<event>
 5    0  0.5576108E-005  0.2485910E+03  0.7546771E-02  0.1114199E+00
         21   -1    0    0  502  501  0.00000000000E+00  0.00000000000E+00  0.68000729514E+02  0.68000729514E+02  0.00000000000E+00 0. -1.
         21   -1    0    0  501  502 -0.00000000000E+00 -0.00000000000E+00 -0.90877676112E+03  0.90877676112E+03  0.00000000000E+00 0. -1.
         25    1    1    2    0    0 -0.10885834248E+03  0.26668614378E+02 -0.19387567726E+03  0.25646467974E+03  0.12500000000E+03 0.  0.
         25    1    1    2    0    0  0.96749787507E+02  0.10058935029E+02 -0.49553771226E+03  0.52023487756E+03  0.12500000000E+03 0.  0.
         25    1    1    2    0    0  0.12108554975E+02 -0.36727549408E+02 -0.15136264209E+03  0.20007793334E+03  0.12500000000E+03 0.  0.
</event>
<event>
 5    0  0.5576108E-005  0.2892152E+03  0.7546771E-02  0.1090760E+00
         21   -1    0    0  502  501  0.00000000000E+00  0.00000000000E+00  0.54458668195E+03  0.54458668195E+03  0.00000000000E+00 0.  1.
         21   -1    0    0  501  502 -0.00000000000E+00 -0.00000000000E+00 -0.15359433784E+03  0.15359433784E+03  0.00000000000E+00 0.  1.
         25    1    1    2    0    0 -0.83342771874E+02  0.25903108334E+02  0.64241085863E+02  0.16543550332E+03  0.12500000000E+03 0.  0.
         25    1    1    2    0    0  0.90820316316E+02 -0.74307186569E+02 -0.84511591724E+01  0.17165753675E+03  0.12500000000E+03 0.  0.
         25    1    1    2    0    0 -0.74775444411E+01  0.48404078235E+02  0.33520241741E+03  0.36108797972E+03  0.12500000000E+03 0.  0.
</event>
<event>
 5    0  0.5576108E-005  0.3833100E+03  0.7546771E-02  0.1049717E+00
         21   -1    0    0  502  501  0.00000000000E+00  0.00000000000E+00  0.80096299528E+02  0.80096299528E+02  0.00000000000E+00 0. -1.
         21   -1    0    0  501  502 -0.00000000000E+00 -0.00000000000E+00 -0.18343735057E+04  0.18343735057E+04  0.00000000000E+00 0. -1.
         25    1    1    2    0    0  0.47957223583E+02  0.18659051411E+03 -0.27115117679E+03  0.35533628568E+03  0.12500000000E+03 0.  0.
         25    1    1    2    0    0 -0.10292816039E+02  0.16576940023E+02 -0.11863309083E+03  0.17343456185E+03  0.12500000000E+03 0.  0.
         25    1    1    2    0    0 -0.37664407544E+02 -0.20316745413E+03 -0.13644929385E+04  0.13856989577E+04  0.12500000000E+03 0.  0.
</event>
<event>
 5    0  0.5576108E-005  0.2741358E+03  0.7546771E-02  0.1098936E+00
         21   -1    0    0  502  501  0.00000000000E+00  0.00000000000E+00  0.21514443338E+03  0.21514443338E+03  0.00000000000E+00 0. -1.
         21   -1    0    0  501  502 -0.00000000000E+00 -0.00000000000E+00 -0.34930228631E+03  0.34930228631E+03  0.00000000000E+00 0. -1.
         25    1    1    2    0    0  0.57431062094E+02 -0.32523479170E+01  0.78611866062E+02  0.15847312121E+03  0.12500000000E+03 0.  0.
         25    1    1    2    0    0 -0.96323882618E+02 -0.22344866880E+01 -0.20469488766E+01  0.15783685657E+03  0.12500000000E+03 0.  0.
         25    1    1    2    0    0  0.38892820524E+02  0.54868346050E+01 -0.21072277011E+03  0.24813674191E+03  0.12500000000E+03 0.  0.
</event>
<event>
 5    0  0.5576108E-005  0.3271879E+03  0.7546771E-02  0.1072388E+00
         21   -1    0    0  502  501  0.00000000000E+00  0.00000000000E+00  0.19314963350E+03  0.19314963350E+03  0.00000000000E+00 0.  1.
         21   -1    0    0  501  502 -0.00000000000E+00 -0.00000000000E+00 -0.55424356348E+03  0.55424356348E+03  0.00000000000E+00 0.  1.
         25    1    1    2    0    0 -0.12126977479E+03  0.18799476316E+03 -0.50132444726E+02  0.26112573842E+03  0.12500000000E+03 0.  0.
         25    1    1    2    0    0 -0.14200022712E+02 -0.60929070001E+02 -0.66547296818E+02  0.15481451783E+03  0.12500000000E+03 0.  0.
         25    1    1    2    0    0  0.13546979750E+03 -0.12706569316E+03 -0.24441418844E+03  0.33145294073E+03  0.12500000000E+03 0.  0.
</event>
<event>
 5    0  0.5576108E-005  0.4697624E+03  0.7546771E-02  0.1021987E+00
         21   -1    0    0  502  501  0.00000000000E+00  0.00000000000E+00  0.33068151665E+03  0.33068151665E+03  0.00000000000E+00 0. -1.
         21   -1    0    0  501  502 -0.00000000000E+00 -0.00000000000E+00 -0.66733916210E+03  0.66733916210E+03  0.00000000000E+00 0. -1.
         25    1    1    2    0    0 -0.73601731719E+02  0.30760132422E+03 -0.43876481430E+03  0.55513543558E+03  0.12500000000E+03 0.  0.
         25    1    1    2    0    0  0.37329114037E+02 -0.12535553534E+03  0.12175268859E+03  0.21807381818E+03  0.12500000000E+03 0.  0.
         25    1    1    2    0    0  0.36272617682E+02 -0.18224578888E+03 -0.19645519737E+02  0.22481142498E+03  0.12500000000E+03 0.  0.
</event>
<event>
 5    0  0.5576108E-005  0.2642020E+03  0.7546771E-02  0.1104645E+00
         21   -1    0    0  502  501  0.00000000000E+00  0.00000000000E+00  0.24485972324E+03  0.24485972324E+03  0.00000000000E+00 0.  1.
         21   -1    0    0  501  502 -0.00000000000E+00 -0.00000000000E+00 -0.28507228867E+03  0.28507228867E+03  0.00000000000E+00 0.  1.
         25    1    1    2    0    0  0.10652809161E+03 -0.28736240267E+02  0.21518260363E+01  0.16674422377E+03  0.12500000000E+03 0.  0.
         25    1    1    2    0    0 -0.36742118068E+02  0.20763997557E+02  0.96597727546E+02  0.16351528308E+03  0.12500000000E+03 0.  0.
         25    1    1    2    0    0 -0.69785973539E+02  0.79722427105E+01 -0.13896211901E+03  0.19967250506E+03  0.12500000000E+03 0.  0.
</event>
<event>
 5    0  0.1319872E-004  0.6292375E+03  0.7546771E-02  0.9846538E-01
         21   -1    0    0  502  501  0.00000000000E+00  0.00000000000E+00  0.29884224662E+03  0.29884224662E+03  0.00000000000E+00 0.  1.
         21   -1    0    0  501  502 -0.00000000000E+00 -0.00000000000E+00 -0.13249125395E+04  0.13249125395E+04  0.00000000000E+00 0.  1.
         25    1    1    2    0    0 -0.50429630048E+03  0.65457701785E+02 -0.32131091601E+03  0.61438194484E+03  0.12500000000E+03 0.  0.
         25    1    1    2    0    0  0.20259732625E+02  0.52915715508E+02 -0.37394707715E+03  0.39833647363E+03  0.12500000000E+03 0.  0.
         25    1    1    2    0    0  0.48403656785E+03 -0.11837341729E+03 -0.33081229972E+03  0.61103636765E+03  0.12500000000E+03 0.  0.
</event>
<event>
 5    0  0.5576108E-005  0.2493359E+03  0.7546771E-02  0.1113725E+00
         21   -1    0    0  502  501  0.00000000000E+00  0.00000000000E+00  0.35807304124E+04  0.35807304124E+04  0.00000000000E+00 0. -1.
         21   -1    0    0  501  502 -0.00000000000E+00 -0.00000000000E+00 -0.17361925268E+02  0.17361925268E+02  0.00000000000E+00 0. -1.
         25    1    1    2    0    0 -0.55571263337E+02  0.17305044226E+02  0.13744842852E+04  0.13813832488E+04  0.12500000000E+03 0.  0.
         25    1    1    2    0    0  0.52746562162E+02  0.79107428331E+02  0.15763264494E+04  0.15841307586E+04  0.12500000000E+03 0.  0.
         25    1    1    2    0    0  0.28247011747E+01 -0.96412472557E+02  0.61255775253E+03  0.63257833032E+03  0.12500000000E+03 0.  0.
</event>
<event>
 5    0  0.5576108E-005  0.3138987E+03  0.7546771E-02  0.1078492E+00
         21   -1    0    0  502  501  0.00000000000E+00  0.00000000000E+00  0.10126897100E+04  0.10126897100E+04  0.00000000000E+00 0.  1.
         21   -1    0    0  501  502 -0.00000000000E+00 -0.00000000000E+00 -0.97297710426E+02  0.97297710426E+02  0.00000000000E+00 0.  1.
         25    1    1    2    0    0  0.12369999797E+03  0.17751860071E+03  0.42139445341E+03  0.48991104138E+03  0.12500000000E+03 0.  0.
         25    1    1    2    0    0 -0.57493911192E+02 -0.16475066573E+03  0.38595132250E+03  0.44162399734E+03  0.12500000000E+03 0.  0.
         25    1    1    2    0    0 -0.66206086779E+02 -0.12767934977E+02  0.10804622364E+03  0.17845238170E+03  0.12500000000E+03 0.  0.
</event>
<event>
 5    0  0.5576108E-005  0.2858484E+03  0.7546771E-02  0.1092537E+00
         21   -1    0    0  502  501  0.00000000000E+00  0.00000000000E+00  0.11149980882E+03  0.11149980882E+03  0.00000000000E+00 0. -1.
         21   -1    0    0  501  502 -0.00000000000E+00 -0.00000000000E+00 -0.73282015199E+03  0.73282015199E+03  0.00000000000E+00 0. -1.
         25    1    1    2    0    0  0.13955064495E+03 -0.10302994545E+02 -0.17337071241E+03  0.25546611932E+03  0.12500000000E+03 0.  0.
         25    1    1    2    0    0 -0.33151018260E+01 -0.80152662643E+02 -0.83747528389E+02  0.17051125400E+03  0.12500000000E+03 0.  0.
         25    1    1    2    0    0 -0.13623554312E+03  0.90455657189E+02 -0.36420210237E+03  0.41834258748E+03  0.12500000000E+03 0.  0.
</event>
<event>
 5    0  0.5576108E-005  0.2741652E+03  0.7546771E-02  0.1098919E+00
         21   -1    0    0  502  501  0.00000000000E+00  0.00000000000E+00  0.10520305438E+04  0.10520305438E+04  0.00000000000E+00 0.  1.
         21   -1    0    0  501  502 -0.00000000000E+00 -0.00000000000E+00 -0.71449010312E+02  0.71449010312E+02  0.00000000000E+00 0.  1.
         25    1    1    2    0    0  0.68063903013E+02  0.10420753295E+03  0.21225398490E+03  0.27598670063E+03  0.12500000000E+03 0.  0.
         25    1    1    2    0    0 -0.13770052192E+03 -0.10076842426E+03  0.40320153989E+03  0.45531548495E+03  0.12500000000E+03 0.  0.
         25    1    1    2    0    0  0.69636618909E+02 -0.34391086887E+01  0.36512600868E+03  0.39217736852E+03  0.12500000000E+03 0.  0.
</event>
<event>
 5    0  0.5576108E-005  0.3010090E+03  0.7546771E-02  0.1084737E+00
         21   -1    0    0  502  501  0.00000000000E+00  0.00000000000E+00  0.36917650851E+03  0.36917650851E+03  0.00000000000E+00 0.  1.
         21   -1    0    0  501  502 -0.00000000000E+00 -0.00000000000E+00 -0.24542844573E+03  0.24542844573E+03  0.00000000000E+00 0.  1.
         25    1    1    2    0    0  0.91727878205E+02  0.15344947013E+03 -0.80510718561E+01  0.21829008974E+03  0.12500000000E+03 0.  0.
         25    1    1    2    0    0  0.33484932349E+02  0.13800337901E+02  0.40575982015E+02  0.13631984572E+03  0.12500000000E+03 0.  0.
         25    1    1    2    0    0 -0.12521281055E+03 -0.16724980803E+03  0.91223152624E+02  0.25999501877E+03  0.12500000000E+03 0.  0.
</event>
<event>
 5    0  0.5576108E-005  0.4023800E+03  0.7546771E-02  0.1042959E+00
         21   -1    0    0  502  501  0.00000000000E+00  0.00000000000E+00  0.67390322527E+03  0.67390322527E+03  0.00000000000E+00 0. -1.
         21   -1    0    0  501  502 -0.00000000000E+00 -0.00000000000E+00 -0.24025650618E+03  0.24025650618E+03  0.00000000000E+00 0. -1.
         25    1    1    2    0    0  0.68028945596E+02  0.15503623920E+03  0.69801726958E+02  0.22172382368E+03  0.12500000000E+03 0.  0.
         25    1    1    2    0    0 -0.25944991436E+02  0.44442575971E+02  0.42468353040E+03  0.44567856818E+03  0.12500000000E+03 0.  0.
         25    1    1    2    0    0 -0.42083954160E+02 -0.19947881517E+03 -0.60838538274E+02  0.24675733958E+03  0.12500000000E+03 0.  0.
</event>
<event>
 5    0  0.5576108E-005  0.3388642E+03  0.7546771E-02  0.1067281E+00
         21   -1    0    0  502  501  0.00000000000E+00  0.00000000000E+00  0.13773037141E+04  0.13773037141E+04  0.00000000000E+00 0. -1.
         21   -1    0    0  501  502 -0.00000000000E+00 -0.00000000000E+00 -0.83372297221E+02  0.83372297221E+02  0.00000000000E+00 0. -1.
         25    1    1    2    0    0 -0.10328870472E+02 -0.58902332145E+01  0.16636445581E+03  0.20843107391E+03  0.12500000000E+03 0.  0.
         25    1    1    2    0    0  0.11378546910E+03  0.12684787501E+03  0.16359225093E+03  0.26725444980E+03  0.12500000000E+03 0.  0.
         25    1    1    2    0    0 -0.10345659863E+03 -0.12095764180E+03  0.96397471019E+03  0.98499048766E+03  0.12500000000E+03 0.  0.
</event>
<event>
 5    0  0.5576108E-005  0.5154073E+03  0.7546771E-02  0.1009834E+00
         21   -1    0    0  502  501  0.00000000000E+00  0.00000000000E+00  0.19658660932E+03  0.19658660932E+03  0.00000000000E+00 0.  1.
         21   -1    0    0  501  502 -0.00000000000E+00 -0.00000000000E+00 -0.13512857771E+04  0.13512857771E+04  0.00000000000E+00 0.  1.
         25    1    1    2    0    0 -0.21259466464E+03  0.67291174557E+02 -0.38674836626E+03  0.46359884859E+03  0.12500000000E+03 0.  0.
         25    1    1    2    0    0 -0.22136998302E+03  0.60420397396E+02 -0.12880953730E+03  0.29132832115E+03  0.12500000000E+03 0.  0.
         25    1    1    2    0    0  0.43396464766E+03 -0.12771157195E+03 -0.63914126424E+03  0.79294521670E+03  0.12500000000E+03 0.  0.
</event>
<event>
 5    0  0.5576108E-005  0.2542109E+03  0.7546771E-02  0.1110672E+00
         21   -1    0    0  502  501  0.00000000000E+00  0.00000000000E+00  0.11708676494E+04  0.11708676494E+04  0.00000000000E+00 0.  1.
         21   -1    0    0  501  502 -0.00000000000E+00 -0.00000000000E+00 -0.55192556506E+02  0.55192556506E+02  0.00000000000E+00 0.  1.
         25    1    1    2    0    0  0.93327571573E+02 -0.49028532815E+02  0.27111066133E+03  0.31660673292E+03  0.12500000000E+03 0.  0.
         25    1    1    2    0    0 -0.18817200696E+02  0.59327145493E+02  0.65783426530E+03  0.67249142585E+03  0.12500000000E+03 0.  0.
         25    1    1    2    0    0 -0.74510370877E+02 -0.10298612679E+02  0.18673016628E+03  0.23696204715E+03  0.12500000000E+03 0.  0.
</event>
<event>
 5    0  0.5576108E-005  0.3689121E+03  0.7546771E-02  0.1055110E+00
         21   -1    0    0  502  501  0.00000000000E+00  0.00000000000E+00  0.57254036487E+03  0.57254036487E+03  0.00000000000E+00 0.  1.
         21   -1    0    0  501  502 -0.00000000000E+00 -0.00000000000E+00 -0.23770573279E+03  0.23770573279E+03  0.00000000000E+00 0.  1.
         25    1    1    2    0    0  0.12359330609E+03  0.28088620908E+03  0.10763838080E+03  0.34840118941E+03  0.12500000000E+03 0.  0.
         25    1    1    2    0    0 -0.83382043868E+02 -0.19076045739E+03  0.13625099412E+03  0.27844469961E+03  0.12500000000E+03 0.  0.
         25    1    1    2    0    0 -0.40211262221E+02 -0.90125751694E+02  0.90945257164E+02  0.18340020864E+03  0.12500000000E+03 0.  0.
</event>
<event>
 5    0  0.5576108E-005  0.2318218E+03  0.7546771E-02  0.1125364E+00
         21   -1    0    0  502  501  0.00000000000E+00  0.00000000000E+00  0.44265810078E+02  0.44265810078E+02  0.00000000000E+00 0.  1.
         21   -1    0    0  501  502 -0.00000000000E+00 -0.00000000000E+00 -0.12140602454E+04  0.12140602454E+04  0.00000000000E+00 0.  1.
         25    1    1    2    0    0  0.38810706998E+02  0.18712542950E+01 -0.26189352043E+03  0.29278488454E+03  0.12500000000E+03 0.  0.
         25    1    1    2    0    0  0.57835231596E+02 -0.48440519236E+02 -0.58633967358E+03  0.60424383384E+03  0.12500000000E+03 0.  0.
         25    1    1    2    0    0 -0.96645938593E+02  0.46569264941E+02 -0.32156124132E+03  0.36129733711E+03  0.12500000000E+03 0.  0.
</event>
<event>
 5    0  0.5576108E-005  0.2883228E+03  0.7546771E-02  0.1091228E+00
         21   -1    0    0  502  501  0.00000000000E+00  0.00000000000E+00  0.58977087496E+02  0.58977087496E+02  0.00000000000E+00 0. -1.
         21   -1    0    0  501  502 -0.00000000000E+00 -0.00000000000E+00 -0.14095306898E+04  0.14095306898E+04  0.00000000000E+00 0. -1.
         25    1    1    2    0    0  0.18610720893E+03  0.47435485453E+02 -0.60324050371E+03  0.64529847653E+03  0.12500000000E+03 0.  0.
         25    1    1    2    0    0 -0.56500767669E+02 -0.84782791447E+02 -0.35859065753E+03  0.39318280499E+03  0.12500000000E+03 0.  0.
         25    1    1    2    0    0 -0.12960644126E+03  0.37347305994E+02 -0.38872244105E+03  0.43002649576E+03  0.12500000000E+03 0.  0.
</event>
<event>
 5    0  0.5576108E-005  0.3964824E+03  0.7546771E-02  0.1045005E+00
         21   -1    0    0  502  501  0.00000000000E+00  0.00000000000E+00  0.38601855373E+03  0.38601855373E+03  0.00000000000E+00 0.  1.
         21   -1    0    0  501  502 -0.00000000000E+00 -0.00000000000E+00 -0.40722997332E+03  0.40722997332E+03  0.00000000000E+00 0.  1.
         25    1    1    2    0    0 -0.16153057806E+03 -0.10500763414E+03 -0.14278440015E+03  0.27042765355E+03  0.12500000000E+03 0.  0.
         25    1    1    2    0    0 -0.11562319094E+03  0.11248386102E+03  0.57414705978E+02  0.21199714558E+03  0.12500000000E+03 0.  0.
         25    1    1    2    0    0  0.27715376900E+03 -0.74762268838E+01  0.64158274579E+02  0.31082372792E+03  0.12500000000E+03 0.  0.
</event>
<event>
 5    0  0.5576108E-005  0.4095839E+03  0.7546771E-02  0.1040511E+00
         21   -1    0    0  502  501  0.00000000000E+00  0.00000000000E+00  0.23056612376E+03  0.23056612376E+03  0.00000000000E+00 0. -1.
         21   -1    0    0  501  502 -0.00000000000E+00 -0.00000000000E+00 -0.72759593630E+03  0.72759593630E+03  0.00000000000E+00 0. -1.
         25    1    1    2    0    0  0.11092737595E+02  0.16717777213E+03 -0.16837058584E+03  0.26841220259E+03  0.12500000000E+03 0.  0.
         25    1    1    2    0    0 -0.23001102583E+03 -0.43127753395E+02 -0.10819093210E+02  0.26553178321E+03  0.12500000000E+03 0.  0.
         25    1    1    2    0    0  0.21891828824E+03 -0.12405001874E+03 -0.31784013350E+03  0.42421807427E+03  0.12500000000E+03 0.  0.
</event>
<event>
 5    0  0.5576108E-005  0.3527455E+03  0.7546771E-02  0.1061494E+00
         21   -1    0    0  502  501  0.00000000000E+00  0.00000000000E+00  0.47107230114E+02  0.47107230114E+02  0.00000000000E+00 0.  1.
         21   -1    0    0  501  502 -0.00000000000E+00 -0.00000000000E+00 -0.26414079760E+04  0.26414079760E+04  0.00000000000E+00 0.  1.
         25    1    1    2    0    0  0.25635739289E+03  0.83133046719E+02 -0.91102986246E+03  0.95824351114E+03  0.12500000000E+03 0.  0.
         25    1    1    2    0    0 -0.90610524894E+02 -0.79684263969E+02 -0.10374211818E+04  0.10518686028E+04  0.12500000000E+03 0.  0.
         25    1    1    2    0    0 -0.16574686800E+03 -0.34487827504E+01 -0.64584970160E+03  0.67840309213E+03  0.12500000000E+03 0.  0.
</event>
<event>
 5    0  0.5576108E-005  0.2939860E+03  0.7546771E-02  0.1088286E+00
         21   -1    0    0  502  501  0.00000000000E+00  0.00000000000E+00  0.10117259269E+03  0.10117259269E+03  0.00000000000E+00 0.  1.
         21   -1    0    0  501  502 -0.00000000000E+00 -0.00000000000E+00 -0.85426052046E+03  0.85426052046E+03  0.00000000000E+00 0.  1.
         25    1    1    2    0    0 -0.68887893851E+02  0.57432605801E+02 -0.63363934635E+02  0.16638519868E+03  0.12500000000E+03 0.  0.
         25    1    1    2    0    0  0.10771086941E+03  0.80314578710E+02 -0.25089993614E+03  0.31085019044E+03  0.12500000000E+03 0.  0.
         25    1    1    2    0    0 -0.38822975557E+02 -0.13774718451E+03 -0.43882405700E+03  0.47819772404E+03  0.12500000000E+03 0.  0.
</event>
<event>
 5    0  0.5576108E-005  0.3455256E+03  0.7546771E-02  0.1064467E+00
         21   -1    0    0  502  501  0.00000000000E+00  0.00000000000E+00  0.17073455040E+04  0.17073455040E+04  0.00000000000E+00 0. -1.
         21   -1    0    0  501  502 -0.00000000000E+00 -0.00000000000E+00 -0.69926057551E+02  0.69926057551E+02  0.00000000000E+00 0. -1.
         25    1    1    2    0    0 -0.13678188710E+02  0.18111890143E+03  0.46663125039E+03  0.51610161126E+03  0.12500000000E+03 0.  0.
         25    1    1    2    0    0  0.24424856522E+02 -0.50817451511E+02  0.87015328841E+02  0.16240583255E+03  0.12500000000E+03 0.  0.
         25    1    1    2    0    0 -0.10746667812E+02 -0.13030144992E+03  0.10837728672E+04  0.10987641178E+04  0.12500000000E+03 0.  0.
</event>
<event>
 5    0  0.5576108E-005  0.2930998E+03  0.7546771E-02  0.1088742E+00
         21   -1    0    0  502  501  0.00000000000E+00  0.00000000000E+00  0.88410894475E+02  0.88410894475E+02  0.00000000000E+00 0.  1.
         21   -1    0    0  501  502 -0.00000000000E+00 -0.00000000000E+00 -0.97168477857E+03  0.97168477857E+03  0.00000000000E+00 0.  1.
         25    1    1    2    0    0  0.16942506865E+02  0.47139397950E+02 -0.19633510549E+03  0.23807907305E+03  0.12500000000E+03 0.  0.
         25    1    1    2    0    0 -0.10811637267E+03 -0.17682591055E+03 -0.29893586208E+03  0.38463515481E+03  0.12500000000E+03 0.  0.
         25    1    1    2    0    0  0.91173865807E+02  0.12968651259E+03 -0.38800291653E+03  0.43738144518E+03  0.12500000000E+03 0.  0.
</event>
<event>
 5    0  0.5576108E-005  0.2247069E+03  0.7546771E-02  0.1130422E+00
         21   -1    0    0  502  501  0.00000000000E+00  0.00000000000E+00  0.78417967972E+03  0.78417967972E+03  0.00000000000E+00 0.  1.
         21   -1    0    0  501  502 -0.00000000000E+00 -0.00000000000E+00 -0.64389840148E+02  0.64389840148E+02  0.00000000000E+00 0.  1.
         25    1    1    2    0    0  0.71530875067E+02 -0.18157629571E+02  0.15593123796E+03  0.21303970656E+03  0.12500000000E+03 0.  0.
         25    1    1    2    0    0  0.31630168377E+02  0.12687519967E+02  0.28227466952E+03  0.31058884360E+03  0.12500000000E+03 0.  0.
         25    1    1    2    0    0 -0.10316104344E+03  0.54701096045E+01  0.28158393209E+03  0.32494096971E+03  0.12500000000E+03 0.  0.
</event>
<event>
 5    0  0.5576108E-005  0.3336435E+03  0.7546771E-02  0.1069536E+00
         21   -1    0    0  502  501  0.00000000000E+00  0.00000000000E+00  0.22134743015E+03  0.22134743015E+03  0.00000000000E+00 0.  1.
         21   -1    0    0  501  502 -0.00000000000E+00 -0.00000000000E+00 -0.50291060533E+03  0.50291060533E+03  0.00000000000E+00 0.  1.
         25    1    1    2    0    0  0.24847666524E+03 -0.92752662347E+02 -0.11399351720E+03  0.31458422005E+03  0.12500000000E+03 0.  0.
         25    1    1    2    0    0 -0.14882712832E+03  0.72986631479E+02 -0.12768877415E+03  0.24373343132E+03  0.12500000000E+03 0.  0.
         25    1    1    2    0    0 -0.99649536917E+02  0.19766030868E+02 -0.39880883826E+02  0.16594038411E+03  0.12500000000E+03 0.  0.
</event>
<event>
 5    0  0.5576108E-005  0.5433936E+03  0.7546771E-02  0.1003035E+00
         21   -1    0    0  502  501  0.00000000000E+00  0.00000000000E+00  0.58437572788E+03  0.58437572788E+03  0.00000000000E+00 0.  1.
         21   -1    0    0  501  502 -0.00000000000E+00 -0.00000000000E+00 -0.50528555223E+03  0.50528555223E+03  0.00000000000E+00 0.  1.
         25    1    1    2    0    0  0.25539063031E+03  0.50799132101E+02  0.31371185861E+03  0.42643294444E+03  0.12500000000E+03 0.  0.
         25    1    1    2    0    0  0.14479322819E+03  0.21713649915E+02 -0.46685275762E+02  0.19809360539E+03  0.12500000000E+03 0.  0.
         25    1    1    2    0    0 -0.40018385850E+03 -0.72512782016E+02 -0.18793640720E+03  0.46513473028E+03  0.12500000000E+03 0.  0.
</event>
<event>
 5    0  0.5576108E-005  0.2777894E+03  0.7546771E-02  0.1096902E+00
         21   -1    0    0  502  501  0.00000000000E+00  0.00000000000E+00  0.30730236414E+03  0.30730236414E+03  0.00000000000E+00 0. -1.
         21   -1    0    0  501  502 -0.00000000000E+00 -0.00000000000E+00 -0.25111082635E+03  0.25111082635E+03  0.00000000000E+00 0. -1.
         25    1    1    2    0    0 -0.15164333486E+03  0.81339501678E+02 -0.33286123349E+02  0.21527838152E+03  0.12500000000E+03 0.  0.
         25    1    1    2    0    0  0.58902093933E+02 -0.67599346351E+02  0.10479350042E+03  0.18613383901E+03  0.12500000000E+03 0.  0.
         25    1    1    2    0    0  0.92741240927E+02 -0.13740155327E+02 -0.15315839273E+02  0.15700096996E+03  0.12500000000E+03 0.  0.
</event>
<event>
 5    0  0.5576108E-005  0.2640920E+03  0.7546771E-02  0.1104709E+00
         21   -1    0    0  502  501  0.00000000000E+00  0.00000000000E+00  0.11472612500E+04  0.11472612500E+04  0.00000000000E+00 0. -1.
         21   -1    0    0  501  502 -0.00000000000E+00 -0.00000000000E+00 -0.60792221735E+02  0.60792221735E+02  0.00000000000E+00 0. -1.
         25    1    1    2    0    0 -0.26915735459E+02  0.96032542166E+02  0.41021379454E+03  0.44028066413E+03  0.12500000000E+03 0.  0.
         25    1    1    2    0    0 -0.28652876533E+02  0.71104208095E+02  0.30050202809E+03  0.33436995174E+03  0.12500000000E+03 0.  0.
         25    1    1    2    0    0  0.55568611992E+02 -0.16713675026E+03  0.37575320560E+03  0.43340285583E+03  0.12500000000E+03 0.  0.
</event>
<event>
 5    0  0.5576108E-005  0.3433454E+03  0.7546771E-02  0.1065380E+00
         21   -1    0    0  502  501  0.00000000000E+00  0.00000000000E+00  0.10056868741E+04  0.10056868741E+04  0.00000000000E+00 0.  1.
         21   -1    0    0  501  502 -0.00000000000E+00 -0.00000000000E+00 -0.11721943071E+03  0.11721943071E+03  0.00000000000E+00 0.  1.
         25    1    1    2    0    0  0.22518807831E+03 -0.78069701393E+02  0.17547858210E+03  0.32128224611E+03  0.12500000000E+03 0.  0.
         25    1    1    2    0    0 -0.16828560514E+03  0.80329757899E+02  0.37910488810E+03  0.44058873236E+03  0.12500000000E+03 0.  0.
         25    1    1    2    0    0 -0.56902473162E+02 -0.22600565054E+01  0.33388397315E+03  0.36103532630E+03  0.12500000000E+03 0.  0.
</event>
<event>
 5    0  0.5576108E-005  0.3523497E+03  0.7546771E-02  0.1061655E+00
         21   -1    0    0  502  501  0.00000000000E+00  0.00000000000E+00  0.22169368887E+03  0.22169368887E+03  0.00000000000E+00 0.  1.
         21   -1    0    0  501  502 -0.00000000000E+00 -0.00000000000E+00 -0.56000826679E+03  0.56000826679E+03  0.00000000000E+00 0.  1.
         25    1    1    2    0    0 -0.15520149880E+03 -0.26957024043E+02 -0.41288898557E+03  0.45925646515E+03  0.12500000000E+03 0.  0.
         25    1    1    2    0    0  0.49596058473E+02 -0.31309584354E+02  0.50794892605E+02  0.14712301045E+03  0.12500000000E+03 0.  0.
         25    1    1    2    0    0  0.10560544032E+03  0.58266608398E+02  0.23779515043E+02  0.17532248006E+03  0.12500000000E+03 0.  0.
</event>
<event>
 5    0  0.5576108E-005  0.4227322E+03  0.7546771E-02  0.1036181E+00
         21   -1    0    0  502  501  0.00000000000E+00  0.00000000000E+00  0.76260273326E+03  0.76260273326E+03  0.00000000000E+00 0.  1.
         21   -1    0    0  501  502 -0.00000000000E+00 -0.00000000000E+00 -0.23433233766E+03  0.23433233766E+03  0.00000000000E+00 0.  1.
         25    1    1    2    0    0 -0.26313002769E+02  0.64458956588E+02  0.96186865114E+02  0.17240720466E+03  0.12500000000E+03 0.  0.
         25    1    1    2    0    0  0.27786516688E+03 -0.20533470707E+03  0.33071976080E+03  0.49433991653E+03  0.12500000000E+03 0.  0.
         25    1    1    2    0    0 -0.25155216411E+03  0.14087575048E+03  0.10136376969E+03  0.33018794973E+03  0.12500000000E+03 0.  0.
</event>
<event>
 5    0  0.5576108E-005  0.4427604E+03  0.7546771E-02  0.1029903E+00
         21   -1    0    0  502  501  0.00000000000E+00  0.00000000000E+00  0.74846713012E+03  0.74846713012E+03  0.00000000000E+00 0.  1.
         21   -1    0    0  501  502 -0.00000000000E+00 -0.00000000000E+00 -0.26191770118E+03  0.26191770118E+03  0.00000000000E+00 0.  1.
         25    1    1    2    0    0  0.17647354707E+03  0.18505526602E+03  0.32955346944E+03  0.43545246987E+03  0.12500000000E+03 0.  0.
         25    1    1    2    0    0 -0.33854124875E+01  0.93028602275E+02 -0.54945202867E+02  0.16525664034E+03  0.12500000000E+03 0.  0.
         25    1    1    2    0    0 -0.17308813458E+03 -0.27808386829E+03  0.21194116237E+03  0.40967572108E+03  0.12500000000E+03 0.  0.
</event>
<event>
 5    0  0.5576108E-005  0.2891876E+03  0.7546771E-02  0.1090774E+00
         21   -1    0    0  502  501  0.00000000000E+00  0.00000000000E+00  0.14988076510E+04  0.14988076510E+04  0.00000000000E+00 0.  1.
         21   -1    0    0  501  502 -0.00000000000E+00 -0.00000000000E+00 -0.55797316043E+02  0.55797316043E+02  0.00000000000E+00 0.  1.
         25    1    1    2    0    0  0.12745295692E+02 -0.13677913185E+03  0.35115466959E+03  0.39724749898E+03  0.12500000000E+03 0.  0.
         25    1    1    2    0    0  0.11464104009E+03  0.11010711746E+03  0.62172652034E+03  0.65378514168E+03  0.12500000000E+03 0.  0.
         25    1    1    2    0    0 -0.12738633578E+03  0.26672014385E+02  0.47012914504E+03  0.50357232639E+03  0.12500000000E+03 0.  0.
</event>
<event>
 5    0  0.5576108E-005  0.5029813E+03  0.7546771E-02  0.1013004E+00
         21   -1    0    0  502  501  0.00000000000E+00  0.00000000000E+00  0.65584339129E+03  0.65584339129E+03  0.00000000000E+00 0. -1.
         21   -1    0    0  501  502 -0.00000000000E+00 -0.00000000000E+00 -0.38574792949E+03  0.38574792949E+03  0.00000000000E+00 0. -1.
         25    1    1    2    0    0 -0.16206566953E+02  0.36637037741E+03 -0.44885306299E+02  0.39003794300E+03  0.12500000000E+03 0.  0.
         25    1    1    2    0    0 -0.80435271268E+02 -0.38259899180E+03  0.20897436139E+03  0.46059429557E+03  0.12500000000E+03 0.  0.
         25    1    1    2    0    0  0.96641838222E+02  0.16228614389E+02  0.10600640670E+03  0.19095908222E+03  0.12500000000E+03 0.  0.
</event>
<event>
 5    0  0.5576108E-005  0.4749996E+03  0.7546771E-02  0.1020519E+00
         21   -1    0    0  502  501  0.00000000000E+00  0.00000000000E+00  0.79207766317E+03  0.79207766317E+03  0.00000000000E+00 0. -1.
         21   -1    0    0  501  502 -0.00000000000E+00 -0.00000000000E+00 -0.28485163595E+03  0.28485163595E+03  0.00000000000E+00 0. -1.
         25    1    1    2    0    0  0.15955025443E+03  0.75785585691E+02  0.27842730391E+02  0.21817414220E+03  0.12500000000E+03 0.  0.
         25    1    1    2    0    0  0.93433499591E+02  0.19117837337E+03  0.66251517950E+01  0.24687624820E+03  0.12500000000E+03 0.  0.
         25    1    1    2    0    0 -0.25298375402E+03 -0.26696395906E+03  0.47275814503E+03  0.61187890871E+03  0.12500000000E+03 0.  0.
</event>
<event>
 5    0  0.5576108E-005  0.2708619E+03  0.7546771E-02  0.1100787E+00
         21   -1    0    0  502  501  0.00000000000E+00  0.00000000000E+00  0.81980478220E+02  0.81980478220E+02  0.00000000000E+00 0.  1.
         21   -1    0    0  501  502 -0.00000000000E+00 -0.00000000000E+00 -0.89492233924E+03  0.89492233924E+03  0.00000000000E+00 0.  1.
         25    1    1    2    0    0  0.77461545714E+01  0.18846994874E+02 -0.15685798148E+03  0.20160515490E+03  0.12500000000E+03 0.  0.
         25    1    1    2    0    0 -0.66224795929E+02  0.20901600454E+02 -0.60686542059E+03  0.62348475459E+03  0.12500000000E+03 0.  0.
         25    1    1    2    0    0  0.58478641358E+02 -0.39748595329E+02 -0.49218458945E+02  0.15181290797E+03  0.12500000000E+03 0.  0.
</event>
<event>
 5    0  0.5576108E-005  0.4479837E+03  0.7546771E-02  0.1028325E+00
         21   -1    0    0  502  501  0.00000000000E+00  0.00000000000E+00  0.52679820365E+03  0.52679820365E+03  0.00000000000E+00 0. -1.
         21   -1    0    0  501  502 -0.00000000000E+00 -0.00000000000E+00 -0.38096069094E+03  0.38096069094E+03  0.00000000000E+00 0. -1.
         25    1    1    2    0    0  0.54047646708E+02  0.79458543340E+02  0.42021044424E+03  0.44881691777E+03  0.12500000000E+03 0.  0.
         25    1    1    2    0    0 -0.13763977468E+03 -0.77007090848E+02 -0.88501568642E+02  0.21984614454E+03  0.12500000000E+03 0.  0.
         25    1    1    2    0    0  0.83592127977E+02 -0.24514524914E+01 -0.18587136289E+03  0.23909583229E+03  0.12500000000E+03 0.  0.
</event>
<event>
 5    0  0.5576108E-005  0.3477504E+03  0.7546771E-02  0.1063542E+00
         21   -1    0    0  502  501  0.00000000000E+00  0.00000000000E+00  0.42430046484E+03  0.42430046484E+03  0.00000000000E+00 0.  1.
         21   -1    0    0  501  502 -0.00000000000E+00 -0.00000000000E+00 -0.28501104627E+03  0.28501104627E+03  0.00000000000E+00 0.  1.
         25    1    1    2    0    0  0.17420981175E+03 -0.63232483891E+02  0.81126164587E+02  0.23781055508E+03  0.12500000000E+03 0.  0.
         25    1    1    2    0    0 -0.20953727643E+03  0.68349630132E+02 -0.95001417924E+02  0.27060637753E+03  0.12500000000E+03 0.  0.
         25    1    1    2    0    0  0.35327464682E+02 -0.51171462408E+01  0.15316467191E+03  0.20089457849E+03  0.12500000000E+03 0.  0.
</event>
<event>
 5    0  0.5576108E-005  0.3134850E+03  0.7546771E-02  0.1078687E+00
         21   -1    0    0  502  501  0.00000000000E+00  0.00000000000E+00  0.24411367633E+03  0.24411367633E+03  0.00000000000E+00 0. -1.
         21   -1    0    0  501  502 -0.00000000000E+00 -0.00000000000E+00 -0.40257001390E+03  0.40257001390E+03  0.00000000000E+00 0. -1.
         25    1    1    2    0    0  0.33339944380E+02 -0.65828070603E+02  0.14344543747E+03  0.20407469295E+03  0.12500000000E+03 0.  0.
         25    1    1    2    0    0 -0.66960786605E+02 -0.32769564493E+02 -0.21068686881E+03  0.25606942025E+03  0.12500000000E+03 0.  0.
         25    1    1    2    0    0  0.33620842225E+02  0.98597635096E+02 -0.91214906235E+02  0.18653957703E+03  0.12500000000E+03 0.  0.
</event>
<event>
 5    0  0.5576108E-005  0.3276291E+03  0.7546771E-02  0.1072191E+00
         21   -1    0    0  502  501  0.00000000000E+00  0.00000000000E+00  0.12856689065E+03  0.12856689065E+03  0.00000000000E+00 0.  1.
         21   -1    0    0  501  502 -0.00000000000E+00 -0.00000000000E+00 -0.83490275625E+03  0.83490275625E+03  0.00000000000E+00 0.  1.
         25    1    1    2    0    0  0.28271251492E+01 -0.63891029787E+02 -0.43790480254E+02  0.14708046262E+03  0.12500000000E+03 0.  0.
         25    1    1    2    0    0  0.15209334841E+03  0.14920549326E+03 -0.44770661855E+03  0.51133245755E+03  0.12500000000E+03 0.  0.
         25    1    1    2    0    0 -0.15492047355E+03 -0.85314463476E+02 -0.21483876680E+03  0.30505672673E+03  0.12500000000E+03 0.  0.
</event>
<event>
 5    0  0.5576108E-005  0.4041970E+03  0.7546771E-02  0.1042336E+00
         21   -1    0    0  502  501  0.00000000000E+00  0.00000000000E+00  0.11392693040E+04  0.11392693040E+04  0.00000000000E+00 0.  1.
         21   -1    0    0  501  502 -0.00000000000E+00 -0.00000000000E+00 -0.14340352775E+03  0.14340352775E+03  0.00000000000E+00 0.  1.
         25    1    1    2    0    0  0.20998508686E+03  0.63037911746E+02  0.73546626444E+03  0.77756230693E+03  0.12500000000E+03 0.  0.
         25    1    1    2    0    0 -0.11116591175E+03  0.92235197253E+01 -0.25956648856E+02  0.16953371603E+03  0.12500000000E+03 0.  0.
         25    1    1    2    0    0 -0.98819175110E+02 -0.72261431471E+02  0.28635616070E+03  0.33557680882E+03  0.12500000000E+03 0.  0.
</event>
<event>
 5    0  0.5741060E-005  0.3080789E+03  0.7546771E-02  0.1081270E+00
         21   -1    0    0  502  501  0.00000000000E+00  0.00000000000E+00  0.10365301797E+04  0.10365301797E+04  0.00000000000E+00 0. -1.
         21   -1    0    0  501  502 -0.00000000000E+00 -0.00000000000E+00 -0.91567642156E+02  0.91567642156E+02  0.00000000000E+00 0. -1.
         25    1    1    2    0    0 -0.12211933767E+03  0.14926097084E+02  0.40762348688E+03  0.44375424287E+03  0.12500000000E+03 0.  0.
         25    1    1    2    0    0  0.15537822715E+03  0.38366156322E+01  0.51430536905E+03  0.55162679931E+03  0.12500000000E+03 0.  0.
         25    1    1    2    0    0 -0.33258889487E+02 -0.18762712716E+02  0.23033681619E+02  0.13271677967E+03  0.12500000000E+03 0.  0.
</event>
<event>
 5    0  0.5576108E-005  0.3632730E+03  0.7546771E-02  0.1057295E+00
         21   -1    0    0  502  501  0.00000000000E+00  0.00000000000E+00  0.11354447662E+03  0.11354447662E+03  0.00000000000E+00 0. -1.
         21   -1    0    0  501  502 -0.00000000000E+00 -0.00000000000E+00 -0.11622519317E+04  0.11622519317E+04  0.00000000000E+00 0. -1.
         25    1    1    2    0    0  0.18938064994E+03  0.57147424092E+02 -0.22796999734E+03  0.32668972794E+03  0.12500000000E+03 0.  0.
         25    1    1    2    0    0 -0.12273304328E+03  0.50492365126E+02 -0.72398476067E+03  0.74658677495E+03  0.12500000000E+03 0.  0.
         25    1    1    2    0    0 -0.66647606662E+02 -0.10763978922E+03 -0.96752697027E+02  0.20251990539E+03  0.12500000000E+03 0.  0.
</event>
<event>
 5    0  0.5953527E-005  0.3570008E+03  0.7546771E-02  0.1059778E+00
         21   -1    0    0  502  501  0.00000000000E+00  0.00000000000E+00  0.12603435695E+03  0.12603435695E+03  0.00000000000E+00 0.  1.
         21   -1    0    0  501  502 -0.00000000000E+00 -0.00000000000E+00 -0.10112290248E+04  0.10112290248E+04  0.00000000000E+00 0.  1.
         25    1    1    2    0    0  0.19195069540E+03  0.24935056308E+02 -0.64748464045E+03  0.68726136667E+03  0.12500000000E+03 0.  0.
         25    1    1    2    0    0 -0.12505020556E+03 -0.63346188176E+02 -0.23791325087E+03  0.30311385387E+03  0.12500000000E+03 0.  0.
         25    1    1    2    0    0 -0.66900489832E+02  0.38411131868E+02  0.20322351415E+00  0.14688816117E+03  0.12500000000E+03 0.  0.
</event>
<event>
 5    0  0.5576108E-005  0.2857093E+03  0.7546771E-02  0.1092611E+00
         21   -1    0    0  502  501  0.00000000000E+00  0.00000000000E+00  0.41110008283E+03  0.41110008283E+03  0.00000000000E+00 0.  1.
         21   -1    0    0  501  502 -0.00000000000E+00 -0.00000000000E+00 -0.19856434248E+03  0.19856434248E+03  0.00000000000E+00 0.  1.
         25    1    1    2    0    0 -0.37326817188E+02  0.38072131547E+02  0.71570510092E+01  0.13608453939E+03  0.12500000000E+03 0.  0.
         25    1    1    2    0    0 -0.72766572419E+01 -0.18692097239E+03  0.84190319003E+02  0.24021950269E+03  0.12500000000E+03 0.  0.
         25    1    1    2    0    0  0.44603474430E+02  0.14884884085E+03  0.12118837034E+03  0.23336038322E+03  0.12500000000E+03 0.  0.
</event>
<event>
 5    0  0.5576108E-005  0.2550104E+03  0.7546771E-02  0.1110179E+00
         21   -1    0    0  502  501  0.00000000000E+00  0.00000000000E+00  0.48140441044E+03  0.48140441044E+03  0.00000000000E+00 0. -1.
         21   -1    0    0  501  502 -0.00000000000E+00 -0.00000000000E+00 -0.13508453698E+03  0.13508453698E+03  0.00000000000E+00 0. -1.
         25    1    1    2    0    0 -0.80609451869E+02 -0.72769627784E+02  0.94724443460E+02  0.19076431178E+03  0.12500000000E+03 0.  0.
         25    1    1    2    0    0 -0.47350974945E+02  0.44483245540E+02  0.38449811855E+02  0.14602829176E+03  0.12500000000E+03 0.  0.
         25    1    1    2    0    0  0.12796042681E+03  0.28286382244E+02  0.21314561815E+03  0.27969634389E+03  0.12500000000E+03 0.  0.
</event>
<event>
 5    0  0.5576108E-005  0.4196285E+03  0.7546771E-02  0.1037187E+00
         21   -1    0    0  502  501  0.00000000000E+00  0.00000000000E+00  0.27828957036E+03  0.27828957036E+03  0.00000000000E+00 0. -1.
         21   -1    0    0  501  502 -0.00000000000E+00 -0.00000000000E+00 -0.63275135865E+03  0.63275135865E+03  0.00000000000E+00 0. -1.
         25    1    1    2    0    0 -0.10245687899E+03  0.10393740395E+03  0.13369037020E+03  0.23409081801E+03  0.12500000000E+03 0.  0.
         25    1    1    2    0    0 -0.12887006287E+03 -0.43804441103E+02 -0.11916797009E+03  0.21989162617E+03  0.12500000000E+03 0.  0.
         25    1    1    2    0    0  0.23132694187E+03 -0.60132962846E+02 -0.36898418841E+03  0.45705848482E+03  0.12500000000E+03 0.  0.
</event>
<event>
 5    0  0.5748003E-005  0.2943398E+03  0.7546771E-02  0.1088105E+00
         21   -1    0    0  502  501  0.00000000000E+00  0.00000000000E+00  0.34849093558E+03  0.34849093558E+03  0.00000000000E+00 0. -1.
         21   -1    0    0  501  502 -0.00000000000E+00 -0.00000000000E+00 -0.24860300119E+03  0.24860300119E+03  0.00000000000E+00 0. -1.
         25    1    1    2    0    0  0.10608975992E+03 -0.11874543207E+03  0.37752264614E+02  0.20592656041E+03  0.12500000000E+03 0.  0.
         25    1    1    2    0    0 -0.31597112683E+02  0.18443592635E+03  0.53355554941E+02  0.23127214208E+03  0.12500000000E+03 0.  0.
         25    1    1    2    0    0 -0.74492647235E+02 -0.65690494283E+02  0.87801148309E+01  0.15989523429E+03  0.12500000000E+03 0.  0.
</event>
<event>
 5    0  0.5576108E-005  0.3396203E+03  0.7546771E-02  0.1066958E+00
         21   -1    0    0  502  501  0.00000000000E+00  0.00000000000E+00  0.74287261702E+03  0.74287261702E+03  0.00000000000E+00 0. -1.
         21   -1    0    0  501  502 -0.00000000000E+00 -0.00000000000E+00 -0.15526481280E+03  0.15526481280E+03  0.00000000000E+00 0. -1.
         25    1    1    2    0    0 -0.10216801976E+03 -0.13556433527E+03  0.19327104865E+03  0.28599771241E+03  0.12500000000E+03 0.  0.
         25    1    1    2    0    0  0.12517118146E+03 -0.15284923242E+02  0.72664515840E+01  0.17770552852E+03  0.12500000000E+03 0.  0.
         25    1    1    2    0    0 -0.23003161706E+02  0.15084925851E+03  0.38707030399E+03  0.43443418889E+03  0.12500000000E+03 0.  0.
</event>
<event>
 5    0  0.5576108E-005  0.3633426E+03  0.7546771E-02  0.1057268E+00
         21   -1    0    0  502  501  0.00000000000E+00  0.00000000000E+00  0.37761357671E+03  0.37761357671E+03  0.00000000000E+00 0. -1.
         21   -1    0    0  501  502 -0.00000000000E+00 -0.00000000000E+00 -0.34961092204E+03  0.34961092204E+03  0.00000000000E+00 0. -1.
         25    1    1    2    0    0 -0.78401809266E+02 -0.23364399436E+03  0.52802297480E+02  0.28133510697E+03  0.12500000000E+03 0.  0.
         25    1    1    2    0    0  0.90694500755E+02  0.21910956950E+03  0.82055462456E+02  0.28034370839E+03  0.12500000000E+03 0.  0.
         25    1    1    2    0    0 -0.12292691489E+02  0.14534424858E+02 -0.10685510526E+03  0.16554568339E+03  0.12500000000E+03 0.  0.
</event>
<event>
 5    0  0.5576108E-005  0.2999604E+03  0.7546771E-02  0.1085260E+00
         21   -1    0    0  502  501  0.00000000000E+00  0.00000000000E+00  0.50030150371E+03  0.50030150371E+03  0.00000000000E+00 0. -1.
         21   -1    0    0  501  502 -0.00000000000E+00 -0.00000000000E+00 -0.17984406769E+03  0.17984406769E+03  0.00000000000E+00 0. -1.
         25    1    1    2    0    0  0.18313250796E+02  0.15729145751E+03  0.15382675838E+03  0.25369991989E+03  0.12500000000E+03 0.  0.
         25    1    1    2    0    0  0.10617119397E+03 -0.52044105715E+02  0.13478343077E+03  0.21856917573E+03  0.12500000000E+03 0.  0.
         25    1    1    2    0    0 -0.12448444476E+03 -0.10524735180E+03  0.31847246866E+02  0.20787647578E+03  0.12500000000E+03 0.  0.
</event>
<event>
 5    0  0.5576108E-005  0.3761806E+03  0.7546771E-02  0.1052355E+00
         21   -1    0    0  502  501  0.00000000000E+00  0.00000000000E+00  0.15782284705E+03  0.15782284705E+03  0.00000000000E+00 0.  1.
         21   -1    0    0  501  502 -0.00000000000E+00 -0.00000000000E+00 -0.89665006985E+03  0.89665006985E+03  0.00000000000E+00 0.  1.
         25    1    1    2    0    0  0.18709480767E+03 -0.99032379977E+01  0.19532837729E+01  0.22523622377E+03  0.12500000000E+03 0.  0.
         25    1    1    2    0    0 -0.67768102008E+02  0.99154545027E+02 -0.41598550452E+03  0.45065849534E+03  0.12500000000E+03 0.  0.
         25    1    1    2    0    0 -0.11932670566E+03 -0.89251307029E+02 -0.32479500205E+03  0.37857819780E+03  0.12500000000E+03 0.  0.
</event>
<event>
 5    0  0.5576108E-005  0.3568900E+03  0.7546771E-02  0.1059822E+00
         21   -1    0    0  502  501  0.00000000000E+00  0.00000000000E+00  0.32673863588E+03  0.32673863588E+03  0.00000000000E+00 0.  1.
         21   -1    0    0  501  502 -0.00000000000E+00 -0.00000000000E+00 -0.38982369566E+03  0.38982369566E+03  0.00000000000E+00 0.  1.
         25    1    1    2    0    0 -0.38637337277E+02 -0.19882920160E+03  0.87283337552E+02  0.25351385811E+03  0.12500000000E+03 0.  0.
         25    1    1    2    0    0  0.69465432628E+02 -0.41046911997E+02 -0.11597698755E+03  0.18864240498E+03  0.12500000000E+03 0.  0.
         25    1    1    2    0    0 -0.30828095351E+02  0.23987611359E+03 -0.34391409786E+02  0.27440606845E+03  0.12500000000E+03 0.  0.
</event>
<event>
 5    0  0.5576108E-005  0.2343395E+03  0.7546771E-02  0.1123622E+00
         21   -1    0    0  502  501  0.00000000000E+00  0.00000000000E+00  0.16862268053E+03  0.16862268053E+03  0.00000000000E+00 0.  1.
         21   -1    0    0  501  502 -0.00000000000E+00 -0.00000000000E+00 -0.32566783035E+03  0.32566783035E+03  0.00000000000E+00 0.  1.
         25    1    1    2    0    0  0.43188080634E+02  0.84058653954E+02 -0.51573360210E+02  0.16497235858E+03  0.12500000000E+03 0.  0.
         25    1    1    2    0    0 -0.30620601947E+02 -0.96879827241E+02  0.55377502476E+01  0.16117998904E+03  0.12500000000E+03 0.  0.
         25    1    1    2    0    0 -0.12567478686E+02  0.12821173287E+02 -0.11100953985E+03  0.16813816325E+03  0.12500000000E+03 0.  0.
</event>
<event>
 5    0  0.5576108E-005  0.3167231E+03  0.7546771E-02  0.1077167E+00
         21   -1    0    0  502  501  0.00000000000E+00  0.00000000000E+00  0.59033661256E+02  0.59033661256E+02  0.00000000000E+00 0.  1.
         21   -1    0    0  501  502 -0.00000000000E+00 -0.00000000000E+00 -0.16992591795E+04  0.16992591795E+04  0.00000000000E+00 0.  1.
         25    1    1    2    0    0  0.62290463563E+01  0.59814848691E+02 -0.28426958631E+03  0.31630810113E+03  0.12500000000E+03 0.  0.
         25    1    1    2    0    0  0.17922979385E+03  0.68184448984E+02 -0.73048990268E+03  0.76551481763E+03  0.12500000000E+03 0.  0.
         25    1    1    2    0    0 -0.18545884020E+03 -0.12799929768E+03 -0.62546602925E+03  0.67646992199E+03  0.12500000000E+03 0.  0.
</event>
<event>
 5    0  0.5576108E-005  0.2390519E+03  0.7546771E-02  0.1120426E+00
         21   -1    0    0  502  501  0.00000000000E+00  0.00000000000E+00  0.62955292672E+03  0.62955292672E+03  0.00000000000E+00 0.  1.
         21   -1    0    0  501  502 -0.00000000000E+00 -0.00000000000E+00 -0.90772032493E+02  0.90772032493E+02  0.00000000000E+00 0.  1.
         25    1    1    2    0    0  0.46401931293E+02  0.57115657352E+02  0.51123128205E+02  0.15379828276E+03  0.12500000000E+03 0.  0.
         25    1    1    2    0    0 -0.57635195787E+02 -0.54105759865E+02  0.35138209233E+03  0.38123958852E+03  0.12500000000E+03 0.  0.
         25    1    1    2    0    0  0.11233264494E+02 -0.30098974871E+01  0.13627567368E+03  0.18528708793E+03  0.12500000000E+03 0.  0.
</event>
<event>
 5    0  0.5576108E-005  0.3910055E+03  0.7546771E-02  0.1046939E+00
         21   -1    0    0  502  501  0.00000000000E+00  0.00000000000E+00  0.47640780738E+03  0.47640780738E+03  0.00000000000E+00 0.  1.
         21   -1    0    0  501  502 -0.00000000000E+00 -0.00000000000E+00 -0.32091271658E+03  0.32091271658E+03  0.00000000000E+00 0.  1.
         25    1    1    2    0    0  0.17358280985E+03 -0.13840018201E+03  0.27360752442E+03  0.37386050831E+03  0.12500000000E+03 0.  0.
         25    1    1    2    0    0 -0.16735401687E+02 -0.41948413197E+02 -0.67351242597E+02  0.14899977489E+03  0.12500000000E+03 0.  0.
         25    1    1    2    0    0 -0.15684740817E+03  0.18034859521E+03 -0.50761191020E+02  0.27446024075E+03  0.12500000000E+03 0.  0.
</event>
<event>
 5    0  0.5718009E-005  0.3502305E+03  0.7546771E-02  0.1062520E+00
         21   -1    0    0  502  501  0.00000000000E+00  0.00000000000E+00  0.14744514809E+03  0.14744514809E+03  0.00000000000E+00 0. -1.
         21   -1    0    0  501  502 -0.00000000000E+00 -0.00000000000E+00 -0.83191210403E+03  0.83191210403E+03  0.00000000000E+00 0. -1.
         25    1    1    2    0    0 -0.90114810282E+02 -0.12227925921E+03 -0.32028095240E+03  0.37586937191E+03  0.12500000000E+03 0.  0.
         25    1    1    2    0    0 -0.59718912262E+02  0.21193990175E+03 -0.12609136838E+03  0.28285845155E+03  0.12500000000E+03 0.  0.
         25    1    1    2    0    0  0.14983372254E+03 -0.89660642538E+02 -0.23809463516E+03  0.32062942866E+03  0.12500000000E+03 0.  0.
</event>
<event>
 5    0  0.5576108E-005  0.2965006E+03  0.7546771E-02  0.1087003E+00
         21   -1    0    0  502  501  0.00000000000E+00  0.00000000000E+00  0.19733063324E+03  0.19733063324E+03  0.00000000000E+00 0. -1.
         21   -1    0    0  501  502 -0.00000000000E+00 -0.00000000000E+00 -0.44550905198E+03  0.44550905198E+03  0.00000000000E+00 0. -1.
         25    1    1    2    0    0  0.38802313856E+02 -0.85930077045E+02 -0.65472519179E+02  0.16970930578E+03  0.12500000000E+03 0.  0.
         25    1    1    2    0    0  0.11233492666E+03  0.35113714013E+02  0.35548468777E+02  0.17533055151E+03  0.12500000000E+03 0.  0.
         25    1    1    2    0    0 -0.15113724051E+03  0.50816363033E+02 -0.21825436834E+03  0.29779982794E+03  0.12500000000E+03 0.  0.
</event>
<event>
 5    0  0.5576108E-005  0.3225918E+03  0.7546771E-02  0.1074463E+00
         21   -1    0    0  502  501  0.00000000000E+00  0.00000000000E+00  0.14338775843E+03  0.14338775843E+03  0.00000000000E+00 0.  1.
         21   -1    0    0  501  502 -0.00000000000E+00 -0.00000000000E+00 -0.72576260783E+03  0.72576260783E+03  0.00000000000E+00 0.  1.
         25    1    1    2    0    0  0.14941387915E+03 -0.42923257176E+02 -0.61012600525E+02  0.20860117620E+03  0.12500000000E+03 0.  0.
         25    1    1    2    0    0 -0.36406123524E+02  0.12895207291E+03 -0.12640926109E+03  0.22261703490E+03  0.12500000000E+03 0.  0.
         25    1    1    2    0    0 -0.11300775563E+03 -0.86028815732E+02 -0.39495298778E+03  0.43793215516E+03  0.12500000000E+03 0.  0.
</event>
<event>
 5    0  0.5576108E-005  0.2413868E+03  0.7546771E-02  0.1118872E+00
         21   -1    0    0  502  501  0.00000000000E+00  0.00000000000E+00  0.11002141121E+03  0.11002141121E+03  0.00000000000E+00 0. -1.
         21   -1    0    0  501  502 -0.00000000000E+00 -0.00000000000E+00 -0.52960216054E+03  0.52960216054E+03  0.00000000000E+00 0. -1.
         25    1    1    2    0    0 -0.19053565598E+01  0.11821684106E+03 -0.19939934425E+03  0.26337036731E+03  0.12500000000E+03 0.  0.
         25    1    1    2    0    0  0.33430929222E+02 -0.26421871562E+02 -0.43465263602E+02  0.13903226771E+03  0.12500000000E+03 0.  0.
         25    1    1    2    0    0 -0.31525572662E+02 -0.91794969497E+02 -0.17671614148E+03  0.23722093672E+03  0.12500000000E+03 0.  0.
</event>
<event>
 5    0  0.5576108E-005  0.3555435E+03  0.7546771E-02  0.1060362E+00
         21   -1    0    0  502  501  0.00000000000E+00  0.00000000000E+00  0.13422117780E+03  0.13422117780E+03  0.00000000000E+00 0. -1.
         21   -1    0    0  501  502 -0.00000000000E+00 -0.00000000000E+00 -0.94181247415E+03  0.94181247415E+03  0.00000000000E+00 0. -1.
         25    1    1    2    0    0  0.11943272854E+03  0.15083470520E+03 -0.85806248002E+02  0.24495509208E+03  0.12500000000E+03 0.  0.
         25    1    1    2    0    0 -0.37489073656E+02 -0.93066559024E+02 -0.62197332579E+03  0.64229481785E+03  0.12500000000E+03 0.  0.
         25    1    1    2    0    0 -0.81943654884E+02 -0.57768146177E+02 -0.99811722557E+02  0.18878374201E+03  0.12500000000E+03 0.  0.
</event>
<event>
 5    0  0.5576108E-005  0.3421202E+03  0.7546771E-02  0.1065896E+00
         21   -1    0    0  502  501  0.00000000000E+00  0.00000000000E+00  0.84798266656E+03  0.84798266656E+03  0.00000000000E+00 0.  1.
         21   -1    0    0  501  502 -0.00000000000E+00 -0.00000000000E+00 -0.13802906785E+03  0.13802906785E+03  0.00000000000E+00 0.  1.
         25    1    1    2    0    0  0.62907727404E+02 -0.14786661773E+03  0.35015671063E+03  0.40503906084E+03  0.12500000000E+03 0.  0.
         25    1    1    2    0    0  0.95795815437E+00 -0.33191395677E+02 -0.26337730034E+02  0.13198963010E+03  0.12500000000E+03 0.  0.
         25    1    1    2    0    0 -0.63865685558E+02  0.18105801341E+03  0.38613461812E+03  0.44898304346E+03  0.12500000000E+03 0.  0.
</event>
<event>
 5    0  0.5576108E-005  0.3155638E+03  0.7546771E-02  0.1077709E+00
         21   -1    0    0  502  501  0.00000000000E+00  0.00000000000E+00  0.35579510668E+03  0.35579510668E+03  0.00000000000E+00 0. -1.
         21   -1    0    0  501  502 -0.00000000000E+00 -0.00000000000E+00 -0.27988169502E+03  0.27988169502E+03  0.00000000000E+00 0. -1.
         25    1    1    2    0    0  0.91191958272E+02 -0.33842149446E+02 -0.21110792605E+02  0.15978713934E+03  0.12500000000E+03 0.  0.
         25    1    1    2    0    0 -0.95329268530E+02  0.56069972460E+02 -0.13280452583E+03  0.21329217832E+03  0.12500000000E+03 0.  0.
         25    1    1    2    0    0  0.41373102586E+01 -0.22227823014E+02  0.22982873009E+03  0.26259748405E+03  0.12500000000E+03 0.  0.
</event>
<event>
 5    0  0.5576108E-005  0.3042466E+03  0.7546771E-02  0.1083137E+00
         21   -1    0    0  502  501  0.00000000000E+00  0.00000000000E+00  0.33548114617E+03  0.33548114617E+03  0.00000000000E+00 0. -1.
         21   -1    0    0  501  502 -0.00000000000E+00 -0.00000000000E+00 -0.27592004569E+03  0.27592004569E+03  0.00000000000E+00 0. -1.
         25    1    1    2    0    0  0.56556682949E+02 -0.10797906575E+03 -0.85534246137E+02  0.19442027746E+03  0.12500000000E+03 0.  0.
         25    1    1    2    0    0 -0.28997715879E+02 -0.14279777603E+02 -0.63103355230E+02  0.14370738678E+03  0.12500000000E+03 0.  0.
         25    1    1    2    0    0 -0.27558967069E+02  0.12225884335E+03  0.20819870185E+03  0.27327352762E+03  0.12500000000E+03 0.  0.
</event>
<event>
 5    0  0.5576108E-005  0.3948796E+03  0.7546771E-02  0.1045567E+00
         21   -1    0    0  502  501  0.00000000000E+00  0.00000000000E+00  0.16779720691E+03  0.16779720691E+03  0.00000000000E+00 0. -1.
         21   -1    0    0  501  502 -0.00000000000E+00 -0.00000000000E+00 -0.92927605782E+03  0.92927605782E+03  0.00000000000E+00 0. -1.
         25    1    1    2    0    0  0.17413836304E+03  0.16048668387E+03 -0.49894926943E+03  0.56626453062E+03  0.12500000000E+03 0.  0.
         25    1    1    2    0    0  0.69850591021E+02  0.90335910991E+00 -0.83952534116E+02  0.16599081031E+03  0.12500000000E+03 0.  0.
         25    1    1    2    0    0 -0.24398895406E+03 -0.16139004298E+03 -0.17857704737E+03  0.36481792379E+03  0.12500000000E+03 0.  0.
</event>
<event>
 5    0  0.5576108E-005  0.3370558E+03  0.7546771E-02  0.1068057E+00
         21   -1    0    0  502  501  0.00000000000E+00  0.00000000000E+00  0.68888328704E+03  0.68888328704E+03  0.00000000000E+00 0. -1.
         21   -1    0    0  501  502 -0.00000000000E+00 -0.00000000000E+00 -0.16491418952E+03  0.16491418952E+03  0.00000000000E+00 0. -1.
         25    1    1    2    0    0 -0.15921205661E+03  0.86374545660E+02  0.25279264969E+03  0.33516886019E+03  0.12500000000E+03 0.  0.
         25    1    1    2    0    0 -0.58052230664E+02 -0.13686656530E+01  0.20289875005E+03  0.24528521664E+03  0.12500000000E+03 0.  0.
         25    1    1    2    0    0  0.21726428727E+03 -0.85005880007E+02  0.68277697781E+02  0.27334339972E+03  0.12500000000E+03 0.  0.
</event>
<event>
 5    0  0.6195139E-005  0.2865369E+03  0.7546771E-02  0.1092171E+00
         21   -1    0    0  502  501  0.00000000000E+00  0.00000000000E+00  0.13099510624E+03  0.13099510624E+03  0.00000000000E+00 0.  1.
         21   -1    0    0  501  502 -0.00000000000E+00 -0.00000000000E+00 -0.62676688933E+03  0.62676688933E+03  0.00000000000E+00 0.  1.
         25    1    1    2    0    0 -0.40712392004E+02 -0.22743464042E+02 -0.33516662281E+03  0.36074427101E+03  0.12500000000E+03 0.  0.
         25    1    1    2    0    0 -0.10087823081E+03  0.19934854177E+02 -0.12567417255E+03  0.20492148133E+03  0.12500000000E+03 0.  0.
         25    1    1    2    0    0  0.14159062282E+03  0.28086098657E+01 -0.34930987726E+02  0.19209624323E+03  0.12500000000E+03 0.  0.
</event>
<event>
 5    0  0.5576108E-005  0.4529462E+03  0.7546771E-02  0.1026847E+00
         21   -1    0    0  502  501  0.00000000000E+00  0.00000000000E+00  0.29867665741E+03  0.29867665741E+03  0.00000000000E+00 0. -1.
         21   -1    0    0  501  502 -0.00000000000E+00 -0.00000000000E+00 -0.68689745047E+03  0.68689745047E+03  0.00000000000E+00 0. -1.
         25    1    1    2    0    0  0.17353206913E+03  0.30548394767E+03 -0.39020545699E+03  0.53973986323E+03  0.12500000000E+03 0.  0.
         25    1    1    2    0    0 -0.84801472295E+02 -0.21278617566E+03 -0.33882569724E+02  0.26313926881E+03  0.12500000000E+03 0.  0.
         25    1    1    2    0    0 -0.88730596836E+02 -0.92697772006E+02  0.35867233650E+02  0.18269497585E+03  0.12500000000E+03 0.  0.
</event>
<event>
 5    0  0.5576108E-005  0.2695165E+03  0.7546771E-02  0.1101557E+00
         21   -1    0    0  502  501  0.00000000000E+00  0.00000000000E+00  0.77648729828E+02  0.77648729828E+02  0.00000000000E+00 0.  1.
         21   -1    0    0  501  502 -0.00000000000E+00 -0.00000000000E+00 -0.93548383889E+03  0.93548383889E+03  0.00000000000E+00 0.  1.
         25    1    1    2    0    0 -0.27720177393E+01  0.10184510477E+02 -0.38420493327E+02  0.13119658015E+03  0.12500000000E+03 0.  0.
         25    1    1    2    0    0  0.15907000235E+02  0.62583936573E+02 -0.61681970512E+03  0.63266209812E+03  0.12500000000E+03 0.  0.
         25    1    1    2    0    0 -0.13134982495E+02 -0.72768447050E+02 -0.20259491061E+03  0.24927389045E+03  0.12500000000E+03 0.  0.
</event>
<event>
 5    0  0.5576108E-005  0.2718943E+03  0.7546771E-02  0.1100200E+00
         21   -1    0    0  502  501  0.00000000000E+00  0.00000000000E+00  0.44888306762E+03  0.44888306762E+03  0.00000000000E+00 0.  1.
         21   -1    0    0  501  502 -0.00000000000E+00 -0.00000000000E+00 -0.16468993473E+03  0.16468993473E+03  0.00000000000E+00 0.  1.
         25    1    1    2    0    0  0.10001596497E+03  0.32135385274E+02  0.87851403477E+02  0.18541506230E+03  0.12500000000E+03 0.  0.
         25    1    1    2    0    0 -0.17594369917E+03 -0.19039019121E+02  0.53213832141E+02  0.22310397006E+03  0.12500000000E+03 0.  0.
         25    1    1    2    0    0  0.75927734195E+02 -0.13096366153E+02  0.14312789727E+03  0.20505396998E+03  0.12500000000E+03 0.  0.
</event>
<event>
 5    0  0.5576108E-005  0.3107799E+03  0.7546771E-02  0.1079973E+00
         21   -1    0    0  502  501  0.00000000000E+00  0.00000000000E+00  0.66942839787E+02  0.66942839787E+02  0.00000000000E+00 0. -1.
         21   -1    0    0  501  502 -0.00000000000E+00 -0.00000000000E+00 -0.14427853986E+04  0.14427853986E+04  0.00000000000E+00 0. -1.
         25    1    1    2    0    0 -0.11491000502E+03 -0.10535412233E+03 -0.20531591467E+03  0.28650205089E+03  0.12500000000E+03 0.  0.
         25    1    1    2    0    0  0.76828697308E+02  0.15378194373E+03 -0.62372452508E+03  0.65894523151E+03  0.12500000000E+03 0.  0.
         25    1    1    2    0    0  0.38081307708E+02 -0.48427821393E+02 -0.54680211909E+03  0.56428095602E+03  0.12500000000E+03 0.  0.
</event>
<event>
 5    0  0.5576108E-005  0.3497188E+03  0.7546771E-02  0.1062730E+00
         21   -1    0    0  502  501  0.00000000000E+00  0.00000000000E+00  0.86402116702E+03  0.86402116702E+03  0.00000000000E+00 0.  1.
         21   -1    0    0  501  502 -0.00000000000E+00 -0.00000000000E+00 -0.14155124468E+03  0.14155124468E+03  0.00000000000E+00 0.  1.
         25    1    1    2    0    0 -0.41601883383E+02 -0.73878565253E+02  0.31819629700E+03  0.35222527241E+03  0.12500000000E+03 0.  0.
         25    1    1    2    0    0 -0.73198584433E+02 -0.97938697918E+02  0.37024052644E+03  0.40945459911E+03  0.12500000000E+03 0.  0.
         25    1    1    2    0    0  0.11480046782E+03  0.17181726317E+03  0.34033098909E+02  0.24389254018E+03  0.12500000000E+03 0.  0.
</event>
<event>
 5    0  0.5576108E-005  0.4902514E+03  0.7546771E-02  0.1016355E+00
         21   -1    0    0  502  501  0.00000000000E+00  0.00000000000E+00  0.21007018675E+03  0.21007018675E+03  0.00000000000E+00 0.  1.
         21   -1    0    0  501  502 -0.00000000000E+00 -0.00000000000E+00 -0.11441245022E+04  0.11441245022E+04  0.00000000000E+00 0.  1.
         25    1    1    2    0    0  0.24062942468E+03 -0.11218014757E+03 -0.38439749451E+03  0.48360452781E+03  0.12500000000E+03 0.  0.
         25    1    1    2    0    0 -0.20202103847E+03 -0.21228245228E+03 -0.20114676904E+03  0.37677760313E+03  0.12500000000E+03 0.  0.
         25    1    1    2    0    0 -0.38608386216E+02  0.32446259985E+03 -0.34851005193E+03  0.49381255804E+03  0.12500000000E+03 0.  0.
</event>
<event>
 5    0  0.5576108E-005  0.4577235E+03  0.7546771E-02  0.1025444E+00
         21   -1    0    0  502  501  0.00000000000E+00  0.00000000000E+00  0.85771119120E+03  0.85771119120E+03  0.00000000000E+00 0. -1.
         21   -1    0    0  501  502 -0.00000000000E+00 -0.00000000000E+00 -0.24426734484E+03  0.24426734484E+03  0.00000000000E+00 0. -1.
         25    1    1    2    0    0 -0.72316349616E+02 -0.26533221110E+03  0.19986172693E+03  0.36221615999E+03  0.12500000000E+03 0.  0.
         25    1    1    2    0    0  0.80590513126E+02  0.39851090732E+03  0.33181052958E+03  0.53947103871E+03  0.12500000000E+03 0.  0.
         25    1    1    2    0    0 -0.82741635099E+01 -0.13317869623E+03  0.81771589849E+02  0.20029133735E+03  0.12500000000E+03 0.  0.
</event>
<event>
 5    0  0.5576108E-005  0.2990221E+03  0.7546771E-02  0.1085730E+00
         21   -1    0    0  502  501  0.00000000000E+00  0.00000000000E+00  0.78400157349E+02  0.78400157349E+02  0.00000000000E+00 0.  1.
         21   -1    0    0  501  502 -0.00000000000E+00 -0.00000000000E+00 -0.11404854624E+04  0.11404854624E+04  0.00000000000E+00 0.  1.
         25    1    1    2    0    0  0.12978294603E+03 -0.65792703384E+02 -0.60036264818E+03  0.63026391474E+03  0.12500000000E+03 0.  0.
         25    1    1    2    0    0 -0.10428616540E+03 -0.68369523780E+02 -0.26548094372E+03  0.31883401254E+03  0.12500000000E+03 0.  0.
         25    1    1    2    0    0 -0.25496780631E+02  0.13416222716E+03 -0.19624171312E+03  0.26978769243E+03  0.12500000000E+03 0.  0.
</event>
<event>
 5    0  0.5576108E-005  0.3535515E+03  0.7546771E-02  0.1061167E+00
         21   -1    0    0  502  501  0.00000000000E+00  0.00000000000E+00  0.27905951835E+03  0.27905951835E+03  0.00000000000E+00 0.  1.
         21   -1    0    0  501  502 -0.00000000000E+00 -0.00000000000E+00 -0.44792837408E+03  0.44792837408E+03  0.00000000000E+00 0.  1.
         25    1    1    2    0    0  0.35202959882E+02 -0.43120141371E+02  0.20765359615E+01  0.13684994329E+03  0.12500000000E+03 0.  0.
         25    1    1    2    0    0 -0.96162920042E+02  0.23603494839E+02 -0.33690178121E+03  0.37273615647E+03  0.12500000000E+03 0.  0.
         25    1    1    2    0    0  0.60959960160E+02  0.19516646532E+02  0.16595638952E+03  0.21740179267E+03  0.12500000000E+03 0.  0.
</event>
<event>
 5    0  0.5576108E-005  0.2145853E+03  0.7546771E-02  0.1137986E+00
         21   -1    0    0  502  501  0.00000000000E+00  0.00000000000E+00  0.67915735788E+02  0.67915735788E+02  0.00000000000E+00 0.  1.
         21   -1    0    0  501  502 -0.00000000000E+00 -0.00000000000E+00 -0.67799975579E+03  0.67799975579E+03  0.00000000000E+00 0.  1.
         25    1    1    2    0    0 -0.65269070106E+02  0.28188871577E+02 -0.21704377383E+03  0.26036064171E+03  0.12500000000E+03 0.  0.
         25    1    1    2    0    0 -0.22219868450E+02 -0.36639782680E+02 -0.17439491759E+03  0.21880307016E+03  0.12500000000E+03 0.  0.
         25    1    1    2    0    0  0.87488938556E+02  0.84509111023E+01 -0.21864532857E+03  0.26675177970E+03  0.12500000000E+03 0.  0.
</event>
<event>
 5    0  0.5576108E-005  0.3093374E+03  0.7546771E-02  0.1080664E+00
         21   -1    0    0  502  501  0.00000000000E+00  0.00000000000E+00  0.61580019743E+02  0.61580019743E+02  0.00000000000E+00 0. -1.
         21   -1    0    0  501  502 -0.00000000000E+00 -0.00000000000E+00 -0.15539072327E+04  0.15539072327E+04  0.00000000000E+00 0. -1.
         25    1    1    2    0    0 -0.53634609411E+02  0.10122253041E+03 -0.15787751951E+03  0.23167430405E+03  0.12500000000E+03 0.  0.
         25    1    1    2    0    0  0.60894810947E+02 -0.16909920562E+03 -0.69370797388E+03  0.72743279577E+03  0.12500000000E+03 0.  0.
         25    1    1    2    0    0 -0.72602015359E+01  0.67876675207E+02 -0.64074171957E+03  0.65638015262E+03  0.12500000000E+03 0.  0.
</event>
<event>
 5    0  0.5610814E-005  0.2932186E+03  0.7546771E-02  0.1088681E+00
         21   -1    0    0  502  501  0.00000000000E+00  0.00000000000E+00  0.57781144451E+03  0.57781144451E+03  0.00000000000E+00 0. -1.
         21   -1    0    0  501  502 -0.00000000000E+00 -0.00000000000E+00 -0.14879796117E+03  0.14879796117E+03  0.00000000000E+00 0. -1.
         25    1    1    2    0    0 -0.97295295084E+02  0.83244147736E+02  0.22905611349E+03  0.29066762067E+03  0.12500000000E+03 0.  0.
         25    1    1    2    0    0  0.16374249174E+03 -0.70998881558E+02  0.39204788064E+02  0.22139209604E+03  0.12500000000E+03 0.  0.
         25    1    1    2    0    0 -0.66447196655E+02 -0.12245266178E+02  0.16075258178E+03  0.21454968897E+03  0.12500000000E+03 0.  0.
</event>
<event>
 5    0  0.5576108E-005  0.6584490E+03  0.7546771E-02  0.9791053E-01
         21   -1    0    0  502  501  0.00000000000E+00  0.00000000000E+00  0.64258774134E+03  0.64258774134E+03  0.00000000000E+00 0.  1.
         21   -1    0    0  501  502 -0.00000000000E+00 -0.00000000000E+00 -0.67470183039E+03  0.67470183039E+03  0.00000000000E+00 0.  1.
         25    1    1    2    0    0  0.15035638146E+02 -0.59760703848E+02  0.71767976346E+02  0.15675794898E+03  0.12500000000E+03 0.  0.
         25    1    1    2    0    0 -0.48230544643E+03  0.58052464085E+02 -0.35596633501E+03  0.61508183513E+03  0.12500000000E+03 0.  0.
         25    1    1    2    0    0  0.46726980829E+03  0.17082397634E+01  0.25208426962E+03  0.54544978762E+03  0.12500000000E+03 0.  0.
</event>
<event>
 5    0  0.5576108E-005  0.3508818E+03  0.7546771E-02  0.1062254E+00
         21   -1    0    0  502  501  0.00000000000E+00  0.00000000000E+00  0.79382376199E+03  0.79382376199E+03  0.00000000000E+00 0. -1.
         21   -1    0    0  501  502 -0.00000000000E+00 -0.00000000000E+00 -0.15509489030E+03  0.15509489030E+03  0.00000000000E+00 0. -1.
         25    1    1    2    0    0  0.16550090965E+03  0.23151436564E+03  0.26065963551E+03  0.40565736549E+03  0.12500000000E+03 0.  0.
         25    1    1    2    0    0 -0.99343776185E+02 -0.15358147460E+03  0.26858727511E+03  0.34816745908E+03  0.12500000000E+03 0.  0.
         25    1    1    2    0    0 -0.66157133470E+02 -0.77932891036E+02  0.10948196106E+03  0.19509382772E+03  0.12500000000E+03 0.  0.
</event>
<event>
 5    0  0.5576108E-005  0.3124641E+03  0.7546771E-02  0.1079171E+00
         21   -1    0    0  502  501  0.00000000000E+00  0.00000000000E+00  0.56575590771E+02  0.56575590771E+02  0.00000000000E+00 0.  1.
         21   -1    0    0  501  502 -0.00000000000E+00 -0.00000000000E+00 -0.17257234846E+04  0.17257234846E+04  0.00000000000E+00 0.  1.
         25    1    1    2    0    0 -0.96001754101E+02 -0.54150671309E+02 -0.14411187934E+03  0.22032218627E+03  0.12500000000E+03 0.  0.
         25    1    1    2    0    0  0.48636459299E+02  0.80719331904E+02 -0.11904453192E+04  0.12006940384E+04  0.12500000000E+03 0.  0.
         25    1    1    2    0    0  0.47365294802E+02 -0.26568660595E+02 -0.33459069526E+03  0.36128285073E+03  0.12500000000E+03 0.  0.
</event>
<event>
 5    0  0.5576108E-005  0.3399748E+03  0.7546771E-02  0.1066807E+00
         21   -1    0    0  502  501  0.00000000000E+00  0.00000000000E+00  0.54697017502E+03  0.54697017502E+03  0.00000000000E+00 0.  1.
         21   -1    0    0  501  502 -0.00000000000E+00 -0.00000000000E+00 -0.21131474049E+03  0.21131474049E+03  0.00000000000E+00 0.  1.
         25    1    1    2    0    0  0.10317798530E+03  0.15453518633E+02 -0.77155638588E+02  0.18017352873E+03  0.12500000000E+03 0.  0.
         25    1    1    2    0    0  0.28339436692E+02 -0.13251857441E+03  0.14796408343E+03  0.23639514847E+03  0.12500000000E+03 0.  0.
         25    1    1    2    0    0 -0.13151742199E+03  0.11706505578E+03  0.26484698969E+03  0.34171623830E+03  0.12500000000E+03 0.  0.
</event>
<event>
 5    0  0.5576108E-005  0.5354112E+03  0.7546771E-02  0.1004928E+00
         21   -1    0    0  502  501  0.00000000000E+00  0.00000000000E+00  0.10810065651E+04  0.10810065651E+04  0.00000000000E+00 0.  1.
         21   -1    0    0  501  502 -0.00000000000E+00 -0.00000000000E+00 -0.26518355419E+03  0.26518355419E+03  0.00000000000E+00 0.  1.
         25    1    1    2    0    0  0.35853453310E+03 -0.18313142548E+03  0.39007190423E+02  0.42335645894E+03  0.12500000000E+03 0.  0.
         25    1    1    2    0    0 -0.21218308980E+03  0.15552551339E+03  0.36135633564E+03  0.46412633002E+03  0.12500000000E+03 0.  0.
         25    1    1    2    0    0 -0.14635144329E+03  0.27605912095E+02  0.41545948480E+03  0.45870733028E+03  0.12500000000E+03 0.  0.
</event>
<event>
 5    0  0.5576108E-005  0.2407258E+03  0.7546771E-02  0.1119310E+00
         21   -1    0    0  502  501  0.00000000000E+00  0.00000000000E+00  0.89310261813E+02  0.89310261813E+02  0.00000000000E+00 0.  1.
         21   -1    0    0  501  502 -0.00000000000E+00 -0.00000000000E+00 -0.64884950582E+03  0.64884950582E+03  0.00000000000E+00 0.  1.
         25    1    1    2    0    0 -0.29870052081E+01  0.76850935134E+02 -0.13644545606E+03  0.20039299117E+03  0.12500000000E+03 0.  0.
         25    1    1    2    0    0  0.27760585366E+02 -0.12475260884E+03 -0.15300057045E+03  0.23530413951E+03  0.12500000000E+03 0.  0.
         25    1    1    2    0    0 -0.24773580158E+02  0.47901673701E+02 -0.27009321749E+03  0.30246263695E+03  0.12500000000E+03 0.  0.
</event>
<event>
 5    0  0.5576108E-005  0.2988593E+03  0.7546771E-02  0.1085812E+00
         21   -1    0    0  502  501  0.00000000000E+00  0.00000000000E+00  0.44610692302E+03  0.44610692302E+03  0.00000000000E+00 0. -1.
         21   -1    0    0  501  502 -0.00000000000E+00 -0.00000000000E+00 -0.20021403438E+03  0.20021403438E+03  0.00000000000E+00 0. -1.
         25    1    1    2    0    0 -0.87788449381E+02  0.62634600556E+02  0.22740951718E+03  0.28101600228E+03  0.12500000000E+03 0.  0.
         25    1    1    2    0    0  0.10224161133E+03 -0.11922471270E+03  0.77590624186E+02  0.21520498174E+03  0.12500000000E+03 0.  0.
         25    1    1    2    0    0 -0.14453161946E+02  0.56590112143E+02 -0.59107252730E+02  0.15009997338E+03  0.12500000000E+03 0.  0.
</event>
<event>
 5    0  0.5576108E-005  0.4493757E+03  0.7546771E-02  0.1027908E+00
         21   -1    0    0  502  501  0.00000000000E+00  0.00000000000E+00  0.11621288752E+03  0.11621288752E+03  0.00000000000E+00 0. -1.
         21   -1    0    0  501  502 -0.00000000000E+00 -0.00000000000E+00 -0.17376606146E+04  0.17376606146E+04  0.00000000000E+00 0. -1.
         25    1    1    2    0    0 -0.16811706318E+02  0.11267303113E+03 -0.26747161471E+03  0.31645522605E+03  0.12500000000E+03 0.  0.
         25    1    1    2    0    0  0.37356031868E+02  0.28141548342E+03 -0.66224064908E+03  0.73128505025E+03  0.12500000000E+03 0.  0.
         25    1    1    2    0    0 -0.20544325549E+02 -0.39408851455E+03 -0.69173546333E+03  0.80613322586E+03  0.12500000000E+03 0.  0.
</event>
<event>
 5    0  0.5576108E-005  0.3484282E+03  0.7546771E-02  0.1063262E+00
         21   -1    0    0  502  501  0.00000000000E+00  0.00000000000E+00  0.19637220543E+03  0.19637220543E+03  0.00000000000E+00 0. -1.
         21   -1    0    0  501  502 -0.00000000000E+00 -0.00000000000E+00 -0.61822514291E+03  0.61822514291E+03  0.00000000000E+00 0. -1.
         25    1    1    2    0    0 -0.42403157285E+02  0.17671096781E+02 -0.58881862279E+01  0.13330403650E+03  0.12500000000E+03 0.  0.
         25    1    1    2    0    0 -0.10385655188E+03  0.17820323550E+03 -0.95762307508E+02  0.25949565709E+03  0.12500000000E+03 0.  0.
         25    1    1    2    0    0  0.14625970917E+03 -0.19587433228E+03 -0.32020244374E+03  0.42179765475E+03  0.12500000000E+03 0.  0.
</event>
<event>
 5    0  0.5576108E-005  0.2795736E+03  0.7546771E-02  0.1095922E+00
         21   -1    0    0  502  501  0.00000000000E+00  0.00000000000E+00  0.20310579695E+03  0.20310579695E+03  0.00000000000E+00 0. -1.
         21   -1    0    0  501  502 -0.00000000000E+00 -0.00000000000E+00 -0.38483095055E+03  0.38483095055E+03  0.00000000000E+00 0. -1.
         25    1    1    2    0    0  0.81570938967E+02 -0.10399696677E+01  0.10005571145E+03  0.17969709239E+03  0.12500000000E+03 0.  0.
         25    1    1    2    0    0 -0.85061074588E+01 -0.22955213097E+02 -0.20818022318E+03  0.24405593825E+03  0.12500000000E+03 0.  0.
         25    1    1    2    0    0 -0.73064831508E+02  0.23995182765E+02 -0.73600641869E+02  0.16418371686E+03  0.12500000000E+03 0.  0.
</event>
<event>
 5    0  0.5576108E-005  0.2538101E+03  0.7546771E-02  0.1110920E+00
         21   -1    0    0  502  501  0.00000000000E+00  0.00000000000E+00  0.89815129019E+02  0.89815129019E+02  0.00000000000E+00 0. -1.
         21   -1    0    0  501  502 -0.00000000000E+00 -0.00000000000E+00 -0.71724649939E+03  0.71724649939E+03  0.00000000000E+00 0. -1.
         25    1    1    2    0    0 -0.16186276940E+02  0.70209066310E+02 -0.22128002845E+03  0.26416123778E+03  0.12500000000E+03 0.  0.
         25    1    1    2    0    0  0.13298404674E+02  0.49065680107E+02 -0.32518597850E+03  0.35207273274E+03  0.12500000000E+03 0.  0.
         25    1    1    2    0    0  0.28878722659E+01 -0.11927474642E+03 -0.80965363418E+02  0.19082765788E+03  0.12500000000E+03 0.  0.
</event>
<event>
 5    0  0.6035139E-005  0.2712185E+03  0.7546771E-02  0.1100584E+00
         21   -1    0    0  502  501  0.00000000000E+00  0.00000000000E+00  0.11027075345E+03  0.11027075345E+03  0.00000000000E+00 0.  1.
         21   -1    0    0  501  502 -0.00000000000E+00 -0.00000000000E+00 -0.66708071120E+03  0.66708071120E+03  0.00000000000E+00 0.  1.
         25    1    1    2    0    0  0.58852883460E+02  0.89444469296E+01 -0.24156794125E+03  0.27843084467E+03  0.12500000000E+03 0.  0.
         25    1    1    2    0    0 -0.25105302487E+02  0.29314306257E+02 -0.33760990271E+03  0.36207050580E+03  0.12500000000E+03 0.  0.
         25    1    1    2    0    0 -0.33747580973E+02 -0.38258753186E+02  0.22367886209E+02  0.13685011418E+03  0.12500000000E+03 0.  0.
</event>
<event>
 5    0  0.5576108E-005  0.3030614E+03  0.7546771E-02  0.1083720E+00
         21   -1    0    0  502  501  0.00000000000E+00  0.00000000000E+00  0.11479388306E+04  0.11479388306E+04  0.00000000000E+00 0. -1.
         21   -1    0    0  501  502 -0.00000000000E+00 -0.00000000000E+00 -0.80009652374E+02  0.80009652374E+02  0.00000000000E+00 0. -1.
         25    1    1    2    0    0  0.17939969672E+03  0.47161528521E+02  0.30119092381E+03  0.37516587470E+03  0.12500000000E+03 0.  0.
         25    1    1    2    0    0 -0.65235907192E+02 -0.77121838296E+02  0.56655767067E+03  0.58891094040E+03  0.12500000000E+03 0.  0.
         25    1    1    2    0    0 -0.11416378952E+03  0.29960309774E+02  0.20018058378E+03  0.26387166790E+03  0.12500000000E+03 0.  0.
</event>
<event>
 5    0  0.5576108E-005  0.2827568E+03  0.7546771E-02  0.1094193E+00
         21   -1    0    0  502  501  0.00000000000E+00  0.00000000000E+00  0.37907566471E+03  0.37907566471E+03  0.00000000000E+00 0. -1.
         21   -1    0    0  501  502 -0.00000000000E+00 -0.00000000000E+00 -0.21091150113E+03  0.21091150113E+03  0.00000000000E+00 0. -1.
         25    1    1    2    0    0 -0.70770317409E+01  0.80442051303E+02 -0.10925415682E+03  0.18461440566E+03  0.12500000000E+03 0.  0.
         25    1    1    2    0    0  0.16743197205E+02  0.28340727308E+02  0.11202343774E+03  0.17104906337E+03  0.12500000000E+03 0.  0.
         25    1    1    2    0    0 -0.96661654641E+01 -0.10878277861E+03  0.16539488265E+03  0.23432369681E+03  0.12500000000E+03 0.  0.
</event>
<event>
 5    0  0.5576108E-005  0.3162030E+03  0.7546771E-02  0.1077410E+00
         21   -1    0    0  502  501  0.00000000000E+00  0.00000000000E+00  0.22642633270E+03  0.22642633270E+03  0.00000000000E+00 0.  1.
         21   -1    0    0  501  502 -0.00000000000E+00 -0.00000000000E+00 -0.44157553634E+03  0.44157553634E+03  0.00000000000E+00 0.  1.
         25    1    1    2    0    0  0.17019283151E+02 -0.12036076671E+03 -0.10296747731E+03  0.20249363334E+03  0.12500000000E+03 0.  0.
         25    1    1    2    0    0 -0.99434216897E+02  0.18199203631E+01  0.93300006100E+02  0.18498747725E+03  0.12500000000E+03 0.  0.
         25    1    1    2    0    0  0.82414933745E+02  0.11854084634E+03 -0.20548173243E+03  0.28052075844E+03  0.12500000000E+03 0.  0.
</event>
<event>
 5    0  0.5576108E-005  0.2295032E+03  0.7546771E-02  0.1126990E+00
         21   -1    0    0  502  501  0.00000000000E+00  0.00000000000E+00  0.12479401980E+04  0.12479401980E+04  0.00000000000E+00 0. -1.
         21   -1    0    0  501  502 -0.00000000000E+00 -0.00000000000E+00 -0.42206909251E+02  0.42206909251E+02  0.00000000000E+00 0. -1.
         25    1    1    2    0    0 -0.48476748437E+01  0.21193475884E+02  0.30992930781E+03  0.33489377303E+03  0.12500000000E+03 0.  0.
         25    1    1    2    0    0  0.17492238218E+01 -0.57804179857E+01  0.75911231004E+03  0.76935880594E+03  0.12500000000E+03 0.  0.
         25    1    1    2    0    0  0.30984510218E+01 -0.15413057898E+02  0.13669167087E+03  0.18589452826E+03  0.12500000000E+03 0.  0.
</event>
<event>
 5    0  0.5576108E-005  0.5670681E+03  0.7546771E-02  0.9976188E-01
         21   -1    0    0  502  501  0.00000000000E+00  0.00000000000E+00  0.53172479867E+03  0.53172479867E+03  0.00000000000E+00 0.  1.
         21   -1    0    0  501  502 -0.00000000000E+00 -0.00000000000E+00 -0.60476067885E+03  0.60476067885E+03  0.00000000000E+00 0.  1.
         25    1    1    2    0    0 -0.29336710124E+03 -0.18907646430E+03  0.17109755282E+03  0.40830569188E+03  0.12500000000E+03 0.  0.
         25    1    1    2    0    0  0.30849542181E+03 -0.31524452498E+02 -0.32028818711E+03  0.46300403798E+03  0.12500000000E+03 0.  0.
         25    1    1    2    0    0 -0.15128320571E+02  0.22060091680E+03  0.76154754105E+02  0.26517574766E+03  0.12500000000E+03 0.  0.
</event>
<event>
 5    0  0.5576108E-005  0.2407275E+03  0.7546771E-02  0.1119309E+00
         21   -1    0    0  502  501  0.00000000000E+00  0.00000000000E+00  0.38789338259E+03  0.38789338259E+03  0.00000000000E+00 0.  1.
         21   -1    0    0  501  502 -0.00000000000E+00 -0.00000000000E+00 -0.14939606225E+03  0.14939606225E+03  0.00000000000E+00 0.  1.
         25    1    1    2    0    0  0.16346367089E+02  0.88626811054E+02  0.86605571500E+02  0.17676945542E+03  0.12500000000E+03 0.  0.
         25    1    1    2    0    0 -0.38593725273E+02 -0.46604571257E+02 -0.22567821732E+02  0.14069743519E+03  0.12500000000E+03 0.  0.
         25    1    1    2    0    0  0.22247358185E+02 -0.42022239797E+02  0.17445957057E+03  0.21982255422E+03  0.12500000000E+03 0.  0.
</event>
<event>
 5    0  0.5576108E-005  0.3711948E+03  0.7546771E-02  0.1054237E+00
         21   -1    0    0  502  501  0.00000000000E+00  0.00000000000E+00  0.12326133541E+03  0.12326133541E+03  0.00000000000E+00 0.  1.
         21   -1    0    0  501  502 -0.00000000000E+00 -0.00000000000E+00 -0.11178331047E+04  0.11178331047E+04  0.00000000000E+00 0.  1.
         25    1    1    2    0    0  0.64788153082E+01  0.91003344383E+02 -0.11129270731E+02  0.15515297098E+03  0.12500000000E+03 0.  0.
         25    1    1    2    0    0  0.16735817877E+03 -0.10461178469E+03 -0.38654366275E+03  0.45165627274E+03  0.12500000000E+03 0.  0.
         25    1    1    2    0    0 -0.17383699408E+03  0.13608440302E+02 -0.59689883579E+03  0.63428519636E+03  0.12500000000E+03 0.  0.
</event>
<event>
 5    0  0.5576108E-005  0.2715220E+03  0.7546771E-02  0.1100412E+00
         21   -1    0    0  502  501  0.00000000000E+00  0.00000000000E+00  0.54594588779E+02  0.54594588779E+02  0.00000000000E+00 0.  1.
         21   -1    0    0  501  502 -0.00000000000E+00 -0.00000000000E+00 -0.13503935923E+04  0.13503935923E+04  0.00000000000E+00 0.  1.
         25    1    1    2    0    0 -0.11299855647E+03  0.33393397921E+02 -0.69982065725E+03  0.72059541013E+03  0.12500000000E+03 0.  0.
         25    1    1    2    0    0  0.55822922355E+02 -0.40696595039E+02 -0.11280762806E+03  0.18199717706E+03  0.12500000000E+03 0.  0.
         25    1    1    2    0    0  0.57175634115E+02  0.73031971181E+01 -0.48317071817E+03  0.50239559385E+03  0.12500000000E+03 0.  0.
</event>
<event>
 5    0  0.5576108E-005  0.3595628E+03  0.7546771E-02  0.1058757E+00
         21   -1    0    0  502  501  0.00000000000E+00  0.00000000000E+00  0.88072206904E+02  0.88072206904E+02  0.00000000000E+00 0.  1.
         21   -1    0    0  501  502 -0.00000000000E+00 -0.00000000000E+00 -0.14679482244E+04  0.14679482244E+04  0.00000000000E+00 0.  1.
         25    1    1    2    0    0  0.78679440028E+02 -0.34395585665E+02 -0.30980624988E+03  0.34493249058E+03  0.12500000000E+03 0.  0.
         25    1    1    2    0    0 -0.22519886835E+03  0.18936748300E+03 -0.58440597859E+03  0.66613055908E+03  0.12500000000E+03 0.  0.
         25    1    1    2    0    0  0.14651942832E+03 -0.15497189733E+03 -0.48566378905E+03  0.54495738167E+03  0.12500000000E+03 0.  0.
</event>
<event>
 5    0  0.5862837E-005  0.4161389E+03  0.7546771E-02  0.1038330E+00
         21   -1    0    0  502  501  0.00000000000E+00  0.00000000000E+00  0.27015724945E+03  0.27015724945E+03  0.00000000000E+00 0. -1.
         21   -1    0    0  501  502 -0.00000000000E+00 -0.00000000000E+00 -0.64100306039E+03  0.64100306039E+03  0.00000000000E+00 0. -1.
         25    1    1    2    0    0 -0.18013138574E+03  0.13100629421E+03 -0.15471007345E+03  0.29861375065E+03  0.12500000000E+03 0.  0.
         25    1    1    2    0    0  0.15502259219E+03  0.14801559656E+03 -0.17363664387E+03  0.30284534833E+03  0.12500000000E+03 0.  0.
         25    1    1    2    0    0  0.25108793554E+02 -0.27902189077E+03 -0.42499093627E+02  0.30970121085E+03  0.12500000000E+03 0.  0.
</event>
<event>
 5    0  0.5576108E-005  0.2811360E+03  0.7546771E-02  0.1095070E+00
         21   -1    0    0  502  501  0.00000000000E+00  0.00000000000E+00  0.28053508191E+03  0.28053508191E+03  0.00000000000E+00 0.  1.
         21   -1    0    0  501  502 -0.00000000000E+00 -0.00000000000E+00 -0.28173829172E+03  0.28173829172E+03  0.00000000000E+00 0.  1.
         25    1    1    2    0    0 -0.12402597822E+03  0.10419397337E+03 -0.14458274616E+02  0.20511672059E+03  0.12500000000E+03 0.  0.
         25    1    1    2    0    0  0.34449089635E+02 -0.89630229830E+02  0.93311948868E+02  0.18317324498E+03  0.12500000000E+03 0.  0.
         25    1    1    2    0    0  0.89576888589E+02 -0.14563743535E+02 -0.80056884056E+02  0.17398340806E+03  0.12500000000E+03 0.  0.
</event>
<event>
 5    0  0.5576108E-005  0.2420923E+03  0.7546771E-02  0.1118407E+00
         21   -1    0    0  502  501  0.00000000000E+00  0.00000000000E+00  0.68215449639E+03  0.68215449639E+03  0.00000000000E+00 0. -1.
         21   -1    0    0  501  502 -0.00000000000E+00 -0.00000000000E+00 -0.85917030287E+02  0.85917030287E+02  0.00000000000E+00 0. -1.
         25    1    1    2    0    0 -0.62786008704E+02  0.54039484419E+02  0.10754175706E+03  0.18453340694E+03  0.12500000000E+03 0.  0.
         25    1    1    2    0    0  0.11835856350E+02  0.62774111550E+02  0.21681847069E+03  0.25829426205E+03  0.12500000000E+03 0.  0.
         25    1    1    2    0    0  0.50950152354E+02 -0.11681359597E+03  0.27187723836E+03  0.32524385769E+03  0.12500000000E+03 0.  0.
</event>
<event>
 5    0  0.7219326E-005  0.4741564E+03  0.7546771E-02  0.1020754E+00
         21   -1    0    0  502  501  0.00000000000E+00  0.00000000000E+00  0.75047547548E+03  0.75047547548E+03  0.00000000000E+00 0. -1.
         21   -1    0    0  501  502 -0.00000000000E+00 -0.00000000000E+00 -0.29957575380E+03  0.29957575380E+03  0.00000000000E+00 0. -1.
         25    1    1    2    0    0 -0.56629037988E+02 -0.14621238226E+03 -0.97043265091E+02  0.22277186530E+03  0.12500000000E+03 0.  0.
         25    1    1    2    0    0  0.28335370881E+03 -0.21111641746E+02  0.25011807402E+03  0.39864655607E+03  0.12500000000E+03 0.  0.
         25    1    1    2    0    0 -0.22672467083E+03  0.16732402400E+03  0.29782491275E+03  0.42863280792E+03  0.12500000000E+03 0.  0.
</event>
<event>
 5    0  0.5576108E-005  0.2848257E+03  0.7546771E-02  0.1093082E+00
         21   -1    0    0  502  501  0.00000000000E+00  0.00000000000E+00  0.10500088254E+03  0.10500088254E+03  0.00000000000E+00 0.  1.
         21   -1    0    0  501  502 -0.00000000000E+00 -0.00000000000E+00 -0.77261915188E+03  0.77261915188E+03  0.00000000000E+00 0.  1.
         25    1    1    2    0    0  0.38663953629E+02  0.68755744388E+01 -0.35833177176E+03  0.38153483915E+03  0.12500000000E+03 0.  0.
         25    1    1    2    0    0  0.18876394192E+02  0.13034253589E+03 -0.21080263909E+03  0.27822337711E+03  0.12500000000E+03 0.  0.
         25    1    1    2    0    0 -0.57540347821E+02 -0.13721811033E+03 -0.98483858494E+02  0.21786181817E+03  0.12500000000E+03 0.  0.
</event>
<event>
 5    0  0.5576108E-005  0.4532655E+03  0.7546771E-02  0.1026753E+00
         21   -1    0    0  502  501  0.00000000000E+00  0.00000000000E+00  0.25062315217E+03  0.25062315217E+03  0.00000000000E+00 0. -1.
         21   -1    0    0  501  502 -0.00000000000E+00 -0.00000000000E+00 -0.81975498479E+03  0.81975498479E+03  0.00000000000E+00 0. -1.
         25    1    1    2    0    0 -0.95048961350E+02  0.18838391256E+03 -0.27669091025E+03  0.36973728968E+03  0.12500000000E+03 0.  0.
         25    1    1    2    0    0 -0.13302068033E+03 -0.27961555544E+03 -0.25982969128E+03  0.42310262196E+03  0.12500000000E+03 0.  0.
         25    1    1    2    0    0  0.22806964168E+03  0.91231642877E+02 -0.32611231078E+02  0.27753822532E+03  0.12500000000E+03 0.  0.
</event>
<event>
 5    0  0.5576108E-005  0.3319686E+03  0.7546771E-02  0.1070269E+00
         21   -1    0    0  502  501  0.00000000000E+00  0.00000000000E+00  0.30808416047E+03  0.30808416047E+03  0.00000000000E+00 0.  1.
         21   -1    0    0  501  502 -0.00000000000E+00 -0.00000000000E+00 -0.35770476159E+03  0.35770476159E+03  0.00000000000E+00 0.  1.
         25    1    1    2    0    0  0.10011341006E+03 -0.57918103330E+02  0.10650026327E+03  0.20085942259E+03  0.12500000000E+03 0.  0.
         25    1    1    2    0    0 -0.34725361514E+02  0.20387712438E+02 -0.25622985192E+03  0.28792402916E+03  0.12500000000E+03 0.  0.
         25    1    1    2    0    0 -0.65388048545E+02  0.37530390891E+02  0.10010898754E+03  0.17700547031E+03  0.12500000000E+03 0.  0.
</event>
<event>
 5    0  0.5576108E-005  0.4073733E+03  0.7546771E-02  0.1041256E+00
         21   -1    0    0  502  501  0.00000000000E+00  0.00000000000E+00  0.17409907930E+03  0.17409907930E+03  0.00000000000E+00 0. -1.
         21   -1    0    0  501  502 -0.00000000000E+00 -0.00000000000E+00 -0.95320999364E+03  0.95320999364E+03  0.00000000000E+00 0. -1.
         25    1    1    2    0    0 -0.12263636831E+03 -0.67084570705E+02 -0.26454134547E+03  0.32426400035E+03  0.12500000000E+03 0.  0.
         25    1    1    2    0    0  0.16805661666E+03 -0.17468577414E+03 -0.43921613827E+03  0.51700479901E+03  0.12500000000E+03 0.  0.
         25    1    1    2    0    0 -0.45420248344E+02  0.24177034484E+03 -0.75353430604E+02  0.28604027358E+03  0.12500000000E+03 0.  0.
</event>
<event>
 5    0  0.5576108E-005  0.4525859E+03  0.7546771E-02  0.1026954E+00
         21   -1    0    0  502  501  0.00000000000E+00  0.00000000000E+00  0.17238519118E+03  0.17238519118E+03  0.00000000000E+00 0. -1.
         21   -1    0    0  501  502 -0.00000000000E+00 -0.00000000000E+00 -0.11882344007E+04  0.11882344007E+04  0.00000000000E+00 0. -1.
         25    1    1    2    0    0  0.17352862315E+03  0.35917667727E+03 -0.58236129546E+03  0.71686103744E+03  0.12500000000E+03 0.  0.
         25    1    1    2    0    0 -0.12609867471E+03 -0.19406524741E+03 -0.25361474682E+03  0.36538696723E+03  0.12500000000E+03 0.  0.
         25    1    1    2    0    0 -0.47429948445E+02 -0.16511142986E+03 -0.17987316722E+03  0.27837158721E+03  0.12500000000E+03 0.  0.
</event>
<event>
 5    0  0.5576108E-005  0.2916601E+03  0.7546771E-02  0.1089486E+00
         21   -1    0    0  502  501  0.00000000000E+00  0.00000000000E+00  0.30186694530E+03  0.30186694530E+03  0.00000000000E+00 0. -1.
         21   -1    0    0  501  502 -0.00000000000E+00 -0.00000000000E+00 -0.28179833512E+03  0.28179833512E+03  0.00000000000E+00 0. -1.
         25    1    1    2    0    0  0.81811494285E+02 -0.36852004583E+02 -0.20995441092E+02  0.15529648865E+03  0.12500000000E+03 0.  0.
         25    1    1    2    0    0  0.11069640086E+03 -0.58585412201E+02  0.30538696270E+02  0.17956490653E+03  0.12500000000E+03 0.  0.
         25    1    1    2    0    0 -0.19250789515E+03  0.95437416785E+02  0.10525355007E+02  0.24880388525E+03  0.12500000000E+03 0.  0.
</event>
<event>
 5    0  0.5576108E-005  0.4796251E+03  0.7546771E-02  0.1019238E+00
         21   -1    0    0  502  501  0.00000000000E+00  0.00000000000E+00  0.25021669453E+04  0.25021669453E+04  0.00000000000E+00 0. -1.
         21   -1    0    0  501  502 -0.00000000000E+00 -0.00000000000E+00 -0.91936400735E+02  0.91936400735E+02  0.00000000000E+00 0. -1.
         25    1    1    2    0    0 -0.66434546748E+02 -0.10432129934E+03  0.10599374667E+04  0.10744249233E+04  0.12500000000E+03 0.  0.
         25    1    1    2    0    0 -0.24414952736E+03 -0.71224014596E+02  0.82640176883E+03  0.87363993469E+03  0.12500000000E+03 0.  0.
         25    1    1    2    0    0  0.31058407411E+03  0.17554531393E+03  0.52389130899E+03  0.64603848799E+03  0.12500000000E+03 0.  0.
</event>
<event>
 5    0  0.5576108E-005  0.5520609E+03  0.7546771E-02  0.1001018E+00
         21   -1    0    0  502  501  0.00000000000E+00  0.00000000000E+00  0.90147282060E+03  0.90147282060E+03  0.00000000000E+00 0.  1.
         21   -1    0    0  501  502 -0.00000000000E+00 -0.00000000000E+00 -0.33808149628E+03  0.33808149628E+03  0.00000000000E+00 0.  1.
         25    1    1    2    0    0 -0.17573639271E+03  0.44882361506E+03  0.19488472031E+03  0.53472513628E+03  0.12500000000E+03 0.  0.
         25    1    1    2    0    0  0.64115115433E+02 -0.72470316156E+02  0.94746871268E+01  0.15835865763E+03  0.12500000000E+03 0.  0.
         25    1    1    2    0    0  0.11162127727E+03 -0.37635329890E+03  0.35903191688E+03  0.54647052297E+03  0.12500000000E+03 0.  0.
</event>
<event>
 5    0  0.5576108E-005  0.2627477E+03  0.7546771E-02  0.1105504E+00
         21   -1    0    0  502  501  0.00000000000E+00  0.00000000000E+00  0.44323574321E+02  0.44323574321E+02  0.00000000000E+00 0.  1.
         21   -1    0    0  501  502 -0.00000000000E+00 -0.00000000000E+00 -0.15575534384E+04  0.15575534384E+04  0.00000000000E+00 0.  1.
         25    1    1    2    0    0 -0.53424108124E+02  0.45942089520E+02 -0.37085213235E+03  0.39764445801E+03  0.12500000000E+03 0.  0.
         25    1    1    2    0    0  0.27021524056E+02 -0.12170431479E+02 -0.10065995944E+04  0.10147640246E+04  0.12500000000E+03 0.  0.
         25    1    1    2    0    0  0.26402584069E+02 -0.33771658041E+02 -0.13577813737E+03  0.18946853016E+03  0.12500000000E+03 0.  0.
</event>
<event>
 5    0  0.5576108E-005  0.2667243E+03  0.7546771E-02  0.1103169E+00
         21   -1    0    0  502  501  0.00000000000E+00  0.00000000000E+00  0.35622971705E+02  0.35622971705E+02  0.00000000000E+00 0. -1.
         21   -1    0    0  501  502 -0.00000000000E+00 -0.00000000000E+00 -0.19970777655E+04  0.19970777655E+04  0.00000000000E+00 0. -1.
         25    1    1    2    0    0 -0.84262724599E+02 -0.13870187557E+03 -0.75701189103E+03  0.78423875204E+03  0.12500000000E+03 0.  0.
         25    1    1    2    0    0  0.84179948423E+02  0.42471830684E+02 -0.41819041740E+03  0.44654041847E+03  0.12500000000E+03 0.  0.
         25    1    1    2    0    0  0.82776175580E-01  0.96230044889E+02 -0.78625248536E+03  0.80192156670E+03  0.12500000000E+03 0.  0.
</event>
<event>
 5    0  0.5576108E-005  0.3848714E+03  0.7546771E-02  0.1049148E+00
         21   -1    0    0  502  501  0.00000000000E+00  0.00000000000E+00  0.26495084303E+03  0.26495084303E+03  0.00000000000E+00 0. -1.
         21   -1    0    0  501  502 -0.00000000000E+00 -0.00000000000E+00 -0.55906959549E+03  0.55906959549E+03  0.00000000000E+00 0. -1.
         25    1    1    2    0    0 -0.12334447144E+03 -0.14132609752E+03 -0.40389634976E+03  0.46254100989E+03  0.12500000000E+03 0.  0.
         25    1    1    2    0    0  0.37023278211E+01  0.11268041392E+03  0.42329566369E+02  0.17357239153E+03  0.12500000000E+03 0.  0.
         25    1    1    2    0    0  0.11964214362E+03  0.28645683606E+02  0.67448030926E+02  0.18790703711E+03  0.12500000000E+03 0.  0.
</event>
<event>
 5    0  0.5576108E-005  0.3582118E+03  0.7546771E-02  0.1059294E+00
         21   -1    0    0  502  501  0.00000000000E+00  0.00000000000E+00  0.30207081854E+03  0.30207081854E+03  0.00000000000E+00 0.  1.
         21   -1    0    0  501  502 -0.00000000000E+00 -0.00000000000E+00 -0.42478679661E+03  0.42478679661E+03  0.00000000000E+00 0.  1.
         25    1    1    2    0    0  0.37801982174E+02 -0.10511248525E+03  0.19740604708E+02  0.16879667025E+03  0.12500000000E+03 0.  0.
         25    1    1    2    0    0 -0.16144999827E+03 -0.10537921327E+03 -0.16498898579E+03  0.28287319768E+03  0.12500000000E+03 0.  0.
         25    1    1    2    0    0  0.12364801610E+03  0.21049169853E+03  0.22532403011E+02  0.27518774722E+03  0.12500000000E+03 0.  0.
</event>
<event>
 5    0  0.8839096E-005  0.2849431E+03  0.7546771E-02  0.1093019E+00
         21   -1    0    0  502  501  0.00000000000E+00  0.00000000000E+00  0.24376385467E+03  0.24376385467E+03  0.00000000000E+00 0. -1.
         21   -1    0    0  501  502 -0.00000000000E+00 -0.00000000000E+00 -0.33307877990E+03  0.33307877990E+03  0.00000000000E+00 0. -1.
         25    1    1    2    0    0  0.15049314000E+03  0.89533194663E+02 -0.11796114210E+03  0.24536546044E+03  0.12500000000E+03 0.  0.
         25    1    1    2    0    0 -0.72152454617E+02 -0.47427042326E+02  0.77403129050E+02  0.17050379890E+03  0.12500000000E+03 0.  0.
         25    1    1    2    0    0 -0.78340685379E+02 -0.42106152337E+02 -0.48756912180E+02  0.16097337524E+03  0.12500000000E+03 0.  0.
</event>
<event>
 5    0  0.5576108E-005  0.3312968E+03  0.7546771E-02  0.1070565E+00
         21   -1    0    0  502  501  0.00000000000E+00  0.00000000000E+00  0.52735873167E+03  0.52735873167E+03  0.00000000000E+00 0.  1.
         21   -1    0    0  501  502 -0.00000000000E+00 -0.00000000000E+00 -0.20812697442E+03  0.20812697442E+03  0.00000000000E+00 0.  1.
         25    1    1    2    0    0 -0.49486565623E+02  0.16248303304E+03  0.37268560043E+02  0.21415788982E+03  0.12500000000E+03 0.  0.
         25    1    1    2    0    0 -0.71565567286E+02  0.58449597972E+02  0.77961443797E+02  0.17389931755E+03  0.12500000000E+03 0.  0.
         25    1    1    2    0    0  0.12105213291E+03 -0.22093263102E+03  0.20400175342E+03  0.34742849873E+03  0.12500000000E+03 0.  0.
</event>
<event>
 5    0  0.5576108E-005  0.2484240E+03  0.7546771E-02  0.1114305E+00
         21   -1    0    0  502  501  0.00000000000E+00  0.00000000000E+00  0.30404446640E+02  0.30404446640E+02  0.00000000000E+00 0.  1.
         21   -1    0    0  501  502 -0.00000000000E+00 -0.00000000000E+00 -0.20297840149E+04  0.20297840149E+04  0.00000000000E+00 0.  1.
         25    1    1    2    0    0  0.72230712531E+02  0.10175616647E+03 -0.44874949020E+03  0.48225791668E+03  0.12500000000E+03 0.  0.
         25    1    1    2    0    0 -0.69595735056E+02 -0.30001006761E+02 -0.87085498435E+03  0.88303852153E+03  0.12500000000E+03 0.  0.
         25    1    1    2    0    0 -0.26349774754E+01 -0.71755159710E+02 -0.67977509368E+03  0.69489202329E+03  0.12500000000E+03 0.  0.
</event>
<event>
 5    0  0.5576108E-005  0.2598575E+03  0.7546771E-02  0.1107229E+00
         21   -1    0    0  502  501  0.00000000000E+00  0.00000000000E+00  0.25100582884E+03  0.25100582884E+03  0.00000000000E+00 0.  1.
         21   -1    0    0  501  502 -0.00000000000E+00 -0.00000000000E+00 -0.26902141446E+03  0.26902141446E+03  0.00000000000E+00 0.  1.
         25    1    1    2    0    0 -0.14036382787E+02 -0.15015043038E+02 -0.10611765586E+03  0.16525262008E+03  0.12500000000E+03 0.  0.
         25    1    1    2    0    0 -0.84818401575E+02  0.67665070232E+02  0.86868977754E+02  0.18693298872E+03  0.12500000000E+03 0.  0.
         25    1    1    2    0    0  0.98854784362E+02 -0.52650027194E+02  0.12330924852E+01  0.16784163450E+03  0.12500000000E+03 0.  0.
</event>
<event>
 5    0  0.5576108E-005  0.2610878E+03  0.7546771E-02  0.1106491E+00
         21   -1    0    0  502  501  0.00000000000E+00  0.00000000000E+00  0.24226780957E+03  0.24226780957E+03  0.00000000000E+00 0.  1.
         21   -1    0    0  501  502 -0.00000000000E+00 -0.00000000000E+00 -0.28136987852E+03  0.28136987852E+03  0.00000000000E+00 0.  1.
         25    1    1    2    0    0 -0.51030234826E+02 -0.77359247181E+02 -0.14451635959E+02  0.15627663860E+03  0.12500000000E+03 0.  0.
         25    1    1    2    0    0  0.35523465930E+02 -0.39565672016E+02 -0.11063127170E+03  0.17519028886E+03  0.12500000000E+03 0.  0.
         25    1    1    2    0    0  0.15506768897E+02  0.11692491920E+03  0.85980838712E+02  0.19217076062E+03  0.12500000000E+03 0.  0.
</event>
<event>
 5    0  0.5576108E-005  0.5485016E+03  0.7546771E-02  0.1001841E+00
         21   -1    0    0  502  501  0.00000000000E+00  0.00000000000E+00  0.80739408528E+03  0.80739408528E+03  0.00000000000E+00 0.  1.
         21   -1    0    0  501  502 -0.00000000000E+00 -0.00000000000E+00 -0.37262353373E+03  0.37262353373E+03  0.00000000000E+00 0.  1.
         25    1    1    2    0    0 -0.11395811485E+02  0.14280215460E+03  0.22717072424E+03  0.29623277643E+03  0.12500000000E+03 0.  0.
         25    1    1    2    0    0  0.18834510145E+03  0.29338999438E+03  0.62598093584E+02  0.37562626021E+03  0.12500000000E+03 0.  0.
         25    1    1    2    0    0 -0.17694928997E+03 -0.43619214898E+03  0.14500173373E+03  0.50815858237E+03  0.12500000000E+03 0.  0.
</event>
<event>
 5    0  0.5576108E-005  0.2949352E+03  0.7546771E-02  0.1087800E+00
         21   -1    0    0  502  501  0.00000000000E+00  0.00000000000E+00  0.93259374012E+03  0.93259374012E+03  0.00000000000E+00 0. -1.
         21   -1    0    0  501  502 -0.00000000000E+00 -0.00000000000E+00 -0.93274034525E+02  0.93274034525E+02  0.00000000000E+00 0. -1.
         25    1    1    2    0    0 -0.40868418273E+02  0.63871194916E+02  0.44870012048E+03  0.47191795396E+03  0.12500000000E+03 0.  0.
         25    1    1    2    0    0 -0.71479449462E+02  0.39448863663E+02  0.30359897557E+03  0.33832360619E+03  0.12500000000E+03 0.  0.
         25    1    1    2    0    0  0.11234786774E+03 -0.10332005858E+03  0.87020609541E+02  0.21562621449E+03  0.12500000000E+03 0.  0.
</event>
<event>
 5    0  0.7553078E-005  0.6278495E+03  0.7546771E-02  0.9849254E-01
         21   -1    0    0  502  501  0.00000000000E+00  0.00000000000E+00  0.79581496525E+03  0.79581496525E+03  0.00000000000E+00 0. -1.
         21   -1    0    0  501  502 -0.00000000000E+00 -0.00000000000E+00 -0.49533500023E+03  0.49533500023E+03  0.00000000000E+00 0. -1.
         25    1    1    2    0    0  0.15345527081E+03  0.51616018040E+02 -0.19741306676E+03  0.28427038605E+03  0.12500000000E+03 0.  0.
         25    1    1    2    0    0 -0.34099514551E+03  0.25890835405E+03  0.10604100769E+03  0.45845492731E+03  0.12500000000E+03 0.  0.
         25    1    1    2    0    0  0.18753987470E+03 -0.31052437209E+03  0.39185202409E+03  0.54842465212E+03  0.12500000000E+03 0.  0.
</event>
<event>
 5    0  0.5663424E-005  0.3684391E+03  0.7546771E-02  0.1055291E+00
         21   -1    0    0  502  501  0.00000000000E+00  0.00000000000E+00  0.38569157829E+03  0.38569157829E+03  0.00000000000E+00 0.  1.
         21   -1    0    0  501  502 -0.00000000000E+00 -0.00000000000E+00 -0.35195844151E+03  0.35195844151E+03  0.00000000000E+00 0.  1.
         25    1    1    2    0    0  0.11655975153E+03 -0.16141482390E+03  0.59469443077E+02  0.24249234155E+03  0.12500000000E+03 0.  0.
         25    1    1    2    0    0  0.95142179796E+02 -0.98677181968E+00 -0.10632067772E+03  0.18968946889E+03  0.12500000000E+03 0.  0.
         25    1    1    2    0    0 -0.21170193132E+03  0.16240159572E+03  0.80584371424E+02  0.30546820937E+03  0.12500000000E+03 0.  0.
</event>
<event>
 5    0  0.5576108E-005  0.3606893E+03  0.7546771E-02  0.1058311E+00
         21   -1    0    0  502  501  0.00000000000E+00  0.00000000000E+00  0.10664734271E+03  0.10664734271E+03  0.00000000000E+00 0.  1.
         21   -1    0    0  501  502 -0.00000000000E+00 -0.00000000000E+00 -0.12198783316E+04  0.12198783316E+04  0.00000000000E+00 0.  1.
         25    1    1    2    0    0  0.45982424569E+02  0.75312914085E+02 -0.56796114463E+02  0.16320912050E+03  0.12500000000E+03 0.  0.
         25    1    1    2    0    0 -0.60177965119E+02  0.15714377800E+03 -0.60389114955E+03  0.63923788605E+03  0.12500000000E+03 0.  0.
         25    1    1    2    0    0  0.14195540551E+02 -0.23245669209E+03 -0.45254372486E+03  0.52407866773E+03  0.12500000000E+03 0.  0.
</event>
<event>
 5    0  0.5576108E-005  0.5809749E+03  0.7546771E-02  0.9945683E-01
         21   -1    0    0  502  501  0.00000000000E+00  0.00000000000E+00  0.29589239586E+04  0.29589239586E+04  0.00000000000E+00 0.  1.
         21   -1    0    0  501  502 -0.00000000000E+00 -0.00000000000E+00 -0.11407249917E+03  0.11407249917E+03  0.00000000000E+00 0.  1.
         25    1    1    2    0    0 -0.26496561933E+03 -0.32750253201E+02  0.27854226176E+03  0.40557385283E+03  0.12500000000E+03 0.  0.
         25    1    1    2    0    0  0.23499247041E+03 -0.99098829000E+01  0.31702549054E+03  0.41406500526E+03  0.12500000000E+03 0.  0.
         25    1    1    2    0    0  0.29973148923E+02  0.42660136101E+02  0.22492837072E+04  0.22533575997E+04  0.12500000000E+03 0.  0.
</event>
<event>
 5    0  0.5576108E-005  0.2375286E+03  0.7546771E-02  0.1121450E+00
         21   -1    0    0  502  501  0.00000000000E+00  0.00000000000E+00  0.51217819722E+03  0.51217819722E+03  0.00000000000E+00 0.  1.
         21   -1    0    0  501  502 -0.00000000000E+00 -0.00000000000E+00 -0.11015663265E+03  0.11015663265E+03  0.00000000000E+00 0.  1.
         25    1    1    2    0    0  0.64136575552E+02 -0.97627283629E+02  0.14274681447E+03  0.22281436191E+03  0.12500000000E+03 0.  0.
         25    1    1    2    0    0 -0.60524972891E+02 -0.84621813503E+01  0.13378642270E+03  0.19302509618E+03  0.12500000000E+03 0.  0.
         25    1    1    2    0    0 -0.36116026613E+01  0.10608946498E+03  0.12548832739E+03  0.20649537178E+03  0.12500000000E+03 0.  0.
</event>
<event>
 5    0  0.5576108E-005  0.2205012E+03  0.7546771E-02  0.1133510E+00
         21   -1    0    0  502  501  0.00000000000E+00  0.00000000000E+00  0.10008927228E+04  0.10008927228E+04  0.00000000000E+00 0. -1.
         21   -1    0    0  501  502 -0.00000000000E+00 -0.00000000000E+00 -0.48577397333E+02  0.48577397333E+02  0.00000000000E+00 0. -1.
         25    1    1    2    0    0  0.75515792275E+01  0.32766822107E+01  0.58318243873E+03  0.59648513798E+03  0.12500000000E+03 0.  0.
         25    1    1    2    0    0 -0.12999004500E+02 -0.89492039650E+01  0.25084922521E+03  0.28071230140E+03  0.12500000000E+03 0.  0.
         25    1    1    2    0    0  0.54474252722E+01  0.56725217542E+01  0.11828366151E+03  0.17227268073E+03  0.12500000000E+03 0.  0.
</event>
<event>
 5    0  0.5576108E-005  0.3133014E+03  0.7546771E-02  0.1078774E+00
         21   -1    0    0  502  501  0.00000000000E+00  0.00000000000E+00  0.40100539156E+03  0.40100539156E+03  0.00000000000E+00 0. -1.
         21   -1    0    0  501  502 -0.00000000000E+00 -0.00000000000E+00 -0.24477921686E+03  0.24477921686E+03  0.00000000000E+00 0. -1.
         25    1    1    2    0    0  0.50846633841E+02  0.15370191462E+03  0.24038052253E+03  0.31562232865E+03  0.12500000000E+03 0.  0.
         25    1    1    2    0    0 -0.39651276619E+01 -0.44112430845E+02 -0.84855813296E+02  0.15743931479E+03  0.12500000000E+03 0.  0.
         25    1    1    2    0    0 -0.46881506179E+02 -0.10958948378E+03  0.70146546711E+00  0.17272296497E+03  0.12500000000E+03 0.  0.
</event>
<event>
 5    0  0.5576108E-005  0.2728439E+03  0.7546771E-02  0.1099663E+00
         21   -1    0    0  502  501  0.00000000000E+00  0.00000000000E+00  0.88667548153E+02  0.88667548153E+02  0.00000000000E+00 0. -1.
         21   -1    0    0  501  502 -0.00000000000E+00 -0.00000000000E+00 -0.83958310501E+03  0.83958310501E+03  0.00000000000E+00 0. -1.
         25    1    1    2    0    0  0.28460955218E+02  0.94916358247E+01 -0.16520169013E+03  0.20932442654E+03  0.12500000000E+03 0.  0.
         25    1    1    2    0    0 -0.15685755783E+03 -0.40784444161E+02 -0.44203326200E+03  0.48712017927E+03  0.12500000000E+03 0.  0.
         25    1    1    2    0    0  0.12839660262E+03  0.31292808336E+02 -0.14368060472E+03  0.23180604736E+03  0.12500000000E+03 0.  0.
</event>
<event>
 5    0  0.5576108E-005  0.2814075E+03  0.7546771E-02  0.1094923E+00
         21   -1    0    0  502  501  0.00000000000E+00  0.00000000000E+00  0.97358883201E+03  0.97358883201E+03  0.00000000000E+00 0.  1.
         21   -1    0    0  501  502 -0.00000000000E+00 -0.00000000000E+00 -0.81338442252E+02  0.81338442252E+02  0.00000000000E+00 0.  1.
         25    1    1    2    0    0 -0.50069041849E+01  0.34966214621E+02  0.20078800556E+03  0.23914123114E+03  0.12500000000E+03 0.  0.
         25    1    1    2    0    0  0.31406736831E+02  0.87435283113E+02  0.59340060644E+03  0.61349864839E+03  0.12500000000E+03 0.  0.
         25    1    1    2    0    0 -0.26399832646E+02 -0.12240149773E+03  0.98061777759E+02  0.20228739473E+03  0.12500000000E+03 0.  0.
</event>
<event>
 5    0  0.5576108E-005  0.4894049E+03  0.7546771E-02  0.1016582E+00
         21   -1    0    0  502  501  0.00000000000E+00  0.00000000000E+00  0.20120678100E+03  0.20120678100E+03  0.00000000000E+00 0.  1.
         21   -1    0    0  501  502 -0.00000000000E+00 -0.00000000000E+00 -0.11904029650E+04  0.11904029650E+04  0.00000000000E+00 0.  1.
         25    1    1    2    0    0  0.47958450345E+01 -0.76295848704E+02 -0.81662518929E+02  0.16774332671E+03  0.12500000000E+03 0.  0.
         25    1    1    2    0    0  0.29102913952E+03  0.25967801306E+03 -0.28228049183E+03  0.49743130841E+03  0.12500000000E+03 0.  0.
         25    1    1    2    0    0 -0.29582498455E+03 -0.18338216435E+03 -0.62525317324E+03  0.72643511089E+03  0.12500000000E+03 0.  0.
</event>
<event>
 5    0  0.5576108E-005  0.4326858E+03  0.7546771E-02  0.1033015E+00
         21   -1    0    0  502  501  0.00000000000E+00  0.00000000000E+00  0.15115229732E+04  0.15115229732E+04  0.00000000000E+00 0. -1.
         21   -1    0    0  501  502 -0.00000000000E+00 -0.00000000000E+00 -0.12385981880E+03  0.12385981880E+03  0.00000000000E+00 0. -1.
         25    1    1    2    0    0  0.41346106489E+02 -0.21299608098E+02  0.39512296618E+03  0.41702557743E+03  0.12500000000E+03 0.  0.
         25    1    1    2    0    0 -0.32526745209E+03 -0.29857672265E+02  0.31191722370E+03  0.46862324998E+03  0.12500000000E+03 0.  0.
         25    1    1    2    0    0  0.28392134560E+03  0.51157280363E+02  0.68062296450E+03  0.74973396457E+03  0.12500000000E+03 0.  0.
</event>
<event>
 5    0  0.5576108E-005  0.2725674E+03  0.7546771E-02  0.1099819E+00
         21   -1    0    0  502  501  0.00000000000E+00  0.00000000000E+00  0.20176613163E+03  0.20176613163E+03  0.00000000000E+00 0.  1.
         21   -1    0    0  501  502 -0.00000000000E+00 -0.00000000000E+00 -0.36821343086E+03  0.36821343086E+03  0.00000000000E+00 0.  1.
         25    1    1    2    0    0 -0.10907198387E+03  0.32701645605E+02 -0.37011360942E+02  0.17309227634E+03  0.12500000000E+03 0.  0.
         25    1    1    2    0    0 -0.50073576420E+02  0.56706519778E+02 -0.12489880995E+02  0.14664238667E+03  0.12500000000E+03 0.  0.
         25    1    1    2    0    0  0.15914556029E+03 -0.89408165383E+02 -0.11694605729E+03  0.25024489947E+03  0.12500000000E+03 0.  0.
</event>
<event>
 5    0  0.5576108E-005  0.4237661E+03  0.7546771E-02  0.1035848E+00
         21   -1    0    0  502  501  0.00000000000E+00  0.00000000000E+00  0.41110770370E+03  0.41110770370E+03  0.00000000000E+00 0.  1.
         21   -1    0    0  501  502 -0.00000000000E+00 -0.00000000000E+00 -0.43681423156E+03  0.43681423156E+03  0.00000000000E+00 0.  1.
         25    1    1    2    0    0 -0.10786865811E+03 -0.21064002187E+02 -0.52510841016E+02  0.17453288520E+03  0.12500000000E+03 0.  0.
         25    1    1    2    0    0  0.18040489096E+03 -0.26279403885E+03 -0.49221855072E+02  0.34591100380E+03  0.12500000000E+03 0.  0.
         25    1    1    2    0    0 -0.72536232846E+02  0.28385804103E+03  0.76026168228E+02  0.32747804627E+03  0.12500000000E+03 0.  0.
</event>
<event>
 5    0  0.5576108E-005  0.3198826E+03  0.7546771E-02  0.1075703E+00
         21   -1    0    0  502  501  0.00000000000E+00  0.00000000000E+00  0.99748439374E+02  0.99748439374E+02  0.00000000000E+00 0. -1.
         21   -1    0    0  501  502 -0.00000000000E+00 -0.00000000000E+00 -0.10258295005E+04  0.10258295005E+04  0.00000000000E+00 0. -1.
         25    1    1    2    0    0 -0.10043718200E+03  0.10831560467E+03 -0.10345485750E+03  0.21942608160E+03  0.12500000000E+03 0.  0.
         25    1    1    2    0    0  0.13588983439E+03  0.31304199514E+02 -0.45402002668E+03  0.49112644464E+03  0.12500000000E+03 0.  0.
         25    1    1    2    0    0 -0.35452652390E+02 -0.13961980418E+03 -0.36860617693E+03  0.41502541362E+03  0.12500000000E+03 0.  0.
</event>
<event>
 5    0  0.5576108E-005  0.4102076E+03  0.7546771E-02  0.1040301E+00
         21   -1    0    0  502  501  0.00000000000E+00  0.00000000000E+00  0.96650632797E+03  0.96650632797E+03  0.00000000000E+00 0.  1.
         21   -1    0    0  501  502 -0.00000000000E+00 -0.00000000000E+00 -0.17410154064E+03  0.17410154064E+03  0.00000000000E+00 0.  1.
         25    1    1    2    0    0 -0.14154982494E+02 -0.45344282438E+02  0.39517881226E+03  0.41719031764E+03  0.12500000000E+03 0.  0.
         25    1    1    2    0    0  0.26215241581E+03  0.11371070190E+03  0.15338427349E+03  0.34757121313E+03  0.12500000000E+03 0.  0.
         25    1    1    2    0    0 -0.24799743332E+03 -0.68366419459E+02  0.24384170158E+03  0.37584633784E+03  0.12500000000E+03 0.  0.
</event>
<event>
 5    0  0.5576108E-005  0.2874629E+03  0.7546771E-02  0.1091681E+00
         21   -1    0    0  502  501  0.00000000000E+00  0.00000000000E+00  0.30371055574E+03  0.30371055574E+03  0.00000000000E+00 0.  1.
         21   -1    0    0  501  502 -0.00000000000E+00 -0.00000000000E+00 -0.27208435711E+03  0.27208435711E+03  0.00000000000E+00 0.  1.
         25    1    1    2    0    0 -0.13359903722E+03 -0.69260555294E+02  0.29607578192E+02  0.19785685723E+03  0.12500000000E+03 0.  0.
         25    1    1    2    0    0  0.53815546254E+02  0.11640726930E+03  0.88666750803E+02  0.19983382612E+03  0.12500000000E+03 0.  0.
         25    1    1    2    0    0  0.79783490966E+02 -0.47146714009E+02 -0.86648130363E+02  0.17810422951E+03  0.12500000000E+03 0.  0.
</event>
<event>
 5    0  0.6314334E-005  0.3337699E+03  0.7546771E-02  0.1069481E+00
         21   -1    0    0  502  501  0.00000000000E+00  0.00000000000E+00  0.31261699151E+03  0.31261699151E+03  0.00000000000E+00 0.  1.
         21   -1    0    0  501  502 -0.00000000000E+00 -0.00000000000E+00 -0.35635400535E+03  0.35635400535E+03  0.00000000000E+00 0.  1.
         25    1    1    2    0    0  0.17548067920E+01 -0.12658354790E+03  0.48270729222E+02  0.18434081818E+03  0.12500000000E+03 0.  0.
         25    1    1    2    0    0  0.12740907209E+02  0.12752595700E+02 -0.23233280293E+03  0.26443995676E+03  0.12500000000E+03 0.  0.
         25    1    1    2    0    0 -0.14495714001E+02  0.11383095220E+03  0.14032505987E+03  0.22019022192E+03  0.12500000000E+03 0.  0.
</event>
<event>
 5    0  0.5576108E-005  0.3192768E+03  0.7546771E-02  0.1075983E+00
         21   -1    0    0  502  501  0.00000000000E+00  0.00000000000E+00  0.36623964976E+02  0.36623964976E+02  0.00000000000E+00 0. -1.
         21   -1    0    0  501  502 -0.00000000000E+00 -0.00000000000E+00 -0.27833605167E+04  0.27833605167E+04  0.00000000000E+00 0. -1.
         25    1    1    2    0    0 -0.13587114180E+03  0.69917108770E+02 -0.75384892264E+03  0.77927053546E+03  0.12500000000E+03 0.  0.
         25    1    1    2    0    0  0.90012011603E+02  0.19518070421E+02 -0.16975158753E+04  0.17046020838E+04  0.12500000000E+03 0.  0.
         25    1    1    2    0    0  0.45859130193E+02 -0.89435179191E+02 -0.29537175375E+03  0.33611186235E+03  0.12500000000E+03 0.  0.
</event>
<event>
 5    0  0.5576108E-005  0.2694591E+03  0.7546771E-02  0.1101590E+00
         21   -1    0    0  502  501  0.00000000000E+00  0.00000000000E+00  0.51644090047E+02  0.51644090047E+02  0.00000000000E+00 0.  1.
         21   -1    0    0  501  502 -0.00000000000E+00 -0.00000000000E+00 -0.14059345424E+04  0.14059345424E+04  0.00000000000E+00 0.  1.
         25    1    1    2    0    0  0.65924065169E+02  0.15752557664E+03 -0.61990653157E+03  0.65503389038E+03  0.12500000000E+03 0.  0.
         25    1    1    2    0    0  0.11358486156E+02 -0.11594337161E+03 -0.39562406691E+03  0.43094696071E+03  0.12500000000E+03 0.  0.
         25    1    1    2    0    0 -0.77282551325E+02 -0.41582205022E+02 -0.33875985390E+03  0.37159778138E+03  0.12500000000E+03 0.  0.
</event>
<event>
 5    0  0.5576108E-005  0.2892519E+03  0.7546771E-02  0.1090740E+00
         21   -1    0    0  502  501  0.00000000000E+00  0.00000000000E+00  0.64085915587E+02  0.64085915587E+02  0.00000000000E+00 0. -1.
         21   -1    0    0  501  502 -0.00000000000E+00 -0.00000000000E+00 -0.13055392713E+04  0.13055392713E+04  0.00000000000E+00 0. -1.
         25    1    1    2    0    0  0.14449130990E+02 -0.59477221909E+02 -0.14243052668E+03  0.19914259274E+03  0.12500000000E+03 0.  0.
         25    1    1    2    0    0 -0.52051297991E+02 -0.23857798438E+01 -0.12025004980E+03  0.18110799001E+03  0.12500000000E+03 0.  0.
         25    1    1    2    0    0  0.37602167000E+02  0.61863001753E+02 -0.97877277923E+03  0.98937460414E+03  0.12500000000E+03 0.  0.
</event>
<event>
 5    0  0.5576108E-005  0.2420097E+03  0.7546771E-02  0.1118461E+00
         21   -1    0    0  502  501  0.00000000000E+00  0.00000000000E+00  0.52474298796E+02  0.52474298796E+02  0.00000000000E+00 0.  1.
         21   -1    0    0  501  502 -0.00000000000E+00 -0.00000000000E+00 -0.11161410448E+04  0.11161410448E+04  0.00000000000E+00 0.  1.
         25    1    1    2    0    0  0.27465364963E+02 -0.45820225813E+02 -0.46174535534E+03  0.48133939434E+03  0.12500000000E+03 0.  0.
         25    1    1    2    0    0  0.49623603736E+02 -0.56779917382E+02 -0.33926920472E+03  0.36934408664E+03  0.12500000000E+03 0.  0.
         25    1    1    2    0    0 -0.77088968699E+02  0.10260014319E+03 -0.26265218590E+03  0.31793186257E+03  0.12500000000E+03 0.  0.
</event>
<event>
 5    0  0.5576108E-005  0.4406116E+03  0.7546771E-02  0.1030559E+00
         21   -1    0    0  502  501  0.00000000000E+00  0.00000000000E+00  0.17568155676E+04  0.17568155676E+04  0.00000000000E+00 0. -1.
         21   -1    0    0  501  502 -0.00000000000E+00 -0.00000000000E+00 -0.11050595645E+03  0.11050595645E+03  0.00000000000E+00 0. -1.
         25    1    1    2    0    0  0.13729024369E+03  0.21234877882E+03  0.79606764279E+03  0.84456456637E+03  0.12500000000E+03 0.  0.
         25    1    1    2    0    0 -0.11329787331E+03  0.22527442337E+02  0.69121085519E+03  0.71185766842E+03  0.12500000000E+03 0.  0.
         25    1    1    2    0    0 -0.23992370379E+02 -0.23487622116E+03  0.15903111319E+03  0.31089928926E+03  0.12500000000E+03 0.  0.
</event>
<event>
 5    0  0.5576108E-005  0.2663378E+03  0.7546771E-02  0.1103394E+00
         21   -1    0    0  502  501  0.00000000000E+00  0.00000000000E+00  0.12431195242E+03  0.12431195242E+03  0.00000000000E+00 0. -1.
         21   -1    0    0  501  502 -0.00000000000E+00 -0.00000000000E+00 -0.57062764870E+03  0.57062764870E+03  0.00000000000E+00 0. -1.
         25    1    1    2    0    0 -0.97412057257E+02  0.92505460773E+02 -0.13617285831E+03  0.22850474068E+03  0.12500000000E+03 0.  0.
         25    1    1    2    0    0 -0.31552731130E+02 -0.10737446605E+03 -0.16057245717E+03  0.23223558040E+03  0.12500000000E+03 0.  0.
         25    1    1    2    0    0  0.12896478839E+03  0.14869005280E+02 -0.14957038081E+03  0.23419928005E+03  0.12500000000E+03 0.  0.
</event>
<event>
 5    0  0.5576108E-005  0.4281898E+03  0.7546771E-02  0.1034433E+00
         21   -1    0    0  502  501  0.00000000000E+00  0.00000000000E+00  0.14012450969E+03  0.14012450969E+03  0.00000000000E+00 0. -1.
         21   -1    0    0  501  502 -0.00000000000E+00 -0.00000000000E+00 -0.13084542320E+04  0.13084542320E+04  0.00000000000E+00 0. -1.
         25    1    1    2    0    0  0.22192169084E+02  0.15656911220E+03 -0.33312418926E+03  0.38936243364E+03  0.12500000000E+03 0.  0.
         25    1    1    2    0    0 -0.15307716686E+03 -0.30471201944E+03 -0.70116293820E+03  0.78964327371E+03  0.12500000000E+03 0.  0.
         25    1    1    2    0    0  0.13088499778E+03  0.14814290724E+03 -0.13404259484E+03  0.26957303433E+03  0.12500000000E+03 0.  0.
</event>
<event>
 5    0  0.5576108E-005  0.2765039E+03  0.7546771E-02  0.1097614E+00
         21   -1    0    0  502  501  0.00000000000E+00  0.00000000000E+00  0.17059261613E+04  0.17059261613E+04  0.00000000000E+00 0. -1.
         21   -1    0    0  501  502 -0.00000000000E+00 -0.00000000000E+00 -0.44816964765E+02  0.44816964765E+02  0.00000000000E+00 0. -1.
         25    1    1    2    0    0 -0.94229868512E+02  0.52830651917E+02  0.87962833953E+03  0.89500914052E+03  0.12500000000E+03 0.  0.
         25    1    1    2    0    0 -0.15473383532E+02 -0.51226375066E+02  0.57365705486E+03  0.58955151063E+03  0.12500000000E+03 0.  0.
         25    1    1    2    0    0  0.10970325204E+03 -0.16042768513E+01  0.20782380214E+03  0.26618247491E+03  0.12500000000E+03 0.  0.
</event>
<event>
 5    0  0.5576108E-005  0.2700863E+03  0.7546771E-02  0.1101230E+00
         21   -1    0    0  502  501  0.00000000000E+00  0.00000000000E+00  0.92609786297E+03  0.92609786297E+03  0.00000000000E+00 0. -1.
         21   -1    0    0  501  502 -0.00000000000E+00 -0.00000000000E+00 -0.78767713502E+02  0.78767713502E+02  0.00000000000E+00 0. -1.
         25    1    1    2    0    0 -0.46547660461E+02  0.15651577353E+01  0.11672425521E+03  0.17725316970E+03  0.12500000000E+03 0.  0.
         25    1    1    2    0    0  0.10193620592E+03 -0.12266906576E+03  0.32857112100E+03  0.38603454680E+03  0.12500000000E+03 0.  0.
         25    1    1    2    0    0 -0.55388545459E+02  0.12110390802E+03  0.40203477326E+03  0.44157785998E+03  0.12500000000E+03 0.  0.
</event>
<event>
 5    0  0.5576108E-005  0.3121115E+03  0.7546771E-02  0.1079338E+00
         21   -1    0    0  502  501  0.00000000000E+00  0.00000000000E+00  0.24542228215E+03  0.24542228215E+03  0.00000000000E+00 0.  1.
         21   -1    0    0  501  502 -0.00000000000E+00 -0.00000000000E+00 -0.39692237820E+03  0.39692237820E+03  0.00000000000E+00 0.  1.
         25    1    1    2    0    0  0.97005572090E+01  0.58052096405E+02 -0.23471309681E+03  0.27235892590E+03  0.12500000000E+03 0.  0.
         25    1    1    2    0    0 -0.93652086733E+02 -0.99391371510E+02  0.10418720844E+03  0.21243665523E+03  0.12500000000E+03 0.  0.
         25    1    1    2    0    0  0.83951529524E+02  0.41339275105E+02 -0.20974207685E+02  0.15754907922E+03  0.12500000000E+03 0.  0.
</event>
<event>
 5    0  0.5576108E-005  0.3118587E+03  0.7546771E-02  0.1079458E+00
         21   -1    0    0  502  501  0.00000000000E+00  0.00000000000E+00  0.50423302944E+03  0.50423302944E+03  0.00000000000E+00 0.  1.
         21   -1    0    0  501  502 -0.00000000000E+00 -0.00000000000E+00 -0.19287877609E+03  0.19287877609E+03  0.00000000000E+00 0.  1.
         25    1    1    2    0    0 -0.10305403109E+03 -0.75992505639E+02  0.33224501307E+03  0.37736817957E+03  0.12500000000E+03 0.  0.
         25    1    1    2    0    0 -0.24381400961E+02  0.53240900832E+02  0.39082909946E+01  0.13809171218E+03  0.12500000000E+03 0.  0.
         25    1    1    2    0    0  0.12743543205E+03  0.22751604807E+02 -0.24799050719E+02  0.18165191378E+03  0.12500000000E+03 0.  0.
</event>
<event>
 5    0  0.5576108E-005  0.3279861E+03  0.7546771E-02  0.1072031E+00
         21   -1    0    0  502  501  0.00000000000E+00  0.00000000000E+00  0.16018348027E+03  0.16018348027E+03  0.00000000000E+00 0. -1.
         21   -1    0    0  501  502 -0.00000000000E+00 -0.00000000000E+00 -0.67157305371E+03  0.67157305371E+03  0.00000000000E+00 0. -1.
         25    1    1    2    0    0 -0.16795783954E+03 -0.38917728473E+01 -0.37001683322E+03  0.42516166175E+03  0.12500000000E+03 0.  0.
         25    1    1    2    0    0  0.76018701084E+01  0.65078736116E+02  0.16380101930E+02  0.14207863338E+03  0.12500000000E+03 0.  0.
         25    1    1    2    0    0  0.16035596943E+03 -0.61186963269E+02 -0.15775284215E+03  0.26451623884E+03  0.12500000000E+03 0.  0.
</event>
<event>
 5    0  0.5576108E-005  0.4299578E+03  0.7546771E-02  0.1033873E+00
         21   -1    0    0  502  501  0.00000000000E+00  0.00000000000E+00  0.96501125594E+03  0.96501125594E+03  0.00000000000E+00 0. -1.
         21   -1    0    0  501  502 -0.00000000000E+00 -0.00000000000E+00 -0.19156635247E+03  0.19156635247E+03  0.00000000000E+00 0. -1.
         25    1    1    2    0    0  0.13087296681E+03 -0.14614116241E+03 -0.37078467911E+02  0.23555208675E+03  0.12500000000E+03 0.  0.
         25    1    1    2    0    0 -0.13532041838E+03  0.19735999377E+03  0.35575721510E+03  0.44659912546E+03  0.12500000000E+03 0.  0.
         25    1    1    2    0    0  0.44474515760E+01 -0.51218831355E+02  0.45476615628E+03  0.47442639620E+03  0.12500000000E+03 0.  0.
</event>
<event>
 5    0  0.5614338E-005  0.3262476E+03  0.7546771E-02  0.1072809E+00
         21   -1    0    0  502  501  0.00000000000E+00  0.00000000000E+00  0.74478971245E+03  0.74478971245E+03  0.00000000000E+00 0. -1.
         21   -1    0    0  501  502 -0.00000000000E+00 -0.00000000000E+00 -0.14290945654E+03  0.14290945654E+03  0.00000000000E+00 0. -1.
         25    1    1    2    0    0 -0.15141929670E+03  0.17527541109E+03  0.19248353973E+03  0.32607389686E+03  0.12500000000E+03 0.  0.
         25    1    1    2    0    0  0.15234050215E+03 -0.56262740313E+02  0.16868486648E+03  0.26542929138E+03  0.12500000000E+03 0.  0.
         25    1    1    2    0    0 -0.92120544888E+00 -0.11901267078E+03  0.24071184970E+03  0.29619598075E+03  0.12500000000E+03 0.  0.
</event>
<event>
 5    0  0.5576108E-005  0.2921015E+03  0.7546771E-02  0.1089257E+00
         21   -1    0    0  502  501  0.00000000000E+00  0.00000000000E+00  0.13030487770E+03  0.13030487770E+03  0.00000000000E+00 0. -1.
         21   -1    0    0  501  502 -0.00000000000E+00 -0.00000000000E+00 -0.65479749046E+03  0.65479749046E+03  0.00000000000E+00 0. -1.
         25    1    1    2    0    0 -0.26572892753E+02  0.15055334218E+03 -0.60084996216E+02  0.20641616758E+03  0.12500000000E+03 0.  0.
         25    1    1    2    0    0 -0.39639724003E+02 -0.14656600101E+03 -0.21098597645E+03  0.28843193760E+03  0.12500000000E+03 0.  0.
         25    1    1    2    0    0  0.66212616755E+02 -0.39873411661E+01 -0.25342164009E+03  0.29025426297E+03  0.12500000000E+03 0.  0.
</event>
<event>
 5    0  0.5576108E-005  0.2728338E+03  0.7546771E-02  0.1099669E+00
         21   -1    0    0  502  501  0.00000000000E+00  0.00000000000E+00  0.33130819466E+03  0.33130819466E+03  0.00000000000E+00 0.  1.
         21   -1    0    0  501  502 -0.00000000000E+00 -0.00000000000E+00 -0.22467993916E+03  0.22467993916E+03  0.00000000000E+00 0.  1.
         25    1    1    2    0    0  0.29177405144E+02 -0.51867157669E+02  0.34799166286E+02  0.14274979856E+03  0.12500000000E+03 0.  0.
         25    1    1    2    0    0 -0.76939498341E+02 -0.12579141520E+02  0.17771300808E+03  0.23083508063E+03  0.12500000000E+03 0.  0.
         25    1    1    2    0    0  0.47762093197E+02  0.64446299189E+02 -0.10588391887E+03  0.18240325463E+03  0.12500000000E+03 0.  0.
</event>
<event>
 5    0  0.5576108E-005  0.2868637E+03  0.7546771E-02  0.1091998E+00
         21   -1    0    0  502  501  0.00000000000E+00  0.00000000000E+00  0.15579732295E+03  0.15579732295E+03  0.00000000000E+00 0. -1.
         21   -1    0    0  501  502 -0.00000000000E+00 -0.00000000000E+00 -0.52819108743E+03  0.52819108743E+03  0.00000000000E+00 0. -1.
         25    1    1    2    0    0  0.12744055665E+03  0.40759829562E+02 -0.71949916340E+02  0.19673395652E+03  0.12500000000E+03 0.  0.
         25    1    1    2    0    0  0.54548919635E+02  0.54996654348E+00 -0.19788909446E+03  0.24033514267E+03  0.12500000000E+03 0.  0.
         25    1    1    2    0    0 -0.18198947629E+03 -0.41309796105E+02 -0.10255475368E+03  0.24691931119E+03  0.12500000000E+03 0.  0.
</event>
<event>
 5    0  0.5576108E-005  0.4493124E+03  0.7546771E-02  0.1027927E+00
         21   -1    0    0  502  501  0.00000000000E+00  0.00000000000E+00  0.15074604069E+04  0.15074604069E+04  0.00000000000E+00 0. -1.
         21   -1    0    0  501  502 -0.00000000000E+00 -0.00000000000E+00 -0.13392165350E+03  0.13392165350E+03  0.00000000000E+00 0. -1.
         25    1    1    2    0    0  0.61545802743E+02  0.17147624475E+02  0.11849908241E+04  0.11932770760E+04  0.12500000000E+03 0.  0.
         25    1    1    2    0    0 -0.15071634037E+03 -0.33368204275E+02 -0.72390172398E+01  0.19876180640E+03  0.12500000000E+03 0.  0.
         25    1    1    2    0    0  0.89170537630E+02  0.16220579801E+02  0.19578694657E+03  0.24934317805E+03  0.12500000000E+03 0.  0.
</event>
<event>
 5    0  0.5576108E-005  0.3667655E+03  0.7546771E-02  0.1055937E+00
         21   -1    0    0  502  501  0.00000000000E+00  0.00000000000E+00  0.14918764370E+03  0.14918764370E+03  0.00000000000E+00 0.  1.
         21   -1    0    0  501  502 -0.00000000000E+00 -0.00000000000E+00 -0.90166269907E+03  0.90166269907E+03  0.00000000000E+00 0.  1.
         25    1    1    2    0    0  0.13628635455E+03 -0.16442960459E+03 -0.38085544303E+03  0.45418821406E+03  0.12500000000E+03 0.  0.
         25    1    1    2    0    0 -0.18016563734E+03  0.50288234776E+01 -0.69130408327E+02  0.22997599722E+03  0.12500000000E+03 0.  0.
         25    1    1    2    0    0  0.43879282788E+02  0.15940078112E+03 -0.30248920401E+03  0.36668613148E+03  0.12500000000E+03 0.  0.
</event>
<event>
 5    0  0.5576108E-005  0.2328745E+03  0.7546771E-02  0.1124633E+00
         21   -1    0    0  502  501  0.00000000000E+00  0.00000000000E+00  0.36856090792E+02  0.36856090792E+02  0.00000000000E+00 0.  1.
         21   -1    0    0  501  502 -0.00000000000E+00 -0.00000000000E+00 -0.14714128218E+04  0.14714128218E+04  0.00000000000E+00 0.  1.
         25    1    1    2    0    0  0.55920350107E+02 -0.93977241221E+02 -0.50416652180E+03  0.53081794348E+03  0.12500000000E+03 0.  0.
         25    1    1    2    0    0 -0.32315890787E+02  0.43210438321E+02 -0.66508292262E+03  0.67887535877E+03  0.12500000000E+03 0.  0.
         25    1    1    2    0    0 -0.23604459319E+02  0.50766802901E+02 -0.26530728664E+03  0.29857561039E+03  0.12500000000E+03 0.  0.
</event>
<event>
 5    0  0.5576108E-005  0.4239824E+03  0.7546771E-02  0.1035778E+00
         21   -1    0    0  502  501  0.00000000000E+00  0.00000000000E+00  0.40690775383E+03  0.40690775383E+03  0.00000000000E+00 0. -1.
         21   -1    0    0  501  502 -0.00000000000E+00 -0.00000000000E+00 -0.44177363582E+03  0.44177363582E+03  0.00000000000E+00 0. -1.
         25    1    1    2    0    0 -0.62087212764E+02  0.32551271978E+03 -0.11525544201E+03  0.37245425174E+03  0.12500000000E+03 0.  0.
         25    1    1    2    0    0  0.13827693448E+03 -0.20807341868E+03  0.71402181018E+02  0.28833718044E+03  0.12500000000E+03 0.  0.
         25    1    1    2    0    0 -0.76189721711E+02 -0.11743930110E+03  0.89873790026E+01  0.18788995747E+03  0.12500000000E+03 0.  0.
</event>
<event>
 5    0  0.5576108E-005  0.3025055E+03  0.7546771E-02  0.1083995E+00
         21   -1    0    0  502  501  0.00000000000E+00  0.00000000000E+00  0.63874707453E+02  0.63874707453E+02  0.00000000000E+00 0.  1.
         21   -1    0    0  501  502 -0.00000000000E+00 -0.00000000000E+00 -0.14326415372E+04  0.14326415372E+04  0.00000000000E+00 0.  1.
         25    1    1    2    0    0  0.15107552790E+03 -0.64730928709E+02 -0.64882544541E+03  0.68089159700E+03  0.12500000000E+03 0.  0.
         25    1    1    2    0    0 -0.11022013213E+03 -0.45590533710E+02 -0.53988187745E+03  0.56685484552E+03  0.12500000000E+03 0.  0.
         25    1    1    2    0    0 -0.40855395768E+02  0.11032146242E+03 -0.18005950692E+03  0.24876980216E+03  0.12500000000E+03 0.  0.
</event>
<event>
 5    0  0.5576108E-005  0.3031991E+03  0.7546771E-02  0.1083652E+00
         21   -1    0    0  502  501  0.00000000000E+00  0.00000000000E+00  0.10746658385E+03  0.10746658385E+03  0.00000000000E+00 0.  1.
         21   -1    0    0  501  502 -0.00000000000E+00 -0.00000000000E+00 -0.85542558930E+03  0.85542558930E+03  0.00000000000E+00 0.  1.
         25    1    1    2    0    0 -0.52445158382E+02 -0.52911696547E+01 -0.71341852084E+02  0.15327475648E+03  0.12500000000E+03 0.  0.
         25    1    1    2    0    0 -0.88650129407E+02  0.22635337513E+02 -0.57350645835E+03  0.59405880325E+03  0.12500000000E+03 0.  0.
         25    1    1    2    0    0  0.14109528779E+03 -0.17344167858E+02 -0.10311069501E+03  0.21555861342E+03  0.12500000000E+03 0.  0.
</event>
<event>
 5    0  0.6513390E-005  0.3454143E+03  0.7546771E-02  0.1064513E+00
         21   -1    0    0  502  501  0.00000000000E+00  0.00000000000E+00  0.36985168806E+03  0.36985168806E+03  0.00000000000E+00 0. -1.
         21   -1    0    0  501  502 -0.00000000000E+00 -0.00000000000E+00 -0.32259154016E+03  0.32259154016E+03  0.00000000000E+00 0. -1.
         25    1    1    2    0    0  0.19115170789E+03  0.19113369053E+01  0.17866414437E+03  0.28998018057E+03  0.12500000000E+03 0.  0.
         25    1    1    2    0    0 -0.15860067653E+03 -0.71677955917E+02 -0.14455357380E+02  0.21476932118E+03  0.12500000000E+03 0.  0.
         25    1    1    2    0    0 -0.32551031358E+02  0.69766619012E+02 -0.11694863910E+03  0.18769372647E+03  0.12500000000E+03 0.  0.
</event>
<event>
 5    0  0.5576108E-005  0.2633632E+03  0.7546771E-02  0.1105139E+00
         21   -1    0    0  502  501  0.00000000000E+00  0.00000000000E+00  0.93710896483E+02  0.93710896483E+02  0.00000000000E+00 0.  1.
         21   -1    0    0  501  502 -0.00000000000E+00 -0.00000000000E+00 -0.74015058248E+03  0.74015058248E+03  0.00000000000E+00 0.  1.
         25    1    1    2    0    0 -0.10064299568E+03 -0.16828148816E+02 -0.30450977958E+03  0.34462066832E+03  0.12500000000E+03 0.  0.
         25    1    1    2    0    0  0.50847487959E+02  0.11436750982E+03 -0.22418583197E+03  0.28556904873E+03  0.12500000000E+03 0.  0.
         25    1    1    2    0    0  0.49795507726E+02 -0.97539361005E+02 -0.11774407445E+03  0.20367176192E+03  0.12500000000E+03 0.  0.
</event>
<event>
 5    0  0.5576108E-005  0.2281572E+03  0.7546771E-02  0.1127944E+00
         21   -1    0    0  502  501  0.00000000000E+00  0.00000000000E+00  0.15137243510E+04  0.15137243510E+04  0.00000000000E+00 0.  1.
         21   -1    0    0  501  502 -0.00000000000E+00 -0.00000000000E+00 -0.34389174130E+02  0.34389174130E+02  0.00000000000E+00 0.  1.
         25    1    1    2    0    0  0.39695674832E+02 -0.52944404513E+01  0.42928112915E+03  0.44889983910E+03  0.12500000000E+03 0.  0.
         25    1    1    2    0    0  0.81455090949E+02  0.37002106347E+01  0.42877486371E+03  0.45400606510E+03  0.12500000000E+03 0.  0.
         25    1    1    2    0    0 -0.12115076578E+03  0.15942298167E+01  0.62127918403E+03  0.64520762095E+03  0.12500000000E+03 0.  0.
</event>
<event>
 5    0  0.5576108E-005  0.3269935E+03  0.7546771E-02  0.1072475E+00
         21   -1    0    0  502  501  0.00000000000E+00  0.00000000000E+00  0.96244957753E+03  0.96244957753E+03  0.00000000000E+00 0.  1.
         21   -1    0    0  501  502 -0.00000000000E+00 -0.00000000000E+00 -0.11109649795E+03  0.11109649795E+03  0.00000000000E+00 0.  1.
         25    1    1    2    0    0  0.12765786910E+03  0.12242590877E+03  0.22011517636E+03  0.30880467216E+03  0.12500000000E+03 0.  0.
         25    1    1    2    0    0 -0.47366494733E+02  0.16677164575E+02  0.41630083674E+02  0.14099566131E+03  0.12500000000E+03 0.  0.
         25    1    1    2    0    0 -0.80291374369E+02 -0.13910307335E+03  0.58960781954E+03  0.62374574201E+03  0.12500000000E+03 0.  0.
</event>
<event>
 5    0  0.5576108E-005  0.2288391E+03  0.7546771E-02  0.1127460E+00
         21   -1    0    0  502  501  0.00000000000E+00  0.00000000000E+00  0.31822339180E+03  0.31822339180E+03  0.00000000000E+00 0.  1.
         21   -1    0    0  501  502 -0.00000000000E+00 -0.00000000000E+00 -0.16456158965E+03  0.16456158965E+03  0.00000000000E+00 0.  1.
         25    1    1    2    0    0  0.47725245717E+02 -0.25973689334E+02  0.13056084632E+02  0.13692258018E+03  0.12500000000E+03 0.  0.
         25    1    1    2    0    0 -0.97633825760E+02 -0.39461612237E+02  0.96644592692E+02  0.18988091023E+03  0.12500000000E+03 0.  0.
         25    1    1    2    0    0  0.49908580043E+02  0.65435301571E+02  0.43961124826E+02  0.15598149105E+03  0.12500000000E+03 0.  0.
</event>
<event>
 5    0  0.5576108E-005  0.2350079E+03  0.7546771E-02  0.1123164E+00
         21   -1    0    0  502  501  0.00000000000E+00  0.00000000000E+00  0.69439459613E+02  0.69439459613E+02  0.00000000000E+00 0.  1.
         21   -1    0    0  501  502 -0.00000000000E+00 -0.00000000000E+00 -0.79535023784E+03  0.79535023784E+03  0.00000000000E+00 0.  1.
         25    1    1    2    0    0 -0.56851478506E+02 -0.25683562005E+02 -0.67311864837E+02  0.15507296061E+03  0.12500000000E+03 0.  0.
         25    1    1    2    0    0  0.40952813913E+02  0.71188853188E+01 -0.26345558177E+03  0.29455331447E+03  0.12500000000E+03 0.  0.
         25    1    1    2    0    0  0.15898664594E+02  0.18564676686E+02 -0.39514333162E+03  0.41516342238E+03  0.12500000000E+03 0.  0.
</event>
<event>
 5    0  0.5576108E-005  0.2055407E+03  0.7546771E-02  0.1145147E+00
         21   -1    0    0  502  501  0.00000000000E+00  0.00000000000E+00  0.11149733887E+03  0.11149733887E+03  0.00000000000E+00 0.  1.
         21   -1    0    0  501  502 -0.00000000000E+00 -0.00000000000E+00 -0.37890589028E+03  0.37890589028E+03  0.00000000000E+00 0.  1.
         25    1    1    2    0    0 -0.63238651628E+00  0.43737305040E+02 -0.13135374904E+03  0.18652656420E+03  0.12500000000E+03 0.  0.
         25    1    1    2    0    0  0.43447328140E+02 -0.20430809211E+02 -0.43159278086E+02  0.14068692751E+03  0.12500000000E+03 0.  0.
         25    1    1    2    0    0 -0.42814941623E+02 -0.23306495828E+02 -0.92895524295E+02  0.16318973745E+03  0.12500000000E+03 0.  0.
</event>
<event>
 5    0  0.5576108E-005  0.3955746E+03  0.7546771E-02  0.1045323E+00
         21   -1    0    0  502  501  0.00000000000E+00  0.00000000000E+00  0.10861553433E+03  0.10861553433E+03  0.00000000000E+00 0.  1.
         21   -1    0    0  501  502 -0.00000000000E+00 -0.00000000000E+00 -0.14406707960E+04  0.14406707960E+04  0.00000000000E+00 0.  1.
         25    1    1    2    0    0  0.11588093150E+03 -0.15396812450E+03 -0.25911773547E+03  0.34626806738E+03  0.12500000000E+03 0.  0.
         25    1    1    2    0    0 -0.10320051932E+03 -0.14356814069E+03 -0.50896405486E+03  0.55311080928E+03  0.12500000000E+03 0.  0.
         25    1    1    2    0    0 -0.12680412176E+02  0.29753626519E+03 -0.56397347131E+03  0.64990745365E+03  0.12500000000E+03 0.  0.
</event>
<event>
 5    0  0.5576108E-005  0.2449020E+03  0.7546771E-02  0.1116570E+00
         21   -1    0    0  502  501  0.00000000000E+00  0.00000000000E+00  0.15045503222E+03  0.15045503222E+03  0.00000000000E+00 0. -1.
         21   -1    0    0  501  502 -0.00000000000E+00 -0.00000000000E+00 -0.39863730551E+03  0.39863730551E+03  0.00000000000E+00 0. -1.
         25    1    1    2    0    0  0.92162614907E+01 -0.79873978235E+02 -0.13330319577E+03  0.19964852586E+03  0.12500000000E+03 0.  0.
         25    1    1    2    0    0  0.72289686119E+02 -0.56060745344E+01 -0.10221687905E+03  0.17700428569E+03  0.12500000000E+03 0.  0.
         25    1    1    2    0    0 -0.81505947609E+02  0.85480052769E+02 -0.12662198470E+02  0.17243952617E+03  0.12500000000E+03 0.  0.
</event>
<event>
 5    0  0.5576108E-005  0.2508499E+03  0.7546771E-02  0.1112769E+00
         21   -1    0    0  502  501  0.00000000000E+00  0.00000000000E+00  0.19648311444E+03  0.19648311444E+03  0.00000000000E+00 0.  1.
         21   -1    0    0  501  502 -0.00000000000E+00 -0.00000000000E+00 -0.32025991022E+03  0.32025991022E+03  0.00000000000E+00 0.  1.
         25    1    1    2    0    0  0.81232298739E+01  0.61440499385E+02  0.41182385406E+02  0.14547133978E+03  0.12500000000E+03 0.  0.
         25    1    1    2    0    0 -0.58036902674E+02  0.26214463862E+02 -0.15686469383E+03  0.21044479646E+03  0.12500000000E+03 0.  0.
         25    1    1    2    0    0  0.49913672800E+02 -0.87654963247E+02 -0.80944873526E+01  0.16082688842E+03  0.12500000000E+03 0.  0.
</event>
<event>
 5    0  0.5576108E-005  0.3053885E+03  0.7546771E-02  0.1082578E+00
         21   -1    0    0  502  501  0.00000000000E+00  0.00000000000E+00  0.29708966052E+03  0.29708966052E+03  0.00000000000E+00 0. -1.
         21   -1    0    0  501  502 -0.00000000000E+00 -0.00000000000E+00 -0.31391922316E+03  0.31391922316E+03  0.00000000000E+00 0. -1.
         25    1    1    2    0    0  0.23160574638E+02  0.11239291676E+03 -0.15002412247E+03  0.22649683724E+03  0.12500000000E+03 0.  0.
         25    1    1    2    0    0 -0.52916048716E+01 -0.45085513593E+02  0.18885310944E+03  0.23097879029E+03  0.12500000000E+03 0.  0.
         25    1    1    2    0    0 -0.17868969767E+02 -0.67307403166E+02 -0.55658549608E+02  0.15353325616E+03  0.12500000000E+03 0.  0.
</event>
<event>
 5    0  0.5576108E-005  0.3123007E+03  0.7546771E-02  0.1079248E+00
         21   -1    0    0  502  501  0.00000000000E+00  0.00000000000E+00  0.34893932560E+03  0.34893932560E+03  0.00000000000E+00 0. -1.
         21   -1    0    0  501  502 -0.00000000000E+00 -0.00000000000E+00 -0.27950916484E+03  0.27950916484E+03  0.00000000000E+00 0. -1.
         25    1    1    2    0    0 -0.14908151899E+03 -0.11672492795E+03  0.16076492714E+02  0.22744991037E+03  0.12500000000E+03 0.  0.
         25    1    1    2    0    0 -0.20038646566E+02  0.78005169896E+01  0.97630355657E+02  0.16005961942E+03  0.12500000000E+03 0.  0.
         25    1    1    2    0    0  0.16912016555E+03  0.10892441096E+03 -0.44276687612E+02  0.24093896066E+03  0.12500000000E+03 0.  0.
</event>
<event>
 5    0  0.5576108E-005  0.2590418E+03  0.7546771E-02  0.1107720E+00
         21   -1    0    0  502  501  0.00000000000E+00  0.00000000000E+00  0.75805273990E+03  0.75805273990E+03  0.00000000000E+00 0. -1.
         21   -1    0    0  501  502 -0.00000000000E+00 -0.00000000000E+00 -0.88519776402E+02  0.88519776402E+02  0.00000000000E+00 0. -1.
         25    1    1    2    0    0  0.52883661628E+02 -0.41621907225E+02  0.70587434637E+02  0.15854542175E+03  0.12500000000E+03 0.  0.
         25    1    1    2    0    0 -0.19112407282E+02 -0.88904235048E+02  0.26302054980E+03  0.30508041029E+03  0.12500000000E+03 0.  0.
         25    1    1    2    0    0 -0.33771254346E+02  0.13052614227E+03  0.33592497906E+03  0.38294668427E+03  0.12500000000E+03 0.  0.
</event>
<event>
 5    0  0.5576108E-005  0.3643841E+03  0.7546771E-02  0.1056861E+00
         21   -1    0    0  502  501  0.00000000000E+00  0.00000000000E+00  0.55291289629E+03  0.55291289629E+03  0.00000000000E+00 0. -1.
         21   -1    0    0  501  502 -0.00000000000E+00 -0.00000000000E+00 -0.24013864562E+03  0.24013864562E+03  0.00000000000E+00 0. -1.
         25    1    1    2    0    0  0.16697553221E+03 -0.21554097313E+03  0.17522628834E+03  0.34737298626E+03  0.12500000000E+03 0.  0.
         25    1    1    2    0    0  0.16354165880E+02  0.88801538429E+02  0.10839302452E+03  0.18848665664E+03  0.12500000000E+03 0.  0.
         25    1    1    2    0    0 -0.18332969809E+03  0.12673943471E+03  0.29154937809E+02  0.25719189900E+03  0.12500000000E+03 0.  0.
</event>
<event>
 5    0  0.5576108E-005  0.2363945E+03  0.7546771E-02  0.1122218E+00
         21   -1    0    0  502  501  0.00000000000E+00  0.00000000000E+00  0.78624710413E+02  0.78624710413E+02  0.00000000000E+00 0.  1.
         21   -1    0    0  501  502 -0.00000000000E+00 -0.00000000000E+00 -0.71074777150E+03  0.71074777150E+03  0.00000000000E+00 0.  1.
         25    1    1    2    0    0  0.29979836363E+02 -0.66188693282E+02 -0.56446866076E+02  0.15521270050E+03  0.12500000000E+03 0.  0.
         25    1    1    2    0    0 -0.29877432156E+02  0.21179300190E+02 -0.33164931378E+03  0.35631094712E+03  0.12500000000E+03 0.  0.
         25    1    1    2    0    0 -0.10240420684E+00  0.45009393092E+02 -0.24402688122E+03  0.27784883428E+03  0.12500000000E+03 0.  0.
</event>
<event>
 5    0  0.5576108E-005  0.3177696E+03  0.7546771E-02  0.1076680E+00
         21   -1    0    0  502  501  0.00000000000E+00  0.00000000000E+00  0.66531226591E+03  0.66531226591E+03  0.00000000000E+00 0.  1.
         21   -1    0    0  501  502 -0.00000000000E+00 -0.00000000000E+00 -0.15177458193E+03  0.15177458193E+03  0.00000000000E+00 0.  1.
         25    1    1    2    0    0  0.13921658662E+03 -0.14859851515E+03  0.14318838598E+03  0.27855105560E+03  0.12500000000E+03 0.  0.
         25    1    1    2    0    0 -0.12620705267E+03  0.73519748853E+02  0.70331456940E+02  0.20470683294E+03  0.12500000000E+03 0.  0.
         25    1    1    2    0    0 -0.13009533947E+02  0.75078766294E+02  0.30001784105E+03  0.33382895931E+03  0.12500000000E+03 0.  0.
</event>
<event>
 5    0  0.5576108E-005  0.3864530E+03  0.7546771E-02  0.1048574E+00
         21   -1    0    0  502  501  0.00000000000E+00  0.00000000000E+00  0.21501501968E+03  0.21501501968E+03  0.00000000000E+00 0.  1.
         21   -1    0    0  501  502 -0.00000000000E+00 -0.00000000000E+00 -0.69458375888E+03  0.69458375888E+03  0.00000000000E+00 0.  1.
         25    1    1    2    0    0  0.20612720298E+03 -0.91870457863E+02 -0.28188682814E+02  0.25951533033E+03  0.12500000000E+03 0.  0.
         25    1    1    2    0    0 -0.18535761777E+03  0.15951539179E+03 -0.42195449856E+03  0.50346122546E+03  0.12500000000E+03 0.  0.
         25    1    1    2    0    0 -0.20769585210E+02 -0.67644933931E+02 -0.29425557824E+02  0.14662222277E+03  0.12500000000E+03 0.  0.
</event>
<event>
 5    0  0.5576108E-005  0.4205184E+03  0.7546771E-02  0.1036898E+00
         21   -1    0    0  502  501  0.00000000000E+00  0.00000000000E+00  0.24006010366E+03  0.24006010366E+03  0.00000000000E+00 0. -1.
         21   -1    0    0  501  502 -0.00000000000E+00 -0.00000000000E+00 -0.73663095107E+03  0.73663095107E+03  0.00000000000E+00 0. -1.
         25    1    1    2    0    0 -0.26729514499E+02  0.17720577262E+03 -0.22396932414E+03  0.31289552722E+03  0.12500000000E+03 0.  0.
         25    1    1    2    0    0 -0.15819518398E+03  0.90410945587E+00 -0.31611264310E+03  0.37493831063E+03  0.12500000000E+03 0.  0.
         25    1    1    2    0    0  0.18492469848E+03 -0.17810988208E+03  0.43511119836E+02  0.28885721689E+03  0.12500000000E+03 0.  0.
</event>
<event>
 5    0  0.5576108E-005  0.7281200E+03  0.7546771E-02  0.9670316E-01
         21   -1    0    0  502  501  0.00000000000E+00  0.00000000000E+00  0.15348434634E+04  0.15348434634E+04  0.00000000000E+00 0.  1.
         21   -1    0    0  501  502 -0.00000000000E+00 -0.00000000000E+00 -0.34541552099E+03  0.34541552099E+03  0.00000000000E+00 0.  1.
         25    1    1    2    0    0  0.25068359550E+03  0.45113335677E+03  0.36069077710E+03  0.64193956673E+03  0.12500000000E+03 0.  0.
         25    1    1    2    0    0 -0.46609654875E+03 -0.44117305377E+03  0.48669070211E+03  0.81509048310E+03  0.12500000000E+03 0.  0.
         25    1    1    2    0    0  0.21541295325E+03 -0.99603030017E+01  0.34204646322E+03  0.42322893458E+03  0.12500000000E+03 0.  0.
</event>
<event>
 5    0  0.5576108E-005  0.3785300E+03  0.7546771E-02  0.1051478E+00
         21   -1    0    0  502  501  0.00000000000E+00  0.00000000000E+00  0.95024646159E+02  0.95024646159E+02  0.00000000000E+00 0. -1.
         21   -1    0    0  501  502 -0.00000000000E+00 -0.00000000000E+00 -0.15078712828E+04  0.15078712828E+04  0.00000000000E+00 0. -1.
         25    1    1    2    0    0 -0.20539786201E+02 -0.33773587539E+02 -0.12814140651E+03  0.18332418851E+03  0.12500000000E+03 0.  0.
         25    1    1    2    0    0  0.53284474107E+02 -0.20777368455E+03 -0.26252893920E+03  0.36132476125E+03  0.12500000000E+03 0.  0.
         25    1    1    2    0    0 -0.32744687906E+02  0.24154727209E+03 -0.10221762909E+04  0.10582469792E+04  0.12500000000E+03 0.  0.
</event>
<event>
 5    0  0.5848149E-005  0.3859977E+03  0.7546771E-02  0.1048739E+00
         21   -1    0    0  502  501  0.00000000000E+00  0.00000000000E+00  0.45424947884E+03  0.45424947884E+03  0.00000000000E+00 0. -1.
         21   -1    0    0  501  502 -0.00000000000E+00 -0.00000000000E+00 -0.32800087990E+03  0.32800087990E+03  0.00000000000E+00 0. -1.
         25    1    1    2    0    0  0.18954182473E+03  0.96588538504E+02  0.12497882287E+03  0.27658661439E+03  0.12500000000E+03 0.  0.
         25    1    1    2    0    0 -0.98887522654E+02 -0.22771992770E+03 -0.77101852619E+02  0.28845242811E+03  0.12500000000E+03 0.  0.
         25    1    1    2    0    0 -0.90654302077E+02  0.13113138919E+03  0.78371628688E+02  0.21721131623E+03  0.12500000000E+03 0.  0.
</event>
<event>
 5    0  0.5576108E-005  0.3584053E+03  0.7546771E-02  0.1059217E+00
         21   -1    0    0  502  501  0.00000000000E+00  0.00000000000E+00  0.15511578249E+04  0.15511578249E+04  0.00000000000E+00 0. -1.
         21   -1    0    0  501  502 -0.00000000000E+00 -0.00000000000E+00 -0.82811919021E+02  0.82811919021E+02  0.00000000000E+00 0. -1.
         25    1    1    2    0    0 -0.52509105715E+02 -0.19618036866E+03  0.68273401426E+03  0.72318370934E+03  0.12500000000E+03 0.  0.
         25    1    1    2    0    0  0.68304208333E+02  0.26512853631E+03  0.63474864225E+03  0.70248803867E+03  0.12500000000E+03 0.  0.
         25    1    1    2    0    0 -0.15795102617E+02 -0.68948167647E+02  0.15086324937E+03  0.20829799591E+03  0.12500000000E+03 0.  0.
</event>
<event>
 5    0  0.5576108E-005  0.2722860E+03  0.7546771E-02  0.1099978E+00
         21   -1    0    0  502  501  0.00000000000E+00  0.00000000000E+00  0.68840353862E+03  0.68840353862E+03  0.00000000000E+00 0. -1.
         21   -1    0    0  501  502 -0.00000000000E+00 -0.00000000000E+00 -0.10769798349E+03  0.10769798349E+03  0.00000000000E+00 0. -1.
         25    1    1    2    0    0 -0.41160662595E+02  0.16220764005E+03  0.20563128753E+03  0.29311217144E+03  0.12500000000E+03 0.  0.
         25    1    1    2    0    0  0.14333591409E+02 -0.16108222095E+03  0.26208830334E+03  0.33236758641E+03  0.12500000000E+03 0.  0.
         25    1    1    2    0    0  0.26827071186E+02 -0.11254190975E+01  0.11298596427E+03  0.17062176426E+03  0.12500000000E+03 0.  0.
</event>
<event>
 5    0  0.5576108E-005  0.4345819E+03  0.7546771E-02  0.1032422E+00
         21   -1    0    0  502  501  0.00000000000E+00  0.00000000000E+00  0.52201732412E+03  0.52201732412E+03  0.00000000000E+00 0.  1.
         21   -1    0    0  501  502 -0.00000000000E+00 -0.00000000000E+00 -0.36179154904E+03  0.36179154904E+03  0.00000000000E+00 0. -1.
         25    1    1    2    0    0 -0.25068337877E+03  0.69264229918E+02  0.27907434877E+03  0.40143141641E+03  0.12500000000E+03 0.  0.
         25    1    1    2    0    0  0.22016854475E+03 -0.43675401971E+02 -0.20220429352E+03  0.32694541617E+03  0.12500000000E+03 0.  0.
         25    1    1    2    0    0  0.30514834016E+02 -0.25588827947E+02  0.83355719824E+02  0.15543204058E+03  0.12500000000E+03 0.  0.
</event>
<event>
 5    0  0.5576108E-005  0.3357523E+03  0.7546771E-02  0.1068620E+00
         21   -1    0    0  502  501  0.00000000000E+00  0.00000000000E+00  0.33227862704E+03  0.33227862704E+03  0.00000000000E+00 0.  1.
         21   -1    0    0  501  502 -0.00000000000E+00 -0.00000000000E+00 -0.33926219498E+03  0.33926219498E+03  0.00000000000E+00 0.  1.
         25    1    1    2    0    0  0.32219766195E+02 -0.14407091758E+02 -0.36242888613E+02  0.13484889544E+03  0.12500000000E+03 0.  0.
         25    1    1    2    0    0 -0.16057977970E+03 -0.17944748890E+03  0.20671507870E+01  0.27132368129E+03  0.12500000000E+03 0.  0.
         25    1    1    2    0    0  0.12836001350E+03  0.19385458065E+03  0.27192169886E+02  0.26536824529E+03  0.12500000000E+03 0.  0.
</event>
<event>
 5    0  0.5576108E-005  0.3300418E+03  0.7546771E-02  0.1071118E+00
         21   -1    0    0  502  501  0.00000000000E+00  0.00000000000E+00  0.73529973233E+03  0.73529973233E+03  0.00000000000E+00 0.  1.
         21   -1    0    0  501  502 -0.00000000000E+00 -0.00000000000E+00 -0.14814036900E+03  0.14814036900E+03  0.00000000000E+00 0.  1.
         25    1    1    2    0    0  0.87974255492E+02 -0.13398672626E+02  0.14450865585E+02  0.15411950420E+03  0.12500000000E+03 0.  0.
         25    1    1    2    0    0 -0.11297959316E+03  0.51567952684E+02  0.56958268807E+03  0.59621563277E+03  0.12500000000E+03 0.  0.
         25    1    1    2    0    0  0.25005337669E+02 -0.38169280058E+02  0.31258096682E+01  0.13310496436E+03  0.12500000000E+03 0.  0.
</event>
<event>
 5    0  0.5576108E-005  0.3407300E+03  0.7546771E-02  0.1066485E+00
         21   -1    0    0  502  501  0.00000000000E+00  0.00000000000E+00  0.18332016662E+03  0.18332016662E+03  0.00000000000E+00 0.  1.
         21   -1    0    0  501  502 -0.00000000000E+00 -0.00000000000E+00 -0.63330158876E+03  0.63330158876E+03  0.00000000000E+00 0.  1.
         25    1    1    2    0    0 -0.15914599489E+03 -0.55711052592E+01 -0.25583265318E+03  0.32624198279E+03  0.12500000000E+03 0.  0.
         25    1    1    2    0    0  0.20336153611E+03  0.12665303751E+03 -0.12820641721E+03  0.29909662602E+03  0.12500000000E+03 0.  0.
         25    1    1    2    0    0 -0.44215541222E+02 -0.12108193225E+03 -0.65942351750E+02  0.19128314656E+03  0.12500000000E+03 0.  0.
</event>
<event>
 5    0  0.5576108E-005  0.2108456E+03  0.7546771E-02  0.1140898E+00
         21   -1    0    0  502  501  0.00000000000E+00  0.00000000000E+00  0.15681974839E+03  0.15681974839E+03  0.00000000000E+00 0.  1.
         21   -1    0    0  501  502 -0.00000000000E+00 -0.00000000000E+00 -0.28348389048E+03  0.28348389048E+03  0.00000000000E+00 0.  1.
         25    1    1    2    0    0 -0.97060873361E+01  0.62641720190E+02 -0.76007146897E+02  0.15943738463E+03  0.12500000000E+03 0.  0.
         25    1    1    2    0    0 -0.36537062309E+02 -0.58363978117E+02 -0.20826463731E+02  0.14422223287E+03  0.12500000000E+03 0.  0.
         25    1    1    2    0    0  0.46243149646E+02 -0.42777420725E+01 -0.29830531458E+02  0.13664402136E+03  0.12500000000E+03 0.  0.
</event>
<event>
 5    0  0.5576108E-005  0.2882783E+03  0.7546771E-02  0.1091252E+00
         21   -1    0    0  502  501  0.00000000000E+00  0.00000000000E+00  0.18041749532E+03  0.18041749532E+03  0.00000000000E+00 0.  1.
         21   -1    0    0  501  502 -0.00000000000E+00 -0.00000000000E+00 -0.46062250565E+03  0.46062250565E+03  0.00000000000E+00 0.  1.
         25    1    1    2    0    0 -0.18857837892E+02 -0.15069599175E+03 -0.19661802203E+03  0.27811606671E+03  0.12500000000E+03 0.  0.
         25    1    1    2    0    0 -0.19300766112E+02 -0.23754448033E+02 -0.64943950519E+02  0.14415099751E+03  0.12500000000E+03 0.  0.
         25    1    1    2    0    0  0.38158604004E+02  0.17445043978E+03 -0.18643037782E+02  0.21877293675E+03  0.12500000000E+03 0.  0.
</event>
<event>
 5    0  0.5576108E-005  0.2770448E+03  0.7546771E-02  0.1097314E+00
         21   -1    0    0  502  501  0.00000000000E+00  0.00000000000E+00  0.35109965074E+02  0.35109965074E+02  0.00000000000E+00 0.  1.
         21   -1    0    0  501  502 -0.00000000000E+00 -0.00000000000E+00 -0.21860973960E+04  0.21860973960E+04  0.00000000000E+00 0.  1.
         25    1    1    2    0    0 -0.25158710845E+02  0.74266257869E+02 -0.23145314962E+03  0.27448861226E+03  0.12500000000E+03 0.  0.
         25    1    1    2    0    0  0.56421608347E+02 -0.10106842361E+03 -0.71499070871E+03  0.73500676029E+03  0.12500000000E+03 0.  0.
         25    1    1    2    0    0 -0.31262897502E+02  0.26802165739E+02 -0.12045435726E+04  0.12117119886E+04  0.12500000000E+03 0.  0.
</event>
<event>
 5    0  0.5576108E-005  0.5346215E+03  0.7546771E-02  0.1005117E+00
         21   -1    0    0  502  501  0.00000000000E+00  0.00000000000E+00  0.13978953395E+03  0.13978953395E+03  0.00000000000E+00 0. -1.
         21   -1    0    0  501  502 -0.00000000000E+00 -0.00000000000E+00 -0.20446459925E+04  0.20446459925E+04  0.00000000000E+00 0. -1.
         25    1    1    2    0    0 -0.16267925786E+03 -0.16379333300E+03 -0.18714637062E+03  0.32239969123E+03  0.12500000000E+03 0.  0.
         25    1    1    2    0    0 -0.14764970325E+03  0.30031160621E+03 -0.87670598990E+03  0.94669207688E+03  0.12500000000E+03 0.  0.
         25    1    1    2    0    0  0.31032896111E+03 -0.13651827322E+03 -0.84100409804E+03  0.91534375835E+03  0.12500000000E+03 0.  0.
</event>
<event>
 5    0  0.5576108E-005  0.4530933E+03  0.7546771E-02  0.1026804E+00
         21   -1    0    0  502  501  0.00000000000E+00  0.00000000000E+00  0.81129853766E+02  0.81129853766E+02  0.00000000000E+00 0. -1.
         21   -1    0    0  501  502 -0.00000000000E+00 -0.00000000000E+00 -0.25304320141E+04  0.25304320141E+04  0.00000000000E+00 0. -1.
         25    1    1    2    0    0  0.21733327723E+03 -0.14930081274E+03 -0.16409144947E+04  0.16666582928E+04  0.12500000000E+03 0.  0.
         25    1    1    2    0    0 -0.61037865450E+02  0.72817810341E+01 -0.50324935699E+02  0.14810889408E+03  0.12500000000E+03 0.  0.
         25    1    1    2    0    0 -0.15629541178E+03  0.14201903170E+03 -0.75806272993E+03  0.79679468097E+03  0.12500000000E+03 0.  0.
</event>
<event>
 5    0  0.5576108E-005  0.3312471E+03  0.7546771E-02  0.1070586E+00
         21   -1    0    0  502  501  0.00000000000E+00  0.00000000000E+00  0.14244156509E+04  0.14244156509E+04  0.00000000000E+00 0.  1.
         21   -1    0    0  501  502 -0.00000000000E+00 -0.00000000000E+00 -0.77031334181E+02  0.77031334181E+02  0.00000000000E+00 0.  1.
         25    1    1    2    0    0  0.12996624385E+03  0.14824893577E+03  0.44729109846E+03  0.50454266248E+03  0.12500000000E+03 0.  0.
         25    1    1    2    0    0 -0.61086914534E+02  0.66681677408E+02  0.21329499351E+03  0.26324477485E+03  0.12500000000E+03 0.  0.
         25    1    1    2    0    0 -0.68879329317E+02 -0.21493061318E+03  0.68679822471E+03  0.73365954772E+03  0.12500000000E+03 0.  0.
</event>
<event>
 5    0  0.5576108E-005  0.2495333E+03  0.7546771E-02  0.1113600E+00
         21   -1    0    0  502  501  0.00000000000E+00  0.00000000000E+00  0.24115007781E+02  0.24115007781E+02  0.00000000000E+00 0.  1.
         21   -1    0    0  501  502 -0.00000000000E+00 -0.00000000000E+00 -0.25820803351E+04  0.25820803351E+04  0.00000000000E+00 0.  1.
         25    1    1    2    0    0 -0.20117128929E+02  0.13192772816E+03 -0.12507086163E+04  0.12640042196E+04  0.12500000000E+03 0.  0.
         25    1    1    2    0    0  0.46631183704E+02 -0.46100722913E+02 -0.46382765156E+03  0.48483072747E+03  0.12500000000E+03 0.  0.
         25    1    1    2    0    0 -0.26514054775E+02 -0.85827005244E+02 -0.84342905946E+03  0.85736039579E+03  0.12500000000E+03 0.  0.
</event>
<event>
 5    0  0.5576108E-005  0.3018285E+03  0.7546771E-02  0.1084330E+00
         21   -1    0    0  502  501  0.00000000000E+00  0.00000000000E+00  0.97652246274E+02  0.97652246274E+02  0.00000000000E+00 0.  1.
         21   -1    0    0  501  502 -0.00000000000E+00 -0.00000000000E+00 -0.93290687402E+03  0.93290687402E+03  0.00000000000E+00 0.  1.
         25    1    1    2    0    0  0.28860593827E+01  0.99069194204E+02 -0.17394787282E+03  0.23602096737E+03  0.12500000000E+03 0.  0.
         25    1    1    2    0    0 -0.13125171403E+03  0.62121853781E+02 -0.36819861401E+03  0.41506789386E+03  0.12500000000E+03 0.  0.
         25    1    1    2    0    0  0.12836565465E+03 -0.16119104798E+03 -0.29310814092E+03  0.37947025907E+03  0.12500000000E+03 0.  0.
</event>
<event>
 5    0  0.5576108E-005  0.3419192E+03  0.7546771E-02  0.1065981E+00
         21   -1    0    0  502  501  0.00000000000E+00  0.00000000000E+00  0.27989203055E+03  0.27989203055E+03  0.00000000000E+00 0. -1.
         21   -1    0    0  501  502 -0.00000000000E+00 -0.00000000000E+00 -0.41769220455E+03  0.41769220455E+03  0.00000000000E+00 0. -1.
         25    1    1    2    0    0 -0.95466211255E+01 -0.10172864852E+03 -0.54441349361E+02  0.17037815712E+03  0.12500000000E+03 0.  0.
         25    1    1    2    0    0 -0.92438441279E+02 -0.21544497426E+02  0.15054123873E+03  0.21747803419E+03  0.12500000000E+03 0.  0.
         25    1    1    2    0    0  0.10198506240E+03  0.12327314594E+03 -0.23390006337E+03  0.30972804379E+03  0.12500000000E+03 0.  0.
</event>
<event>
 5    0  0.5576108E-005  0.2105188E+03  0.7546771E-02  0.1141156E+00
         21   -1    0    0  502  501  0.00000000000E+00  0.00000000000E+00  0.75922601343E+03  0.75922601343E+03  0.00000000000E+00 0. -1.
         21   -1    0    0  501  502 -0.00000000000E+00 -0.00000000000E+00 -0.58372804860E+02  0.58372804860E+02  0.00000000000E+00 0. -1.
         25    1    1    2    0    0 -0.34955778738E+01  0.35378665492E+02  0.35528610111E+03  0.37830818479E+03  0.12500000000E+03 0.  0.
         25    1    1    2    0    0 -0.18567648131E+02 -0.32738433894E+02  0.10599254185E+03  0.16815463579E+03  0.12500000000E+03 0.  0.
         25    1    1    2    0    0  0.22063226005E+02 -0.26402315985E+01  0.23957456561E+03  0.27113599770E+03  0.12500000000E+03 0.  0.
</event>
<event>
 5    0  0.5576108E-005  0.2609836E+03  0.7546771E-02  0.1106554E+00
         21   -1    0    0  502  501  0.00000000000E+00  0.00000000000E+00  0.86535590901E+03  0.86535590901E+03  0.00000000000E+00 0. -1.
         21   -1    0    0  501  502 -0.00000000000E+00 -0.00000000000E+00 -0.78710318849E+02  0.78710318849E+02  0.00000000000E+00 0. -1.
         25    1    1    2    0    0 -0.68762952434E+02  0.85352071079E+02  0.50270736947E+03  0.52948372873E+03  0.12500000000E+03 0.  0.
         25    1    1    2    0    0  0.27628483704E+02 -0.65713991901E+02  0.63905901003E+02  0.15745039227E+03  0.12500000000E+03 0.  0.
         25    1    1    2    0    0  0.41134468730E+02 -0.19638079177E+02  0.22003231968E+03  0.25713210686E+03  0.12500000000E+03 0.  0.
</event>
<event>
 5    0  0.5576108E-005  0.3010477E+03  0.7546771E-02  0.1084718E+00
         21   -1    0    0  502  501  0.00000000000E+00  0.00000000000E+00  0.26142571886E+03  0.26142571886E+03  0.00000000000E+00 0.  1.
         21   -1    0    0  501  502 -0.00000000000E+00 -0.00000000000E+00 -0.34667485408E+03  0.34667485408E+03  0.00000000000E+00 0.  1.
         25    1    1    2    0    0  0.10314972788E+03  0.61402788391E+02  0.81459024859E+02  0.19149606136E+03  0.12500000000E+03 0.  0.
         25    1    1    2    0    0 -0.13392806866E+03 -0.97526074060E+02 -0.18941745575E+03  0.28098404801E+03  0.12500000000E+03 0.  0.
         25    1    1    2    0    0  0.30778340771E+02  0.36123285669E+02  0.22709295679E+02  0.13562046357E+03  0.12500000000E+03 0.  0.
</event>
<event>
 5    0  0.5576108E-005  0.2996048E+03  0.7546771E-02  0.1085438E+00
         21   -1    0    0  502  501  0.00000000000E+00  0.00000000000E+00  0.16224393462E+03  0.16224393462E+03  0.00000000000E+00 0. -1.
         21   -1    0    0  501  502 -0.00000000000E+00 -0.00000000000E+00 -0.55325980535E+03  0.55325980535E+03  0.00000000000E+00 0. -1.
         25    1    1    2    0    0  0.37345657522E+02 -0.46729953502E+02 -0.40277066098E+01  0.13863480483E+03  0.12500000000E+03 0.  0.
         25    1    1    2    0    0  0.40268096743E+02  0.18408956501E+03 -0.19247377450E+03  0.29695393824E+03  0.12500000000E+03 0.  0.
         25    1    1    2    0    0 -0.77613754265E+02 -0.13735961151E+03 -0.19451438961E+03  0.27991499691E+03  0.12500000000E+03 0.  0.
</event>
<event>
 5    0  0.5576108E-005  0.2760511E+03  0.7546771E-02  0.1097866E+00
         21   -1    0    0  502  501  0.00000000000E+00  0.00000000000E+00  0.21353104280E+03  0.21353104280E+03  0.00000000000E+00 0.  1.
         21   -1    0    0  501  502 -0.00000000000E+00 -0.00000000000E+00 -0.35687645596E+03  0.35687645596E+03  0.00000000000E+00 0.  1.
         25    1    1    2    0    0  0.14601864999E+02  0.41698367779E+02 -0.11104870757E+03  0.17294156178E+03  0.12500000000E+03 0.  0.
         25    1    1    2    0    0 -0.27556687667E+02 -0.61512491124E+02  0.12912170430E+03  0.19193898020E+03  0.12500000000E+03 0.  0.
         25    1    1    2    0    0  0.12954822668E+02  0.19814123345E+02 -0.16141840989E+03  0.20552695679E+03  0.12500000000E+03 0.  0.
</event>
<event>
 5    0  0.5576108E-005  0.4031196E+03  0.7546771E-02  0.1042705E+00
         21   -1    0    0  502  501  0.00000000000E+00  0.00000000000E+00  0.12878918054E+03  0.12878918054E+03  0.00000000000E+00 0.  1.
         21   -1    0    0  501  502 -0.00000000000E+00 -0.00000000000E+00 -0.12617941450E+04  0.12617941450E+04  0.00000000000E+00 0.  1.
         25    1    1    2    0    0  0.15575663581E+03  0.72559102758E+02 -0.38360331143E+03  0.43852189630E+03  0.12500000000E+03 0.  0.
         25    1    1    2    0    0 -0.30505077437E+03  0.10641698704E+02 -0.26398536659E+03  0.42247188601E+03  0.12500000000E+03 0.  0.
         25    1    1    2    0    0  0.14929413855E+03 -0.83200801462E+02 -0.48541628646E+03  0.52958954326E+03  0.12500000000E+03 0.  0.
</event>
<event>
 5    0  0.5576108E-005  0.2252106E+03  0.7546771E-02  0.1130057E+00
         21   -1    0    0  502  501  0.00000000000E+00  0.00000000000E+00  0.44740567117E+03  0.44740567117E+03  0.00000000000E+00 0. -1.
         21   -1    0    0  501  502 -0.00000000000E+00 -0.00000000000E+00 -0.11336421767E+03  0.11336421767E+03  0.00000000000E+00 0. -1.
         25    1    1    2    0    0 -0.41191009893E+02  0.83447148508E+02  0.54130973120E+02  0.16497056750E+03  0.12500000000E+03 0.  0.
         25    1    1    2    0    0  0.42273178385E+02 -0.25263219350E+02  0.92430052320E+02  0.16307533975E+03  0.12500000000E+03 0.  0.
         25    1    1    2    0    0 -0.10821684914E+01 -0.58183929158E+02  0.18748042806E+03  0.23272398159E+03  0.12500000000E+03 0.  0.
</event>
<event>
 5    0  0.5576108E-005  0.3589812E+03  0.7546771E-02  0.1058988E+00
         21   -1    0    0  502  501  0.00000000000E+00  0.00000000000E+00  0.12035578740E+04  0.12035578740E+04  0.00000000000E+00 0. -1.
         21   -1    0    0  501  502 -0.00000000000E+00 -0.00000000000E+00 -0.10707212118E+03  0.10707212118E+03  0.00000000000E+00 0. -1.
         25    1    1    2    0    0 -0.22018988017E+03  0.50429473267E+02  0.60729041121E+03  0.65988889871E+03  0.12500000000E+03 0.  0.
         25    1    1    2    0    0 -0.31565623740E+02  0.35252517544E+02  0.12740427529E+03  0.18465096251E+03  0.12500000000E+03 0.  0.
         25    1    1    2    0    0  0.25175550391E+03 -0.85681990811E+02  0.36179106631E+03  0.46609013395E+03  0.12500000000E+03 0.  0.
</event>
<event>
 5    0  0.5576108E-005  0.3621412E+03  0.7546771E-02  0.1057739E+00
         21   -1    0    0  502  501  0.00000000000E+00  0.00000000000E+00  0.91882400809E+03  0.91882400809E+03  0.00000000000E+00 0. -1.
         21   -1    0    0  501  502 -0.00000000000E+00 -0.00000000000E+00 -0.14273271125E+03  0.14273271125E+03  0.00000000000E+00 0. -1.
         25    1    1    2    0    0 -0.10364859298E+03 -0.34544241435E+02  0.32728788497E+03  0.36698596035E+03  0.12500000000E+03 0.  0.
         25    1    1    2    0    0  0.24265476214E+03  0.14382979027E+03  0.30993457089E+03  0.43732457099E+03  0.12500000000E+03 0.  0.
         25    1    1    2    0    0 -0.13900616916E+03 -0.10928554884E+03  0.13886884097E+03  0.25724618801E+03  0.12500000000E+03 0.  0.
</event>
<event>
 5    0  0.5576108E-005  0.7607167E+03  0.7546771E-02  0.9618686E-01
         21   -1    0    0  502  501  0.00000000000E+00  0.00000000000E+00  0.79978432202E+03  0.79978432202E+03  0.00000000000E+00 0. -1.
         21   -1    0    0  501  502 -0.00000000000E+00 -0.00000000000E+00 -0.72355739566E+03  0.72355739566E+03  0.00000000000E+00 0. -1.
         25    1    1    2    0    0  0.29990748094E+03 -0.21550869275E+03  0.15358707763E+03  0.41904950088E+03  0.12500000000E+03 0.  0.
         25    1    1    2    0    0 -0.50238385723E+03 -0.10424768741E+03 -0.33897493213E+03  0.62752380429E+03  0.12500000000E+03 0.  0.
         25    1    1    2    0    0  0.20247637629E+03  0.31975638015E+03  0.26161478086E+03  0.47676841251E+03  0.12500000000E+03 0.  0.
</event>
<event>
 5    0  0.5576108E-005  0.2245929E+03  0.7546771E-02  0.1130504E+00
         21   -1    0    0  502  501  0.00000000000E+00  0.00000000000E+00  0.45949264533E+03  0.45949264533E+03  0.00000000000E+00 0.  1.
         21   -1    0    0  501  502 -0.00000000000E+00 -0.00000000000E+00 -0.10977752226E+03  0.10977752226E+03  0.00000000000E+00 0.  1.
         25    1    1    2    0    0  0.23827884170E+02  0.14669517934E+01  0.14837985018E+03  0.19547762008E+03  0.12500000000E+03 0.  0.
         25    1    1    2    0    0  0.41058219749E+02 -0.11592898420E+02  0.52840976305E+01  0.13218583279E+03  0.12500000000E+03 0.  0.
         25    1    1    2    0    0 -0.64886103918E+02  0.10125946626E+02  0.19605117527E+03  0.24160671472E+03  0.12500000000E+03 0.  0.
</event>
<event>
 5    0  0.5576108E-005  0.3777651E+03  0.7546771E-02  0.1051763E+00
         21   -1    0    0  502  501  0.00000000000E+00  0.00000000000E+00  0.17603194163E+03  0.17603194163E+03  0.00000000000E+00 0.  1.
         21   -1    0    0  501  502 -0.00000000000E+00 -0.00000000000E+00 -0.81068526040E+03  0.81068526040E+03  0.00000000000E+00 0.  1.
         25    1    1    2    0    0 -0.40028297037E+02 -0.10552157611E+03 -0.20312776373E+02  0.16963100092E+03  0.12500000000E+03 0.  0.
         25    1    1    2    0    0 -0.15870333149E+03  0.75632771092E+02 -0.75470517556E+02  0.22853416049E+03  0.12500000000E+03 0.  0.
         25    1    1    2    0    0  0.19873162853E+03  0.29888805015E+02 -0.53887002484E+03  0.58855204062E+03  0.12500000000E+03 0.  0.
</event>
