<event>
 4    0  0.2168146E-002  0.2229621E+03  0.7546771E-02  0.1131694E+00
         21   -1    0    0  502  501  0.00000000000E+00  0.00000000000E+00  0.42603140794E+02  0.42603140794E+02  0.00000000000E+00 0.  1.
         21   -1    0    0  501  502 -0.00000000000E+00 -0.00000000000E+00 -0.11668644169E+04  0.11668644169E+04  0.00000000000E+00 0.  1.
         25    1    1    2    0    0  0.16700156667E+03 -0.51793836194E+02 -0.40132781084E+03  0.45525941670E+03  0.12500000000E+03 0.  0.
         25    1    1    2    0    0 -0.16700156667E+03  0.51793836194E+02 -0.72293346524E+03  0.75420814097E+03  0.12500000000E+03 0.  0.
</event>
<event>
 4    0  0.2168146E-002  0.1698594E+03  0.7546771E-02  0.1177995E+00
         21   -1    0    0  502  501  0.00000000000E+00  0.00000000000E+00  0.36184575730E+02  0.36184575730E+02  0.00000000000E+00 0. -1.
         21   -1    0    0  501  502 -0.00000000000E+00 -0.00000000000E+00 -0.79736234359E+03  0.79736234359E+03  0.00000000000E+00 0. -1.
         25    1    1    2    0    0  0.41614850077E+02  0.95936564468E+02 -0.26313167818E+03  0.30951397418E+03  0.12500000000E+03 0.  0.
         25    1    1    2    0    0 -0.41614850077E+02 -0.95936564468E+02 -0.49804608968E+03  0.52403294514E+03  0.12500000000E+03 0.  0.
</event>
<event>
 4    0  0.2168146E-002  0.2393391E+03  0.7546771E-02  0.1120234E+00
         21   -1    0    0  502  501  0.00000000000E+00  0.00000000000E+00  0.92461825585E+02  0.92461825585E+02  0.00000000000E+00 0.  1.
         21   -1    0    0  501  502 -0.00000000000E+00 -0.00000000000E+00 -0.61953365193E+03  0.61953365193E+03  0.00000000000E+00 0.  1.
         25    1    1    2    0    0  0.16025363546E+02  0.19220049978E+03 -0.36287471240E+03  0.42953568104E+03  0.12500000000E+03 0.  0.
         25    1    1    2    0    0 -0.16025363546E+02 -0.19220049978E+03 -0.16419711395E+03  0.28245979647E+03  0.12500000000E+03 0.  0.
</event>
<event>
 4    0  0.2168146E-002  0.1960372E+03  0.7546771E-02  0.1153126E+00
         21   -1    0    0  502  501  0.00000000000E+00  0.00000000000E+00  0.10206106701E+04  0.10206106701E+04  0.00000000000E+00 0. -1.
         21   -1    0    0  501  502 -0.00000000000E+00 -0.00000000000E+00 -0.37654509813E+02  0.37654509813E+02  0.00000000000E+00 0. -1.
         25    1    1    2    0    0  0.13026182839E+03 -0.37936126149E+02  0.31247173397E+03  0.36286482075E+03  0.12500000000E+03 0.  0.
         25    1    1    2    0    0 -0.13026182839E+03  0.37936126149E+02  0.67048442631E+03  0.69540035917E+03  0.12500000000E+03 0.  0.
</event>
<event>
 4    0  0.2168146E-002  0.2124719E+03  0.7546771E-02  0.1139623E+00
         21   -1    0    0  502  501  0.00000000000E+00  0.00000000000E+00  0.94390849975E+02  0.94390849975E+02  0.00000000000E+00 0.  1.
         21   -1    0    0  501  502 -0.00000000000E+00 -0.00000000000E+00 -0.47826975813E+03  0.47826975813E+03  0.00000000000E+00 0.  1.
         25    1    1    2    0    0  0.10112840542E+03  0.13741580553E+03 -0.16467792790E+03  0.26805573661E+03  0.12500000000E+03 0.  0.
         25    1    1    2    0    0 -0.10112840542E+03 -0.13741580553E+03 -0.21920098026E+03  0.30460487150E+03  0.12500000000E+03 0.  0.
</event>
<event>
 4    0  0.2168146E-002  0.1629388E+03  0.7546771E-02  0.1185418E+00
         21   -1    0    0  502  501  0.00000000000E+00  0.00000000000E+00  0.16306626321E+03  0.16306626321E+03  0.00000000000E+00 0.  1.
         21   -1    0    0  501  502 -0.00000000000E+00 -0.00000000000E+00 -0.16281134394E+03  0.16281134394E+03  0.00000000000E+00 0.  1.
         25    1    1    2    0    0  0.18982246431E+02  0.92461627730E+02  0.45011314365E+02  0.16297391418E+03  0.12500000000E+03 0.  0.
         25    1    1    2    0    0 -0.18982246431E+02 -0.92461627730E+02 -0.44756395087E+02  0.16290369297E+03  0.12500000000E+03 0.  0.
</event>
<event>
 4    0  0.2168146E-002  0.2015851E+03  0.7546771E-02  0.1148409E+00
         21   -1    0    0  502  501  0.00000000000E+00  0.00000000000E+00  0.11305416761E+03  0.11305416761E+03  0.00000000000E+00 0. -1.
         21   -1    0    0  501  502 -0.00000000000E+00 -0.00000000000E+00 -0.35944309980E+03  0.35944309980E+03  0.00000000000E+00 0. -1.
         25    1    1    2    0    0  0.71485767497E+01  0.89488891382E+02 -0.27578362389E+03  0.31581793970E+03  0.12500000000E+03 0.  0.
         25    1    1    2    0    0 -0.71485767497E+01 -0.89488891382E+02  0.29394691705E+02  0.15667932771E+03  0.12500000000E+03 0.  0.
</event>
<event>
 4    0  0.2168146E-002  0.3201934E+03  0.7546771E-02  0.1075560E+00
         21   -1    0    0  502  501  0.00000000000E+00  0.00000000000E+00  0.12273007389E+03  0.12273007389E+03  0.00000000000E+00 0. -1.
         21   -1    0    0  501  502 -0.00000000000E+00 -0.00000000000E+00 -0.83536038248E+03  0.83536038248E+03  0.00000000000E+00 0. -1.
         25    1    1    2    0    0 -0.20697663966E+03  0.51755046453E+02 -0.51971541045E+02  0.25267361412E+03  0.12500000000E+03 0.  0.
         25    1    1    2    0    0  0.20697663966E+03 -0.51755046453E+02 -0.66065876754E+03  0.70541684224E+03  0.12500000000E+03 0.  0.
</event>
<event>
 4    0  0.2168146E-002  0.2003813E+03  0.7546771E-02  0.1149418E+00
         21   -1    0    0  502  501  0.00000000000E+00  0.00000000000E+00  0.99778787352E+02  0.99778787352E+02  0.00000000000E+00 0. -1.
         21   -1    0    0  501  502 -0.00000000000E+00 -0.00000000000E+00 -0.40241676404E+03  0.40241676404E+03  0.00000000000E+00 0. -1.
         25    1    1    2    0    0  0.89590883703E+01  0.14419903571E+03 -0.22706708958E+03  0.29674583457E+03  0.12500000000E+03 0.  0.
         25    1    1    2    0    0 -0.89590883703E+01 -0.14419903571E+03 -0.75570887112E+02  0.20544971682E+03  0.12500000000E+03 0.  0.
</event>
<event>
 4    0  0.2168146E-002  0.2741657E+03  0.7546771E-02  0.1098919E+00
         21   -1    0    0  502  501  0.00000000000E+00  0.00000000000E+00  0.34078534339E+03  0.34078534339E+03  0.00000000000E+00 0.  1.
         21   -1    0    0  501  502 -0.00000000000E+00 -0.00000000000E+00 -0.22056936626E+03  0.22056936626E+03  0.00000000000E+00 0.  1.
         25    1    1    2    0    0 -0.51003721849E+02 -0.19929439803E+02 -0.18332794660E+03  0.22854474008E+03  0.12500000000E+03 0.  0.
         25    1    1    2    0    0  0.51003721849E+02  0.19929439803E+02  0.30354392373E+03  0.33280996957E+03  0.12500000000E+03 0.  0.
</event>
<event>
 4    0  0.2168146E-002  0.2381337E+03  0.7546771E-02  0.1121042E+00
         21   -1    0    0  502  501  0.00000000000E+00  0.00000000000E+00  0.23762324719E+03  0.23762324719E+03  0.00000000000E+00 0.  1.
         21   -1    0    0  501  502 -0.00000000000E+00 -0.00000000000E+00 -0.23864523406E+03  0.23864523406E+03  0.00000000000E+00 0.  1.
         25    1    1    2    0    0 -0.14115849693E+03  0.13639486776E+03  0.50020046460E+02  0.23802581006E+03  0.12500000000E+03 0.  0.
         25    1    1    2    0    0  0.14115849693E+03 -0.13639486776E+03 -0.51042033336E+02  0.23824267119E+03  0.12500000000E+03 0.  0.
</event>
<event>
 4    0  0.2168146E-002  0.1765729E+03  0.7546771E-02  0.1171162E+00
         21   -1    0    0  502  501  0.00000000000E+00  0.00000000000E+00  0.10761045578E+04  0.10761045578E+04  0.00000000000E+00 0. -1.
         21   -1    0    0  501  502 -0.00000000000E+00 -0.00000000000E+00 -0.28973012450E+02  0.28973012450E+02  0.00000000000E+00 0. -1.
         25    1    1    2    0    0 -0.65465486497E+02 -0.98090794493E+02  0.39663060605E+03  0.43225961128E+03  0.12500000000E+03 0.  0.
         25    1    1    2    0    0  0.65465486497E+02  0.98090794493E+02  0.65050093931E+03  0.67281795899E+03  0.12500000000E+03 0.  0.
</event>
<event>
 4    0  0.2168146E-002  0.1695236E+03  0.7546771E-02  0.1178346E+00
         21   -1    0    0  502  501  0.00000000000E+00  0.00000000000E+00  0.46589045863E+03  0.46589045863E+03  0.00000000000E+00 0.  1.
         21   -1    0    0  501  502 -0.00000000000E+00 -0.00000000000E+00 -0.61684555551E+02  0.61684555551E+02  0.00000000000E+00 0.  1.
         25    1    1    2    0    0 -0.90895774785E+01 -0.84643910397E+02  0.82924872943E+02  0.17247824947E+03  0.12500000000E+03 0.  0.
         25    1    1    2    0    0  0.90895774785E+01  0.84643910397E+02  0.32128103013E+03  0.35509676471E+03  0.12500000000E+03 0.  0.
</event>
<event>
 4    0  0.2168146E-002  0.2067404E+03  0.7546771E-02  0.1144174E+00
         21   -1    0    0  502  501  0.00000000000E+00  0.00000000000E+00  0.79284323958E+03  0.79284323958E+03  0.00000000000E+00 0.  1.
         21   -1    0    0  501  502 -0.00000000000E+00 -0.00000000000E+00 -0.53909284392E+02  0.53909284392E+02  0.00000000000E+00 0.  1.
         25    1    1    2    0    0  0.12821173275E+03  0.58639608462E+02  0.19522085237E+03  0.27131721894E+03  0.12500000000E+03 0.  0.
         25    1    1    2    0    0 -0.12821173275E+03 -0.58639608462E+02  0.54371310282E+03  0.57543530503E+03  0.12500000000E+03 0.  0.
</event>
<event>
 4    0  0.2168146E-002  0.2196885E+03  0.7546771E-02  0.1134116E+00
         21   -1    0    0  502  501  0.00000000000E+00  0.00000000000E+00  0.47986644548E+03  0.47986644548E+03  0.00000000000E+00 0. -1.
         21   -1    0    0  501  502 -0.00000000000E+00 -0.00000000000E+00 -0.10057595274E+03  0.10057595274E+03  0.00000000000E+00 0. -1.
         25    1    1    2    0    0 -0.73405742061E+02 -0.12313661681E+03  0.33488350880E+03  0.38512724369E+03  0.12500000000E+03 0.  0.
         25    1    1    2    0    0  0.73405742061E+02  0.12313661681E+03  0.44406983934E+02  0.19531515453E+03  0.12500000000E+03 0.  0.
</event>
<event>
 4    0  0.2168146E-002  0.2929264E+03  0.7546771E-02  0.1088831E+00
         21   -1    0    0  502  501  0.00000000000E+00  0.00000000000E+00  0.39908338338E+03  0.39908338338E+03  0.00000000000E+00 0. -1.
         21   -1    0    0  501  502 -0.00000000000E+00 -0.00000000000E+00 -0.21500731880E+03  0.21500731880E+03  0.00000000000E+00 0. -1.
         25    1    1    2    0    0 -0.19731913165E+03  0.59130308400E+02 -0.82573355459E+02  0.25470491185E+03  0.12500000000E+03 0.  0.
         25    1    1    2    0    0  0.19731913165E+03 -0.59130308400E+02  0.26664942004E+03  0.35938579034E+03  0.12500000000E+03 0.  0.
</event>
<event>
 4    0  0.2168146E-002  0.2324634E+03  0.7546771E-02  0.1124918E+00
         21   -1    0    0  502  501  0.00000000000E+00  0.00000000000E+00  0.42667859851E+02  0.42667859851E+02  0.00000000000E+00 0. -1.
         21   -1    0    0  501  502 -0.00000000000E+00 -0.00000000000E+00 -0.12665092116E+04  0.12665092116E+04  0.00000000000E+00 0. -1.
         25    1    1    2    0    0  0.18246069373E+02 -0.18367605571E+03 -0.79752151830E+03  0.82809141080E+03  0.12500000000E+03 0.  0.
         25    1    1    2    0    0 -0.18246069373E+02  0.18367605571E+03 -0.42631983343E+03  0.48108566063E+03  0.12500000000E+03 0.  0.
</event>
<event>
 4    0  0.2168146E-002  0.1809172E+03  0.7546771E-02  0.1166918E+00
         21   -1    0    0  502  501  0.00000000000E+00  0.00000000000E+00  0.12502308306E+03  0.12502308306E+03  0.00000000000E+00 0.  1.
         21   -1    0    0  501  502 -0.00000000000E+00 -0.00000000000E+00 -0.26180002453E+03  0.26180002453E+03  0.00000000000E+00 0.  1.
         25    1    1    2    0    0  0.73544931495E+02 -0.92998157296E+02 -0.93618596558E+01  0.17254031015E+03  0.12500000000E+03 0.  0.
         25    1    1    2    0    0 -0.73544931495E+02  0.92998157296E+02 -0.12741508181E+03  0.21428279745E+03  0.12500000000E+03 0.  0.
</event>
<event>
 4    0  0.2168146E-002  0.1677141E+03  0.7546771E-02  0.1180253E+00
         21   -1    0    0  502  501  0.00000000000E+00  0.00000000000E+00  0.61159448873E+02  0.61159448873E+02  0.00000000000E+00 0.  1.
         21   -1    0    0  501  502 -0.00000000000E+00 -0.00000000000E+00 -0.45991291111E+03  0.45991291111E+03  0.00000000000E+00 0.  1.
         25    1    1    2    0    0  0.38203188721E+01 -0.24698000712E+02 -0.36868495548E+03  0.39010022106E+03  0.12500000000E+03 0.  0.
         25    1    1    2    0    0 -0.38203188721E+01  0.24698000712E+02 -0.30068506758E+02  0.13097213892E+03  0.12500000000E+03 0.  0.
</event>
<event>
 4    0  0.2168146E-002  0.2741656E+03  0.7546771E-02  0.1098919E+00
         21   -1    0    0  502  501  0.00000000000E+00  0.00000000000E+00  0.30561533794E+03  0.30561533794E+03  0.00000000000E+00 0.  1.
         21   -1    0    0  501  502 -0.00000000000E+00 -0.00000000000E+00 -0.24595230409E+03  0.24595230409E+03  0.00000000000E+00 0.  1.
         25    1    1    2    0    0 -0.23761300814E+02  0.23821091700E+02  0.27293906735E+03  0.30208074800E+03  0.12500000000E+03 0.  0.
         25    1    1    2    0    0  0.23761300814E+02 -0.23821091700E+02 -0.21327603350E+03  0.24948689403E+03  0.12500000000E+03 0.  0.
</event>
<event>
 4    0  0.2168146E-002  0.2005346E+03  0.7546771E-02  0.1149289E+00
         21   -1    0    0  502  501  0.00000000000E+00  0.00000000000E+00  0.37398591077E+03  0.37398591077E+03  0.00000000000E+00 0. -1.
         21   -1    0    0  501  502 -0.00000000000E+00 -0.00000000000E+00 -0.10752849573E+03  0.10752849573E+03  0.00000000000E+00 0. -1.
         25    1    1    2    0    0 -0.13987673434E+03 -0.80622716129E+01  0.48686957424E+02  0.19397402109E+03  0.12500000000E+03 0.  0.
         25    1    1    2    0    0  0.13987673434E+03  0.80622716129E+01  0.21777045762E+03  0.28754038541E+03  0.12500000000E+03 0.  0.
</event>
<event>
 4    0  0.2168146E-002  0.1681239E+03  0.7546771E-02  0.1179819E+00
         21   -1    0    0  502  501  0.00000000000E+00  0.00000000000E+00  0.11066196870E+03  0.11066196870E+03  0.00000000000E+00 0. -1.
         21   -1    0    0  501  502 -0.00000000000E+00 -0.00000000000E+00 -0.25542340556E+03  0.25542340556E+03  0.00000000000E+00 0. -1.
         25    1    1    2    0    0 -0.28828638003E+02 -0.82758163987E+02 -0.14906251131E+03  0.21336503077E+03  0.12500000000E+03 0.  0.
         25    1    1    2    0    0  0.28828638003E+02  0.82758163987E+02  0.43010744491E+01  0.15272034349E+03  0.12500000000E+03 0.  0.
</event>
<event>
 4    0  0.2168146E-002  0.1455720E+03  0.7546771E-02  0.1206022E+00
         21   -1    0    0  502  501  0.00000000000E+00  0.00000000000E+00  0.49838391693E+03  0.49838391693E+03  0.00000000000E+00 0.  1.
         21   -1    0    0  501  502 -0.00000000000E+00 -0.00000000000E+00 -0.42519871388E+02  0.42519871388E+02  0.00000000000E+00 0.  1.
         25    1    1    2    0    0  0.36025473521E+02  0.38827590945E+02  0.32554999778E+03  0.35272257883E+03  0.12500000000E+03 0.  0.
         25    1    1    2    0    0 -0.36025473521E+02 -0.38827590945E+02  0.13031404776E+03  0.18818120949E+03  0.12500000000E+03 0.  0.
</event>
<event>
 4    0  0.2168146E-002  0.2536024E+03  0.7546771E-02  0.1111049E+00
         21   -1    0    0  502  501  0.00000000000E+00  0.00000000000E+00  0.78342908590E+02  0.78342908590E+02  0.00000000000E+00 0.  1.
         21   -1    0    0  501  502 -0.00000000000E+00 -0.00000000000E+00 -0.82093188050E+03  0.82093188050E+03  0.00000000000E+00 0.  1.
         25    1    1    2    0    0 -0.15603168442E+02 -0.21422311760E+03 -0.46090015176E+03  0.52363054998E+03  0.12500000000E+03 0.  0.
         25    1    1    2    0    0  0.15603168442E+02  0.21422311760E+03 -0.28168882015E+03  0.37564423911E+03  0.12500000000E+03 0.  0.
</event>
<event>
 4    0  0.2168146E-002  0.2272892E+03  0.7546771E-02  0.1128562E+00
         21   -1    0    0  502  501  0.00000000000E+00  0.00000000000E+00  0.56804165099E+02  0.56804165099E+02  0.00000000000E+00 0.  1.
         21   -1    0    0  501  502 -0.00000000000E+00 -0.00000000000E+00 -0.90944714683E+03  0.90944714683E+03  0.00000000000E+00 0.  1.
         25    1    1    2    0    0 -0.15971586941E+03 -0.69030764452E+02 -0.26498616135E+03  0.34075955025E+03  0.12500000000E+03 0.  0.
         25    1    1    2    0    0  0.15971586941E+03  0.69030764452E+02 -0.58765682038E+03  0.62549176167E+03  0.12500000000E+03 0.  0.
</event>
<event>
 4    0  0.2168146E-002  0.1653188E+03  0.7546771E-02  0.1182819E+00
         21   -1    0    0  502  501  0.00000000000E+00  0.00000000000E+00  0.12087493568E+03  0.12087493568E+03  0.00000000000E+00 0.  1.
         21   -1    0    0  501  502 -0.00000000000E+00 -0.00000000000E+00 -0.22610407676E+03  0.22610407676E+03  0.00000000000E+00 0.  1.
         25    1    1    2    0    0  0.18105340702E+02  0.52092995485E+02  0.45065486052E+02  0.14386584575E+03  0.12500000000E+03 0.  0.
         25    1    1    2    0    0 -0.18105340702E+02 -0.52092995485E+02 -0.15029462713E+03  0.20311316669E+03  0.12500000000E+03 0.  0.
</event>
<event>
 4    0  0.2168146E-002  0.2762781E+03  0.7546771E-02  0.1097739E+00
         21   -1    0    0  502  501  0.00000000000E+00  0.00000000000E+00  0.45919035815E+02  0.45919035815E+02  0.00000000000E+00 0. -1.
         21   -1    0    0  501  502 -0.00000000000E+00 -0.00000000000E+00 -0.16622641179E+04  0.16622641179E+04  0.00000000000E+00 0. -1.
         25    1    1    2    0    0  0.19100699413E+03  0.62134020984E+02 -0.12492853546E+04  0.12714885787E+04  0.12500000000E+03 0.  0.
         25    1    1    2    0    0 -0.19100699413E+03 -0.62134020984E+02 -0.36705972750E+03  0.43669457510E+03  0.12500000000E+03 0.  0.
</event>
<event>
 4    0  0.2168146E-002  0.2290482E+03  0.7546771E-02  0.1127312E+00
         21   -1    0    0  502  501  0.00000000000E+00  0.00000000000E+00  0.13408517711E+03  0.13408517711E+03  0.00000000000E+00 0.  1.
         21   -1    0    0  501  502 -0.00000000000E+00 -0.00000000000E+00 -0.39126665789E+03  0.39126665789E+03  0.00000000000E+00 0.  1.
         25    1    1    2    0    0 -0.93563089102E+02  0.15632648500E+03 -0.19783822810E+03  0.29657543063E+03  0.12500000000E+03 0.  0.
         25    1    1    2    0    0  0.93563089102E+02 -0.15632648500E+03 -0.59343252679E+02  0.22877640436E+03  0.12500000000E+03 0.  0.
</event>
<event>
 4    0  0.2168146E-002  0.2119759E+03  0.7546771E-02  0.1140011E+00
         21   -1    0    0  502  501  0.00000000000E+00  0.00000000000E+00  0.35801818904E+02  0.35801818904E+02  0.00000000000E+00 0.  1.
         21   -1    0    0  501  502 -0.00000000000E+00 -0.00000000000E+00 -0.12550696684E+04  0.12550696684E+04  0.00000000000E+00 0.  1.
         25    1    1    2    0    0 -0.33479984542E+02 -0.16733664480E+02 -0.11182964654E+04  0.11258831687E+04  0.12500000000E+03 0.  0.
         25    1    1    2    0    0  0.33479984542E+02  0.16733664480E+02 -0.10097138411E+03  0.16498831868E+03  0.12500000000E+03 0.  0.
</event>
<event>
 4    0  0.2168146E-002  0.2175341E+03  0.7546771E-02  0.1135735E+00
         21   -1    0    0  502  501  0.00000000000E+00  0.00000000000E+00  0.14133458290E+04  0.14133458290E+04  0.00000000000E+00 0.  1.
         21   -1    0    0  501  502 -0.00000000000E+00 -0.00000000000E+00 -0.33481615643E+02  0.33481615643E+02  0.00000000000E+00 0.  1.
         25    1    1    2    0    0  0.37453287414E+02  0.16379751652E+03  0.49421394647E+03  0.53675394739E+03  0.12500000000E+03 0.  0.
         25    1    1    2    0    0 -0.37453287414E+02 -0.16379751652E+03  0.88565026687E+03  0.91007349723E+03  0.12500000000E+03 0.  0.
</event>
<event>
 4    0  0.2168146E-002  0.1628544E+03  0.7546771E-02  0.1185511E+00
         21   -1    0    0  502  501  0.00000000000E+00  0.00000000000E+00  0.40459509451E+02  0.40459509451E+02  0.00000000000E+00 0.  1.
         21   -1    0    0  501  502 -0.00000000000E+00 -0.00000000000E+00 -0.65550884479E+03  0.65550884479E+03  0.00000000000E+00 0.  1.
         25    1    1    2    0    0  0.50406818874E+01  0.69761227568E+02 -0.47310142926E+03  0.49430961928E+03  0.12500000000E+03 0.  0.
         25    1    1    2    0    0 -0.50406818874E+01 -0.69761227568E+02 -0.14194790608E+03  0.20165873496E+03  0.12500000000E+03 0.  0.
</event>
<event>
 4    0  0.2168146E-002  0.1670246E+03  0.7546771E-02  0.1180987E+00
         21   -1    0    0  502  501  0.00000000000E+00  0.00000000000E+00  0.13216406017E+03  0.13216406017E+03  0.00000000000E+00 0.  1.
         21   -1    0    0  501  502 -0.00000000000E+00 -0.00000000000E+00 -0.21108028852E+03  0.21108028852E+03  0.00000000000E+00 0.  1.
         25    1    1    2    0    0  0.20139852056E+02  0.61151536833E+02  0.53173829980E+02  0.15032491574E+03  0.12500000000E+03 0.  0.
         25    1    1    2    0    0 -0.20139852056E+02 -0.61151536833E+02 -0.13209005833E+03  0.19291943294E+03  0.12500000000E+03 0.  0.
</event>
<event>
 4    0  0.2168146E-002  0.2116651E+03  0.7546771E-02  0.1140254E+00
         21   -1    0    0  502  501  0.00000000000E+00  0.00000000000E+00  0.67960415386E+02  0.67960415386E+02  0.00000000000E+00 0. -1.
         21   -1    0    0  501  502 -0.00000000000E+00 -0.00000000000E+00 -0.65923850946E+03  0.65923850946E+03  0.00000000000E+00 0. -1.
         25    1    1    2    0    0 -0.10464325345E+03  0.34313312797E+02 -0.71338736866E+02  0.18122314782E+03  0.12500000000E+03 0.  0.
         25    1    1    2    0    0  0.10464325345E+03 -0.34313312797E+02 -0.51993935721E+03  0.54597577703E+03  0.12500000000E+03 0.  0.
</event>
<event>
 4    0  0.2168146E-002  0.1787810E+03  0.7546771E-02  0.1168988E+00
         21   -1    0    0  502  501  0.00000000000E+00  0.00000000000E+00  0.66022837552E+03  0.66022837552E+03  0.00000000000E+00 0.  1.
         21   -1    0    0  501  502 -0.00000000000E+00 -0.00000000000E+00 -0.48411504001E+02  0.48411504001E+02  0.00000000000E+00 0.  1.
         25    1    1    2    0    0 -0.95052684535E+02 -0.81464019907E+02  0.25475290617E+03  0.31015390144E+03  0.12500000000E+03 0.  0.
         25    1    1    2    0    0  0.95052684535E+02  0.81464019907E+02  0.35706396535E+03  0.39848597808E+03  0.12500000000E+03 0.  0.
</event>
<event>
 4    0  0.2168146E-002  0.2112687E+03  0.7546771E-02  0.1140565E+00
         21   -1    0    0  502  501  0.00000000000E+00  0.00000000000E+00  0.20664976778E+03  0.20664976778E+03  0.00000000000E+00 0.  1.
         21   -1    0    0  501  502 -0.00000000000E+00 -0.00000000000E+00 -0.21599081046E+03  0.21599081046E+03  0.00000000000E+00 0.  1.
         25    1    1    2    0    0 -0.10411655250E+03 -0.12986996129E+03  0.31435216038E+02  0.21052229373E+03  0.12500000000E+03 0.  0.
         25    1    1    2    0    0  0.10411655250E+03  0.12986996129E+03 -0.40776258721E+02  0.21211828451E+03  0.12500000000E+03 0.  0.
</event>
<event>
 4    0  0.2168146E-002  0.1938952E+03  0.7546771E-02  0.1154994E+00
         21   -1    0    0  502  501  0.00000000000E+00  0.00000000000E+00  0.21250657719E+03  0.21250657719E+03  0.00000000000E+00 0. -1.
         21   -1    0    0  501  502 -0.00000000000E+00 -0.00000000000E+00 -0.17691374019E+03  0.17691374019E+03  0.00000000000E+00 0. -1.
         25    1    1    2    0    0 -0.12223212473E+03 -0.50972504291E+02  0.84645326330E+02  0.20082011796E+03  0.12500000000E+03 0.  0.
         25    1    1    2    0    0  0.12223212473E+03  0.50972504291E+02 -0.49052489330E+02  0.18860019941E+03  0.12500000000E+03 0.  0.
</event>
<event>
 4    0  0.2168146E-002  0.1725838E+03  0.7546771E-02  0.1175180E+00
         21   -1    0    0  502  501  0.00000000000E+00  0.00000000000E+00  0.12607450908E+03  0.12607450908E+03  0.00000000000E+00 0.  1.
         21   -1    0    0  501  502 -0.00000000000E+00 -0.00000000000E+00 -0.23625059842E+03  0.23625059842E+03  0.00000000000E+00 0.  1.
         25    1    1    2    0    0 -0.75004934028E+01  0.11536538569E+03 -0.25495438226E+02  0.17216401188E+03  0.12500000000E+03 0.  0.
         25    1    1    2    0    0  0.75004934028E+01 -0.11536538569E+03 -0.84680651110E+02  0.19016109562E+03  0.12500000000E+03 0.  0.
</event>
<event>
 4    0  0.2168146E-002  0.1905812E+03  0.7546771E-02  0.1157938E+00
         21   -1    0    0  502  501  0.00000000000E+00  0.00000000000E+00  0.12302814007E+04  0.12302814007E+04  0.00000000000E+00 0. -1.
         21   -1    0    0  501  502 -0.00000000000E+00 -0.00000000000E+00 -0.29522660523E+02  0.29522660523E+02  0.00000000000E+00 0. -1.
         25    1    1    2    0    0 -0.85721709918E+02  0.11239723571E+02  0.22033382078E+03  0.26766870478E+03  0.12500000000E+03 0.  0.
         25    1    1    2    0    0  0.85721709918E+02 -0.11239723571E+02  0.98042491940E+03  0.99213535645E+03  0.12500000000E+03 0.  0.
</event>
<event>
 4    0  0.2168146E-002  0.2526738E+03  0.7546771E-02  0.1111627E+00
         21   -1    0    0  502  501  0.00000000000E+00  0.00000000000E+00  0.67156509432E+02  0.67156509432E+02  0.00000000000E+00 0.  1.
         21   -1    0    0  501  502 -0.00000000000E+00 -0.00000000000E+00 -0.95067529124E+03  0.95067529124E+03  0.00000000000E+00 0.  1.
         25    1    1    2    0    0  0.20526299381E+03  0.30356190093E+02 -0.58650515241E+03  0.63456102048E+03  0.12500000000E+03 0.  0.
         25    1    1    2    0    0 -0.20526299381E+03 -0.30356190093E+02 -0.29701362940E+03  0.38327078020E+03  0.12500000000E+03 0.  0.
</event>
<event>
 4    0  0.2168146E-002  0.2152112E+03  0.7546771E-02  0.1137504E+00
         21   -1    0    0  502  501  0.00000000000E+00  0.00000000000E+00  0.12641040368E+03  0.12641040368E+03  0.00000000000E+00 0.  1.
         21   -1    0    0  501  502 -0.00000000000E+00 -0.00000000000E+00 -0.36639293484E+03  0.36639293484E+03  0.00000000000E+00 0.  1.
         25    1    1    2    0    0  0.51169681839E+02 -0.14956334373E+03 -0.20645692394E+03  0.28850821751E+03  0.12500000000E+03 0.  0.
         25    1    1    2    0    0 -0.51169681839E+02  0.14956334373E+03 -0.33525607220E+02  0.20429512101E+03  0.12500000000E+03 0.  0.
</event>
<event>
 4    0  0.2168146E-002  0.3552203E+03  0.7546771E-02  0.1060493E+00
         21   -1    0    0  502  501  0.00000000000E+00  0.00000000000E+00  0.20753128266E+03  0.20753128266E+03  0.00000000000E+00 0. -1.
         21   -1    0    0  501  502 -0.00000000000E+00 -0.00000000000E+00 -0.60801175899E+03  0.60801175899E+03  0.00000000000E+00 0. -1.
         25    1    1    2    0    0  0.59715389520E+02  0.22615799315E+03 -0.47151154219E+03  0.54098197754E+03  0.12500000000E+03 0.  0.
         25    1    1    2    0    0 -0.59715389520E+02 -0.22615799315E+03  0.71031065855E+02  0.27456106411E+03  0.12500000000E+03 0.  0.
</event>
<event>
 4    0  0.2168146E-002  0.5095529E+03  0.7546771E-02  0.1011315E+00
         21   -1    0    0  502  501  0.00000000000E+00  0.00000000000E+00  0.49978289251E+03  0.49978289251E+03  0.00000000000E+00 0.  1.
         21   -1    0    0  501  502 -0.00000000000E+00 -0.00000000000E+00 -0.51951394476E+03  0.51951394476E+03  0.00000000000E+00 0.  1.
         25    1    1    2    0    0 -0.44637765858E+03  0.20941732386E+03  0.20315489779E+02  0.50906418921E+03  0.12500000000E+03 0.  0.
         25    1    1    2    0    0  0.44637765858E+03 -0.20941732386E+03 -0.40046542029E+02  0.51023264805E+03  0.12500000000E+03 0.  0.
</event>
<event>
 4    0  0.2168146E-002  0.1831785E+03  0.7546771E-02  0.1164762E+00
         21   -1    0    0  502  501  0.00000000000E+00  0.00000000000E+00  0.13210435134E+04  0.13210435134E+04  0.00000000000E+00 0.  1.
         21   -1    0    0  501  502 -0.00000000000E+00 -0.00000000000E+00 -0.25399890682E+02  0.25399890682E+02  0.00000000000E+00 0.  1.
         25    1    1    2    0    0  0.10517992043E+03 -0.54894821490E+02  0.87595526394E+03  0.89274793840E+03  0.12500000000E+03 0.  0.
         25    1    1    2    0    0 -0.10517992043E+03  0.54894821490E+02  0.41968835877E+03  0.45369546568E+03  0.12500000000E+03 0.  0.
</event>
<event>
 4    0  0.2168146E-002  0.5960914E+03  0.7546771E-02  0.9913548E-01
         21   -1    0    0  502  501  0.00000000000E+00  0.00000000000E+00  0.60650540492E+03  0.60650540492E+03  0.00000000000E+00 0. -1.
         21   -1    0    0  501  502 -0.00000000000E+00 -0.00000000000E+00 -0.58585624558E+03  0.58585624558E+03  0.00000000000E+00 0. -1.
         25    1    1    2    0    0 -0.58826654024E+02 -0.10612137962E+03 -0.55982903981E+03  0.58630698124E+03  0.12500000000E+03 0.  0.
         25    1    1    2    0    0  0.58826654024E+02  0.10612137962E+03  0.58047819915E+03  0.60605466926E+03  0.12500000000E+03 0.  0.
</event>
<event>
 4    0  0.2168146E-002  0.2052407E+03  0.7546771E-02  0.1145391E+00
         21   -1    0    0  502  501  0.00000000000E+00  0.00000000000E+00  0.22981757389E+02  0.22981757389E+02  0.00000000000E+00 0. -1.
         21   -1    0    0  501  502 -0.00000000000E+00 -0.00000000000E+00 -0.18329203706E+04  0.18329203706E+04  0.00000000000E+00 0. -1.
         25    1    1    2    0    0  0.26977464518E+02  0.99431050568E+02 -0.33513675549E+03  0.37223106035E+03  0.12500000000E+03 0.  0.
         25    1    1    2    0    0 -0.26977464518E+02 -0.99431050568E+02 -0.14748018577E+04  0.14836710676E+04  0.12500000000E+03 0.  0.
</event>
<event>
 4    0  0.2168146E-002  0.2750043E+03  0.7546771E-02  0.1098449E+00
         21   -1    0    0  502  501  0.00000000000E+00  0.00000000000E+00  0.32260605956E+03  0.32260605956E+03  0.00000000000E+00 0. -1.
         21   -1    0    0  501  502 -0.00000000000E+00 -0.00000000000E+00 -0.23442643616E+03  0.23442643616E+03  0.00000000000E+00 0. -1.
         25    1    1    2    0    0  0.24734907231E+02  0.32718712564E+02  0.28866925961E+03  0.31723378009E+03  0.12500000000E+03 0.  0.
         25    1    1    2    0    0 -0.24734907231E+02 -0.32718712564E+02 -0.20048963622E+03  0.23979871563E+03  0.12500000000E+03 0.  0.
</event>
<event>
 4    0  0.2168146E-002  0.1879279E+03  0.7546771E-02  0.1160344E+00
         21   -1    0    0  502  501  0.00000000000E+00  0.00000000000E+00  0.57652788384E+02  0.57652788384E+02  0.00000000000E+00 0.  1.
         21   -1    0    0  501  502 -0.00000000000E+00 -0.00000000000E+00 -0.61257936531E+03  0.61257936531E+03  0.00000000000E+00 0.  1.
         25    1    1    2    0    0 -0.11538664403E+03 -0.60346265449E+02 -0.18418628202E+03  0.25788628474E+03  0.12500000000E+03 0.  0.
         25    1    1    2    0    0  0.11538664403E+03  0.60346265449E+02 -0.37074029491E+03  0.41234586896E+03  0.12500000000E+03 0.  0.
</event>
<event>
 4    0  0.2168146E-002  0.1873088E+03  0.7546771E-02  0.1160911E+00
         21   -1    0    0  502  501  0.00000000000E+00  0.00000000000E+00  0.22458689198E+03  0.22458689198E+03  0.00000000000E+00 0.  1.
         21   -1    0    0  501  502 -0.00000000000E+00 -0.00000000000E+00 -0.15621830669E+03  0.15621830669E+03  0.00000000000E+00 0.  1.
         25    1    1    2    0    0 -0.11993549617E+02  0.82589483336E+02 -0.79441755321E+02  0.17000253080E+03  0.12500000000E+03 0.  0.
         25    1    1    2    0    0  0.11993549617E+02 -0.82589483336E+02  0.14781034061E+03  0.21080266787E+03  0.12500000000E+03 0.  0.
</event>
<event>
 4    0  0.2168146E-002  0.1824781E+03  0.7546771E-02  0.1165426E+00
         21   -1    0    0  502  501  0.00000000000E+00  0.00000000000E+00  0.18305559638E+03  0.18305559638E+03  0.00000000000E+00 0. -1.
         21   -1    0    0  501  502 -0.00000000000E+00 -0.00000000000E+00 -0.18190247522E+03  0.18190247522E+03  0.00000000000E+00 0. -1.
         25    1    1    2    0    0 -0.34111911975E+02  0.11021631205E+03 -0.65469269341E+02  0.18227035746E+03  0.12500000000E+03 0.  0.
         25    1    1    2    0    0  0.34111911975E+02 -0.11021631205E+03  0.66622390494E+02  0.18268771414E+03  0.12500000000E+03 0.  0.
</event>
<event>
 4    0  0.2168146E-002  0.2248981E+03  0.7546771E-02  0.1130283E+00
         21   -1    0    0  502  501  0.00000000000E+00  0.00000000000E+00  0.17237519594E+04  0.17237519594E+04  0.00000000000E+00 0. -1.
         21   -1    0    0  501  502 -0.00000000000E+00 -0.00000000000E+00 -0.29342468523E+02  0.29342468523E+02  0.00000000000E+00 0. -1.
         25    1    1    2    0    0  0.30232703844E+02  0.21155619950E+02  0.15615549290E+04  0.15669844840E+04  0.12500000000E+03 0.  0.
         25    1    1    2    0    0 -0.30232703844E+02 -0.21155619950E+02  0.13285456189E+03  0.18610994399E+03  0.12500000000E+03 0.  0.
</event>
<event>
 4    0  0.2168146E-002  0.2206052E+03  0.7546771E-02  0.1133433E+00
         21   -1    0    0  502  501  0.00000000000E+00  0.00000000000E+00  0.37744930593E+03  0.37744930593E+03  0.00000000000E+00 0. -1.
         21   -1    0    0  501  502 -0.00000000000E+00 -0.00000000000E+00 -0.12893561871E+03  0.12893561871E+03  0.00000000000E+00 0. -1.
         25    1    1    2    0    0  0.30856021999E+02 -0.50184665774E+02  0.32162109224E+03  0.35005102735E+03  0.12500000000E+03 0.  0.
         25    1    1    2    0    0 -0.30856021999E+02  0.50184665774E+02 -0.73107405022E+02  0.15633389729E+03  0.12500000000E+03 0.  0.
</event>
<event>
 4    0  0.2168146E-002  0.1996754E+03  0.7546771E-02  0.1150013E+00
         21   -1    0    0  502  501  0.00000000000E+00  0.00000000000E+00  0.50139165129E+03  0.50139165129E+03  0.00000000000E+00 0.  1.
         21   -1    0    0  501  502 -0.00000000000E+00 -0.00000000000E+00 -0.79519187935E+02  0.79519187935E+02  0.00000000000E+00 0.  1.
         25    1    1    2    0    0 -0.84601056724E+01 -0.14877738952E+03  0.14525208073E+03  0.24275389178E+03  0.12500000000E+03 0.  0.
         25    1    1    2    0    0  0.84601056724E+01  0.14877738952E+03  0.27662038262E+03  0.33815694744E+03  0.12500000000E+03 0.  0.
</event>
<event>
 4    0  0.2168146E-002  0.2493319E+03  0.7546771E-02  0.1113728E+00
         21   -1    0    0  502  501  0.00000000000E+00  0.00000000000E+00  0.24074780217E+03  0.24074780217E+03  0.00000000000E+00 0.  1.
         21   -1    0    0  501  502 -0.00000000000E+00 -0.00000000000E+00 -0.25822208935E+03  0.25822208935E+03  0.00000000000E+00 0.  1.
         25    1    1    2    0    0  0.17878938545E+03  0.12071648535E+03 -0.69232164297E+01  0.24942142071E+03  0.12500000000E+03 0.  0.
         25    1    1    2    0    0 -0.17878938545E+03 -0.12071648535E+03 -0.10551070750E+02  0.24954847080E+03  0.12500000000E+03 0.  0.
</event>
<event>
 4    0  0.2168146E-002  0.1782937E+03  0.7546771E-02  0.1169465E+00
         21   -1    0    0  502  501  0.00000000000E+00  0.00000000000E+00  0.43304381421E+02  0.43304381421E+02  0.00000000000E+00 0. -1.
         21   -1    0    0  501  502 -0.00000000000E+00 -0.00000000000E+00 -0.73407480597E+03  0.73407480597E+03  0.00000000000E+00 0. -1.
         25    1    1    2    0    0  0.11930866916E+03  0.41199350234E+02 -0.37857004183E+03  0.41817726094E+03  0.12500000000E+03 0.  0.
         25    1    1    2    0    0 -0.11930866916E+03 -0.41199350234E+02 -0.31220038272E+03  0.35920192645E+03  0.12500000000E+03 0.  0.
</event>
<event>
 4    0  0.2168146E-002  0.3102592E+03  0.7546771E-02  0.1080222E+00
         21   -1    0    0  502  501  0.00000000000E+00  0.00000000000E+00  0.56063445409E+03  0.56063445409E+03  0.00000000000E+00 0. -1.
         21   -1    0    0  501  502 -0.00000000000E+00 -0.00000000000E+00 -0.17169973380E+03  0.17169973380E+03  0.00000000000E+00 0. -1.
         25    1    1    2    0    0 -0.14960698658E+02 -0.24939595817E+03  0.35374424273E+03  0.45075731355E+03  0.12500000000E+03 0.  0.
         25    1    1    2    0    0  0.14960698658E+02  0.24939595817E+03  0.35190477570E+02  0.28157687435E+03  0.12500000000E+03 0.  0.
</event>
<event>
 4    0  0.2168146E-002  0.2434451E+03  0.7546771E-02  0.1117519E+00
         21   -1    0    0  502  501  0.00000000000E+00  0.00000000000E+00  0.45500525538E+02  0.45500525538E+02  0.00000000000E+00 0. -1.
         21   -1    0    0  501  502 -0.00000000000E+00 -0.00000000000E+00 -0.13025241243E+04  0.13025241243E+04  0.00000000000E+00 0. -1.
         25    1    1    2    0    0 -0.20251400730E+03 -0.27337333923E+02 -0.50842552503E+03  0.56203271033E+03  0.12500000000E+03 0.  0.
         25    1    1    2    0    0  0.20251400730E+03  0.27337333923E+02 -0.74859807375E+03  0.78599193953E+03  0.12500000000E+03 0.  0.
</event>
<event>
 4    0  0.2168146E-002  0.2632719E+03  0.7546771E-02  0.1105193E+00
         21   -1    0    0  502  501  0.00000000000E+00  0.00000000000E+00  0.10684922780E+03  0.10684922780E+03  0.00000000000E+00 0. -1.
         21   -1    0    0  501  502 -0.00000000000E+00 -0.00000000000E+00 -0.64869057444E+03  0.64869057444E+03  0.00000000000E+00 0. -1.
         25    1    1    2    0    0  0.65202312701E+01  0.71032757154E+02  0.45406265148E+02  0.15091353458E+03  0.12500000000E+03 0.  0.
         25    1    1    2    0    0 -0.65202312701E+01 -0.71032757154E+02 -0.58724761178E+03  0.60462626766E+03  0.12500000000E+03 0.  0.
</event>
<event>
 4    0  0.2168146E-002  0.1452260E+03  0.7546771E-02  0.1206465E+00
         21   -1    0    0  502  501  0.00000000000E+00  0.00000000000E+00  0.17073444380E+03  0.17073444380E+03  0.00000000000E+00 0. -1.
         21   -1    0    0  501  502 -0.00000000000E+00 -0.00000000000E+00 -0.12352855185E+03  0.12352855185E+03  0.00000000000E+00 0. -1.
         25    1    1    2    0    0  0.59500832452E+02  0.43733377547E+02  0.27202196359E+02  0.14770889229E+03  0.12500000000E+03 0.  0.
         25    1    1    2    0    0 -0.59500832452E+02 -0.43733377547E+02  0.20003695587E+02  0.14655410336E+03  0.12500000000E+03 0.  0.
</event>
<event>
 4    0  0.2168146E-002  0.1757000E+03  0.7546771E-02  0.1172031E+00
         21   -1    0    0  502  501  0.00000000000E+00  0.00000000000E+00  0.17651549295E+02  0.17651549295E+02  0.00000000000E+00 0.  1.
         21   -1    0    0  501  502 -0.00000000000E+00 -0.00000000000E+00 -0.17488824765E+04  0.17488824765E+04  0.00000000000E+00 0.  1.
         25    1    1    2    0    0  0.94159744371E+02 -0.35218374469E+02 -0.12259978519E+04  0.12364473803E+04  0.12500000000E+03 0.  0.
         25    1    1    2    0    0 -0.94159744371E+02  0.35218374469E+02 -0.50523307530E+03  0.53008664550E+03  0.12500000000E+03 0.  0.
</event>
<event>
 4    0  0.2168146E-002  0.1704724E+03  0.7546771E-02  0.1177356E+00
         21   -1    0    0  502  501  0.00000000000E+00  0.00000000000E+00  0.12848454287E+03  0.12848454287E+03  0.00000000000E+00 0.  1.
         21   -1    0    0  501  502 -0.00000000000E+00 -0.00000000000E+00 -0.22618153194E+03  0.22618153194E+03  0.00000000000E+00 0.  1.
         25    1    1    2    0    0 -0.87554692978E+02 -0.26039850336E+02 -0.12307806824E+03  0.19778045644E+03  0.12500000000E+03 0.  0.
         25    1    1    2    0    0  0.87554692978E+02  0.26039850336E+02  0.25381079175E+02  0.15688561836E+03  0.12500000000E+03 0.  0.
</event>
<event>
 4    0  0.2168146E-002  0.1779150E+03  0.7546771E-02  0.1169836E+00
         21   -1    0    0  502  501  0.00000000000E+00  0.00000000000E+00  0.55059595700E+03  0.55059595700E+03  0.00000000000E+00 0.  1.
         21   -1    0    0  501  502 -0.00000000000E+00 -0.00000000000E+00 -0.57489945405E+02  0.57489945405E+02  0.00000000000E+00 0.  1.
         25    1    1    2    0    0 -0.36111841797E+02  0.10263008356E+02  0.39926361953E+02  0.13648629542E+03  0.12500000000E+03 0.  0.
         25    1    1    2    0    0  0.36111841797E+02 -0.10263008356E+02  0.45317964964E+03  0.47159960698E+03  0.12500000000E+03 0.  0.
</event>
<event>
 4    0  0.2168146E-002  0.2445711E+03  0.7546771E-02  0.1116785E+00
         21   -1    0    0  502  501  0.00000000000E+00  0.00000000000E+00  0.83235956937E+02  0.83235956937E+02  0.00000000000E+00 0.  1.
         21   -1    0    0  501  502 -0.00000000000E+00 -0.00000000000E+00 -0.71862013054E+03  0.71862013054E+03  0.00000000000E+00 0.  1.
         25    1    1    2    0    0 -0.15510032938E+03  0.13060477708E+03 -0.22676849004E+03  0.32888093293E+03  0.12500000000E+03 0.  0.
         25    1    1    2    0    0  0.15510032938E+03 -0.13060477708E+03 -0.40861568357E+03  0.47297515455E+03  0.12500000000E+03 0.  0.
</event>
<event>
 4    0  0.2168146E-002  0.2197324E+03  0.7546771E-02  0.1134083E+00
         21   -1    0    0  502  501  0.00000000000E+00  0.00000000000E+00  0.77452568351E+03  0.77452568351E+03  0.00000000000E+00 0. -1.
         21   -1    0    0  501  502 -0.00000000000E+00 -0.00000000000E+00 -0.62337945593E+02  0.62337945593E+02  0.00000000000E+00 0. -1.
         25    1    1    2    0    0 -0.36143354839E+02  0.10228387256E+02  0.19481257081E+02  0.13196772856E+03  0.12500000000E+03 0.  0.
         25    1    1    2    0    0  0.36143354839E+02 -0.10228387256E+02  0.69270648084E+03  0.70489590054E+03  0.12500000000E+03 0.  0.
</event>
<event>
 4    0  0.2168146E-002  0.1601661E+03  0.7546771E-02  0.1188509E+00
         21   -1    0    0  502  501  0.00000000000E+00  0.00000000000E+00  0.33300025289E+02  0.33300025289E+02  0.00000000000E+00 0. -1.
         21   -1    0    0  501  502 -0.00000000000E+00 -0.00000000000E+00 -0.77036540635E+03  0.77036540635E+03  0.00000000000E+00 0. -1.
         25    1    1    2    0    0  0.63291143795E+02  0.77520095012E+02 -0.37759707042E+03  0.41014592720E+03  0.12500000000E+03 0.  0.
         25    1    1    2    0    0 -0.63291143795E+02 -0.77520095012E+02 -0.35946831064E+03  0.39351950443E+03  0.12500000000E+03 0.  0.
</event>
<event>
 4    0  0.2168146E-002  0.2523418E+03  0.7546771E-02  0.1111834E+00
         21   -1    0    0  502  501  0.00000000000E+00  0.00000000000E+00  0.85617462633E+02  0.85617462633E+02  0.00000000000E+00 0.  1.
         21   -1    0    0  501  502 -0.00000000000E+00 -0.00000000000E+00 -0.74373107472E+03  0.74373107472E+03  0.00000000000E+00 0.  1.
         25    1    1    2    0    0 -0.10544566254E+03  0.37152284919E+02 -0.19206648277E+02  0.16879862370E+03  0.12500000000E+03 0.  0.
         25    1    1    2    0    0  0.10544566254E+03 -0.37152284919E+02 -0.63890696381E+03  0.66054991366E+03  0.12500000000E+03 0.  0.
</event>
<event>
 4    0  0.2168146E-002  0.2358337E+03  0.7546771E-02  0.1122600E+00
         21   -1    0    0  502  501  0.00000000000E+00  0.00000000000E+00  0.69296666022E+03  0.69296666022E+03  0.00000000000E+00 0. -1.
         21   -1    0    0  501  502 -0.00000000000E+00 -0.00000000000E+00 -0.80260062090E+02  0.80260062090E+02  0.00000000000E+00 0. -1.
         25    1    1    2    0    0 -0.40617731484E+02 -0.47514614987E+02  0.61776501696E+03  0.63337670855E+03  0.12500000000E+03 0.  0.
         25    1    1    2    0    0  0.40617731484E+02  0.47514614987E+02 -0.50584188324E+01  0.13985001376E+03  0.12500000000E+03 0.  0.
</event>
<event>
 4    0  0.2168146E-002  0.2603367E+03  0.7546771E-02  0.1106941E+00
         21   -1    0    0  502  501  0.00000000000E+00  0.00000000000E+00  0.53061198494E+03  0.53061198494E+03  0.00000000000E+00 0. -1.
         21   -1    0    0  501  502 -0.00000000000E+00 -0.00000000000E+00 -0.12773027103E+03  0.12773027103E+03  0.00000000000E+00 0. -1.
         25    1    1    2    0    0 -0.17737960924E+03 -0.11647229695E+03  0.30813816388E+03  0.39446603120E+03  0.12500000000E+03 0.  0.
         25    1    1    2    0    0  0.17737960924E+03  0.11647229695E+03  0.94743550038E+02  0.26387622478E+03  0.12500000000E+03 0.  0.
</event>
<event>
 4    0  0.2168146E-002  0.1781392E+03  0.7546771E-02  0.1169616E+00
         21   -1    0    0  502  501  0.00000000000E+00  0.00000000000E+00  0.40936984136E+02  0.40936984136E+02  0.00000000000E+00 0. -1.
         21   -1    0    0  501  502 -0.00000000000E+00 -0.00000000000E+00 -0.77518129542E+03  0.77518129542E+03  0.00000000000E+00 0. -1.
         25    1    1    2    0    0 -0.12467313270E+01  0.79460684042E+02 -0.14043752185E+03  0.20411578134E+03  0.12500000000E+03 0.  0.
         25    1    1    2    0    0  0.12467313270E+01 -0.79460684042E+02 -0.59380678943E+03  0.61200249822E+03  0.12500000000E+03 0.  0.
</event>
<event>
 4    0  0.2168146E-002  0.2267088E+03  0.7546771E-02  0.1128978E+00
         21   -1    0    0  502  501  0.00000000000E+00  0.00000000000E+00  0.70156193076E+02  0.70156193076E+02  0.00000000000E+00 0. -1.
         21   -1    0    0  501  502 -0.00000000000E+00 -0.00000000000E+00 -0.73260665619E+03  0.73260665619E+03  0.00000000000E+00 0. -1.
         25    1    1    2    0    0 -0.19477694387E+02  0.18483835717E+03 -0.39324974178E+03  0.45256486636E+03  0.12500000000E+03 0.  0.
         25    1    1    2    0    0  0.19477694387E+02 -0.18483835717E+03 -0.26920072134E+03  0.35019798290E+03  0.12500000000E+03 0.  0.
</event>
<event>
 4    0  0.2168146E-002  0.2157333E+03  0.7546771E-02  0.1137105E+00
         21   -1    0    0  502  501  0.00000000000E+00  0.00000000000E+00  0.73542207846E+02  0.73542207846E+02  0.00000000000E+00 0.  1.
         21   -1    0    0  501  502 -0.00000000000E+00 -0.00000000000E+00 -0.63284549077E+03  0.63284549077E+03  0.00000000000E+00 0.  1.
         25    1    1    2    0    0  0.16580901677E+03  0.32311019059E+01 -0.37529402513E+03  0.42892152587E+03  0.12500000000E+03 0.  0.
         25    1    1    2    0    0 -0.16580901677E+03 -0.32311019059E+01 -0.18400925780E+03  0.27746617274E+03  0.12500000000E+03 0.  0.
</event>
<event>
 4    0  0.2168146E-002  0.2056176E+03  0.7546771E-02  0.1145084E+00
         21   -1    0    0  502  501  0.00000000000E+00  0.00000000000E+00  0.18862779671E+03  0.18862779671E+03  0.00000000000E+00 0. -1.
         21   -1    0    0  501  502 -0.00000000000E+00 -0.00000000000E+00 -0.22413778013E+03  0.22413778013E+03  0.00000000000E+00 0. -1.
         25    1    1    2    0    0 -0.10661009819E+03  0.69488267621E+02  0.84896214974E+02  0.19755176458E+03  0.12500000000E+03 0.  0.
         25    1    1    2    0    0  0.10661009819E+03 -0.69488267621E+02 -0.12040619840E+03  0.21521381226E+03  0.12500000000E+03 0.  0.
</event>
<event>
 4    0  0.2168146E-002  0.2315176E+03  0.7546771E-02  0.1125576E+00
         21   -1    0    0  502  501  0.00000000000E+00  0.00000000000E+00  0.54482971637E+02  0.54482971637E+02  0.00000000000E+00 0. -1.
         21   -1    0    0  501  502 -0.00000000000E+00 -0.00000000000E+00 -0.98380094078E+03  0.98380094078E+03  0.00000000000E+00 0. -1.
         25    1    1    2    0    0 -0.57459910536E+01 -0.17915892543E+03 -0.63608407229E+03  0.67257630347E+03  0.12500000000E+03 0.  0.
         25    1    1    2    0    0  0.57459910536E+01  0.17915892543E+03 -0.29323389685E+03  0.36570760894E+03  0.12500000000E+03 0.  0.
</event>
<event>
 4    0  0.2168146E-002  0.1730887E+03  0.7546771E-02  0.1174665E+00
         21   -1    0    0  502  501  0.00000000000E+00  0.00000000000E+00  0.22798956832E+03  0.22798956832E+03  0.00000000000E+00 0.  1.
         21   -1    0    0  501  502 -0.00000000000E+00 -0.00000000000E+00 -0.13140824772E+03  0.13140824772E+03  0.00000000000E+00 0.  1.
         25    1    1    2    0    0 -0.85384402108E+02 -0.50095573900E+02  0.11820212184E+03  0.19848628229E+03  0.12500000000E+03 0.  0.
         25    1    1    2    0    0  0.85384402108E+02  0.50095573900E+02 -0.21620801238E+02  0.16091153375E+03  0.12500000000E+03 0.  0.
</event>
<event>
 4    0  0.2168146E-002  0.1840444E+03  0.7546771E-02  0.1163945E+00
         21   -1    0    0  502  501  0.00000000000E+00  0.00000000000E+00  0.66192346677E+03  0.66192346677E+03  0.00000000000E+00 0.  1.
         21   -1    0    0  501  502 -0.00000000000E+00 -0.00000000000E+00 -0.51172611422E+02  0.51172611422E+02  0.00000000000E+00 0.  1.
         25    1    1    2    0    0 -0.92298569132E+02  0.96178671077E+02  0.34773042439E+03  0.39282414727E+03  0.12500000000E+03 0.  0.
         25    1    1    2    0    0  0.92298569132E+02 -0.96178671077E+02  0.26302043096E+03  0.32027193092E+03  0.12500000000E+03 0.  0.
</event>
<event>
 4    0  0.2168146E-002  0.1800759E+03  0.7546771E-02  0.1167730E+00
         21   -1    0    0  502  501  0.00000000000E+00  0.00000000000E+00  0.25923230649E+03  0.25923230649E+03  0.00000000000E+00 0. -1.
         21   -1    0    0  501  502 -0.00000000000E+00 -0.00000000000E+00 -0.12508978022E+03  0.12508978022E+03  0.00000000000E+00 0. -1.
         25    1    1    2    0    0 -0.88885678978E+02 -0.10562769174E+02  0.16711875187E+03  0.22708129215E+03  0.12500000000E+03 0.  0.
         25    1    1    2    0    0  0.88885678978E+02  0.10562769174E+02 -0.32976225593E+02  0.15724079456E+03  0.12500000000E+03 0.  0.
</event>
<event>
 4    0  0.2168146E-002  0.2191764E+03  0.7546771E-02  0.1134499E+00
         21   -1    0    0  502  501  0.00000000000E+00  0.00000000000E+00  0.12162452222E+03  0.12162452222E+03  0.00000000000E+00 0. -1.
         21   -1    0    0  501  502 -0.00000000000E+00 -0.00000000000E+00 -0.39497204371E+03  0.39497204371E+03  0.00000000000E+00 0. -1.
         25    1    1    2    0    0  0.61771296150E+02 -0.15449447981E+03 -0.55630918415E+02  0.21541596134E+03  0.12500000000E+03 0.  0.
         25    1    1    2    0    0 -0.61771296150E+02  0.15449447981E+03 -0.21771660308E+03  0.30118060458E+03  0.12500000000E+03 0.  0.
</event>
<event>
 4    0  0.2168146E-002  0.2828409E+03  0.7546771E-02  0.1094147E+00
         21   -1    0    0  502  501  0.00000000000E+00  0.00000000000E+00  0.60104527743E+02  0.60104527743E+02  0.00000000000E+00 0. -1.
         21   -1    0    0  501  502 -0.00000000000E+00 -0.00000000000E+00 -0.13309971979E+04  0.13309971979E+04  0.00000000000E+00 0. -1.
         25    1    1    2    0    0  0.71018251131E+02  0.40586105527E+02 -0.44822250409E+02  0.15596428465E+03  0.12500000000E+03 0.  0.
         25    1    1    2    0    0 -0.71018251131E+02 -0.40586105527E+02 -0.12260704198E+04  0.12351374410E+04  0.12500000000E+03 0.  0.
</event>
<event>
 4    0  0.2168146E-002  0.2195492E+03  0.7546771E-02  0.1134220E+00
         21   -1    0    0  502  501  0.00000000000E+00  0.00000000000E+00  0.58051760670E+02  0.58051760670E+02  0.00000000000E+00 0. -1.
         21   -1    0    0  501  502 -0.00000000000E+00 -0.00000000000E+00 -0.83032518385E+03  0.83032518385E+03  0.00000000000E+00 0. -1.
         25    1    1    2    0    0  0.13454458657E+03  0.10428717442E+03 -0.50750718007E+03  0.54969682403E+03  0.12500000000E+03 0.  0.
         25    1    1    2    0    0 -0.13454458657E+03 -0.10428717442E+03 -0.26476624311E+03  0.33868012049E+03  0.12500000000E+03 0.  0.
</event>
<event>
 4    0  0.2168146E-002  0.2370083E+03  0.7546771E-02  0.1121802E+00
         21   -1    0    0  502  501  0.00000000000E+00  0.00000000000E+00  0.29042732871E+02  0.29042732871E+02  0.00000000000E+00 0.  1.
         21   -1    0    0  501  502 -0.00000000000E+00 -0.00000000000E+00 -0.19341484014E+04  0.19341484014E+04  0.00000000000E+00 0.  1.
         25    1    1    2    0    0 -0.25913017744E+01  0.14500377701E+03 -0.37398425451E+03  0.42014525204E+03  0.12500000000E+03 0.  0.
         25    1    1    2    0    0  0.25913017744E+01 -0.14500377701E+03 -0.15311214140E+04  0.15430458822E+04  0.12500000000E+03 0.  0.
</event>
<event>
 4    0  0.2168146E-002  0.2140246E+03  0.7546771E-02  0.1138418E+00
         21   -1    0    0  502  501  0.00000000000E+00  0.00000000000E+00  0.13258063156E+04  0.13258063156E+04  0.00000000000E+00 0. -1.
         21   -1    0    0  501  502 -0.00000000000E+00 -0.00000000000E+00 -0.34549955953E+02  0.34549955953E+02  0.00000000000E+00 0. -1.
         25    1    1    2    0    0  0.97109175446E+02  0.58176066856E+02  0.10644410964E+04  0.10777172609E+04  0.12500000000E+03 0.  0.
         25    1    1    2    0    0 -0.97109175446E+02 -0.58176066856E+02  0.22681526328E+03  0.28263901069E+03  0.12500000000E+03 0.  0.
</event>
<event>
 4    0  0.2168146E-002  0.2208595E+03  0.7546771E-02  0.1133244E+00
         21   -1    0    0  502  501  0.00000000000E+00  0.00000000000E+00  0.20998847429E+03  0.20998847429E+03  0.00000000000E+00 0. -1.
         21   -1    0    0  501  502 -0.00000000000E+00 -0.00000000000E+00 -0.23229333022E+03  0.23229333022E+03  0.00000000000E+00 0. -1.
         25    1    1    2    0    0  0.12698386156E+03 -0.12748554181E+03 -0.39052918064E+02  0.22254796084E+03  0.12500000000E+03 0.  0.
         25    1    1    2    0    0 -0.12698386156E+03  0.12748554181E+03  0.16748062141E+02  0.21973384366E+03  0.12500000000E+03 0.  0.
</event>
<event>
 4    0  0.2168146E-002  0.2182030E+03  0.7546771E-02  0.1135230E+00
         21   -1    0    0  502  501  0.00000000000E+00  0.00000000000E+00  0.37535123117E+02  0.37535123117E+02  0.00000000000E+00 0. -1.
         21   -1    0    0  501  502 -0.00000000000E+00 -0.00000000000E+00 -0.12684796034E+04  0.12684796034E+04  0.00000000000E+00 0. -1.
         25    1    1    2    0    0 -0.66360073096E+02  0.62535522081E+01 -0.11879186354E+03  0.18487637237E+03  0.12500000000E+03 0.  0.
         25    1    1    2    0    0  0.66360073096E+02 -0.62535522081E+01 -0.11121526168E+04  0.11211383542E+04  0.12500000000E+03 0.  0.
</event>
<event>
 4    0  0.2168146E-002  0.1981130E+03  0.7546771E-02  0.1151341E+00
         21   -1    0    0  502  501  0.00000000000E+00  0.00000000000E+00  0.13626963154E+02  0.13626963154E+02  0.00000000000E+00 0. -1.
         21   -1    0    0  501  502 -0.00000000000E+00 -0.00000000000E+00 -0.28802289895E+04  0.28802289895E+04  0.00000000000E+00 0. -1.
         25    1    1    2    0    0  0.18024481972E+02  0.14832835092E+03 -0.11702117908E+04  0.11863164910E+04  0.12500000000E+03 0.  0.
         25    1    1    2    0    0 -0.18024481972E+02 -0.14832835092E+03 -0.16963902355E+04  0.17075394616E+04  0.12500000000E+03 0.  0.
</event>
<event>
 4    0  0.2168146E-002  0.1874923E+03  0.7546771E-02  0.1160743E+00
         21   -1    0    0  502  501  0.00000000000E+00  0.00000000000E+00  0.11176955235E+03  0.11176955235E+03  0.00000000000E+00 0. -1.
         21   -1    0    0  501  502 -0.00000000000E+00 -0.00000000000E+00 -0.31451654879E+03  0.31451654879E+03  0.00000000000E+00 0. -1.
         25    1    1    2    0    0  0.10813659171E+02  0.29579826903E+02  0.53401645559E+02  0.13953005817E+03  0.12500000000E+03 0.  0.
         25    1    1    2    0    0 -0.10813659171E+02 -0.29579826903E+02 -0.25614864200E+03  0.28675604298E+03  0.12500000000E+03 0.  0.
</event>
<event>
 4    0  0.2168146E-002  0.2921753E+03  0.7546771E-02  0.1089219E+00
         21   -1    0    0  502  501  0.00000000000E+00  0.00000000000E+00  0.25471060764E+03  0.25471060764E+03  0.00000000000E+00 0.  1.
         21   -1    0    0  501  502 -0.00000000000E+00 -0.00000000000E+00 -0.33515049225E+03  0.33515049225E+03  0.00000000000E+00 0.  1.
         25    1    1    2    0    0 -0.26002237480E+03 -0.11614977850E+02  0.48649059054E+01  0.28878228896E+03  0.12500000000E+03 0.  0.
         25    1    1    2    0    0  0.26002237480E+03  0.11614977850E+02 -0.85304790509E+02  0.30107881093E+03  0.12500000000E+03 0.  0.
</event>
<event>
 4    0  0.2168146E-002  0.1942397E+03  0.7546771E-02  0.1154692E+00
         21   -1    0    0  502  501  0.00000000000E+00  0.00000000000E+00  0.54944394007E+03  0.54944394007E+03  0.00000000000E+00 0.  1.
         21   -1    0    0  501  502 -0.00000000000E+00 -0.00000000000E+00 -0.68667686544E+02  0.68667686544E+02  0.00000000000E+00 0.  1.
         25    1    1    2    0    0 -0.20865447904E+02  0.99228264146E+02  0.67385629926E+02  0.17449194377E+03  0.12500000000E+03 0.  0.
         25    1    1    2    0    0  0.20865447904E+02 -0.99228264146E+02  0.41339062361E+03  0.44361968284E+03  0.12500000000E+03 0.  0.
</event>
<event>
 4    0  0.2168146E-002  0.1636930E+03  0.7546771E-02  0.1184589E+00
         21   -1    0    0  502  501  0.00000000000E+00  0.00000000000E+00  0.62244758121E+02  0.62244758121E+02  0.00000000000E+00 0.  1.
         21   -1    0    0  501  502 -0.00000000000E+00 -0.00000000000E+00 -0.43048419371E+03  0.43048419371E+03  0.00000000000E+00 0.  1.
         25    1    1    2    0    0 -0.20824459861E+02  0.10276391134E+03 -0.20410361981E+03  0.26129938236E+03  0.12500000000E+03 0.  0.
         25    1    1    2    0    0  0.20824459861E+02 -0.10276391134E+03 -0.16413581577E+03  0.23142956946E+03  0.12500000000E+03 0.  0.
</event>
<event>
 4    0  0.2168146E-002  0.2120393E+03  0.7546771E-02  0.1139961E+00
         21   -1    0    0  502  501  0.00000000000E+00  0.00000000000E+00  0.15394239575E+03  0.15394239575E+03  0.00000000000E+00 0.  1.
         21   -1    0    0  501  502 -0.00000000000E+00 -0.00000000000E+00 -0.29206150495E+03  0.29206150495E+03  0.00000000000E+00 0.  1.
         25    1    1    2    0    0  0.14192923403E+03  0.20602785340E+01 -0.16986661546E+03  0.25422002137E+03  0.12500000000E+03 0.  0.
         25    1    1    2    0    0 -0.14192923403E+03 -0.20602785340E+01  0.31747506254E+02  0.19178387934E+03  0.12500000000E+03 0.  0.
</event>
<event>
 4    0  0.2168146E-002  0.2155364E+03  0.7546771E-02  0.1137255E+00
         21   -1    0    0  502  501  0.00000000000E+00  0.00000000000E+00  0.19394970286E+03  0.19394970286E+03  0.00000000000E+00 0. -1.
         21   -1    0    0  501  502 -0.00000000000E+00 -0.00000000000E+00 -0.23952576232E+03  0.23952576232E+03  0.00000000000E+00 0. -1.
         25    1    1    2    0    0  0.54526019515E+01  0.72408446109E+02  0.13797244984E+03  0.19983520923E+03  0.12500000000E+03 0.  0.
         25    1    1    2    0    0 -0.54526019515E+01 -0.72408446109E+02 -0.18354850930E+03  0.23364025595E+03  0.12500000000E+03 0.  0.
</event>
<event>
 4    0  0.2168146E-002  0.2562988E+03  0.7546771E-02  0.1109388E+00
         21   -1    0    0  502  501  0.00000000000E+00  0.00000000000E+00  0.38514131748E+02  0.38514131748E+02  0.00000000000E+00 0.  1.
         21   -1    0    0  501  502 -0.00000000000E+00 -0.00000000000E+00 -0.17055833799E+04  0.17055833799E+04  0.00000000000E+00 0.  1.
         25    1    1    2    0    0 -0.66027725341E+02 -0.18879749915E+03 -0.11747992016E+04  0.11982413448E+04  0.12500000000E+03 0.  0.
         25    1    1    2    0    0  0.66027725341E+02  0.18879749915E+03 -0.49227004652E+03  0.54585616686E+03  0.12500000000E+03 0.  0.
</event>
<event>
 4    0  0.2168146E-002  0.1762017E+03  0.7546771E-02  0.1171530E+00
         21   -1    0    0  502  501  0.00000000000E+00  0.00000000000E+00  0.74308003815E+03  0.74308003815E+03  0.00000000000E+00 0.  1.
         21   -1    0    0  501  502 -0.00000000000E+00 -0.00000000000E+00 -0.41781576266E+02  0.41781576266E+02  0.00000000000E+00 0.  1.
         25    1    1    2    0    0 -0.58893939352E+02 -0.95451953188E+02  0.46939055499E+03  0.49852990339E+03  0.12500000000E+03 0.  0.
         25    1    1    2    0    0  0.58893939352E+02  0.95451953188E+02  0.23190790689E+03  0.28633171103E+03  0.12500000000E+03 0.  0.
</event>
<event>
 4    0  0.2168146E-002  0.2025960E+03  0.7546771E-02  0.1147567E+00
         21   -1    0    0  502  501  0.00000000000E+00  0.00000000000E+00  0.22795346786E+03  0.22795346786E+03  0.00000000000E+00 0.  1.
         21   -1    0    0  501  502 -0.00000000000E+00 -0.00000000000E+00 -0.18005933610E+03  0.18005933610E+03  0.00000000000E+00 0.  1.
         25    1    1    2    0    0  0.62255813164E+02 -0.24544124719E+02 -0.12177369457E+03  0.18690113167E+03  0.12500000000E+03 0.  0.
         25    1    1    2    0    0 -0.62255813164E+02  0.24544124719E+02  0.16966782633E+03  0.22111167229E+03  0.12500000000E+03 0.  0.
</event>
<event>
 4    0  0.2168146E-002  0.2224936E+03  0.7546771E-02  0.1132038E+00
         21   -1    0    0  502  501  0.00000000000E+00  0.00000000000E+00  0.28243060883E+03  0.28243060883E+03  0.00000000000E+00 0. -1.
         21   -1    0    0  501  502 -0.00000000000E+00 -0.00000000000E+00 -0.17527635621E+03  0.17527635621E+03  0.00000000000E+00 0. -1.
         25    1    1    2    0    0 -0.15852368969E+03  0.18348133969E+01 -0.42612196503E+02  0.20633450032E+03  0.12500000000E+03 0.  0.
         25    1    1    2    0    0  0.15852368969E+03 -0.18348133969E+01  0.14976644912E+03  0.25137246471E+03  0.12500000000E+03 0.  0.
</event>
<event>
 4    0  0.2168146E-002  0.2590747E+03  0.7546771E-02  0.1107700E+00
         21   -1    0    0  502  501  0.00000000000E+00  0.00000000000E+00  0.13527314437E+03  0.13527314437E+03  0.00000000000E+00 0.  1.
         21   -1    0    0  501  502 -0.00000000000E+00 -0.00000000000E+00 -0.49617917376E+03  0.49617917376E+03  0.00000000000E+00 0.  1.
         25    1    1    2    0    0 -0.10969069732E+02  0.96880262763E+02 -0.43017182836E+03  0.45845273226E+03  0.12500000000E+03 0.  0.
         25    1    1    2    0    0  0.10969069732E+02 -0.96880262763E+02  0.69265798972E+02  0.17299958587E+03  0.12500000000E+03 0.  0.
</event>
<event>
 4    0  0.2168146E-002  0.1896063E+03  0.7546771E-02  0.1158817E+00
         21   -1    0    0  502  501  0.00000000000E+00  0.00000000000E+00  0.18771314105E+03  0.18771314105E+03  0.00000000000E+00 0. -1.
         21   -1    0    0  501  502 -0.00000000000E+00 -0.00000000000E+00 -0.19151846866E+03  0.19151846866E+03  0.00000000000E+00 0. -1.
         25    1    1    2    0    0  0.12568162644E+02  0.11244826745E+03 -0.88642039528E+02  0.19048617466E+03  0.12500000000E+03 0.  0.
         25    1    1    2    0    0 -0.12568162644E+02 -0.11244826745E+03  0.84836711913E+02  0.18874543505E+03  0.12500000000E+03 0.  0.
</event>
<event>
 4    0  0.2168146E-002  0.2878205E+03  0.7546771E-02  0.1091493E+00
         21   -1    0    0  502  501  0.00000000000E+00  0.00000000000E+00  0.37082519299E+02  0.37082519299E+02  0.00000000000E+00 0.  1.
         21   -1    0    0  501  502 -0.00000000000E+00 -0.00000000000E+00 -0.22339536038E+04  0.22339536038E+04  0.00000000000E+00 0.  1.
         25    1    1    2    0    0 -0.41874921722E+02  0.20494888988E+03 -0.49418297356E+03  0.55099851895E+03  0.12500000000E+03 0.  0.
         25    1    1    2    0    0  0.41874921722E+02 -0.20494888988E+03 -0.17026881109E+04  0.17200376041E+04  0.12500000000E+03 0.  0.
</event>
<event>
 4    0  0.2168146E-002  0.2238301E+03  0.7546771E-02  0.1131059E+00
         21   -1    0    0  502  501  0.00000000000E+00  0.00000000000E+00  0.18800487537E+03  0.18800487537E+03  0.00000000000E+00 0. -1.
         21   -1    0    0  501  502 -0.00000000000E+00 -0.00000000000E+00 -0.26648194560E+03  0.26648194560E+03  0.00000000000E+00 0. -1.
         25    1    1    2    0    0  0.58720587055E+02 -0.33032446979E+02 -0.21489625075E+03  0.25757454937E+03  0.12500000000E+03 0.  0.
         25    1    1    2    0    0 -0.58720587055E+02  0.33032446979E+02  0.13641918051E+03  0.19691227160E+03  0.12500000000E+03 0.  0.
</event>
<event>
 4    0  0.2168146E-002  0.1759235E+03  0.7546771E-02  0.1171808E+00
         21   -1    0    0  502  501  0.00000000000E+00  0.00000000000E+00  0.74687140668E+02  0.74687140668E+02  0.00000000000E+00 0.  1.
         21   -1    0    0  501  502 -0.00000000000E+00 -0.00000000000E+00 -0.41438276905E+03  0.41438276905E+03  0.00000000000E+00 0.  1.
         25    1    1    2    0    0 -0.40212710738E+02  0.10529079694E+03 -0.98687430475E+02  0.19510874650E+03  0.12500000000E+03 0.  0.
         25    1    1    2    0    0  0.40212710738E+02 -0.10529079694E+03 -0.24100819791E+03  0.29396116323E+03  0.12500000000E+03 0.  0.
</event>
<event>
 4    0  0.2168146E-002  0.2360641E+03  0.7546771E-02  0.1122443E+00
         21   -1    0    0  502  501  0.00000000000E+00  0.00000000000E+00  0.17220498690E+03  0.17220498690E+03  0.00000000000E+00 0.  1.
         21   -1    0    0  501  502 -0.00000000000E+00 -0.00000000000E+00 -0.32360411690E+03  0.32360411690E+03  0.00000000000E+00 0.  1.
         25    1    1    2    0    0 -0.19495977523E+03 -0.32368309735E+01 -0.27788283553E+02  0.23327447296E+03  0.12500000000E+03 0.  0.
         25    1    1    2    0    0  0.19495977523E+03  0.32368309735E+01 -0.12361084645E+03  0.26253463084E+03  0.12500000000E+03 0.  0.
</event>
<event>
 4    0  0.2168146E-002  0.2599527E+03  0.7546771E-02  0.1107172E+00
         21   -1    0    0  502  501  0.00000000000E+00  0.00000000000E+00  0.23809667315E+03  0.23809667315E+03  0.00000000000E+00 0. -1.
         21   -1    0    0  501  502 -0.00000000000E+00 -0.00000000000E+00 -0.28381491105E+03  0.28381491105E+03  0.00000000000E+00 0. -1.
         25    1    1    2    0    0 -0.19039051662E+03  0.12410567482E+03 -0.40235413895E+02  0.26247791502E+03  0.12500000000E+03 0.  0.
         25    1    1    2    0    0  0.19039051662E+03 -0.12410567482E+03 -0.54828240083E+01  0.25943366918E+03  0.12500000000E+03 0.  0.
</event>
<event>
 4    0  0.2168146E-002  0.2426501E+03  0.7546771E-02  0.1118040E+00
         21   -1    0    0  502  501  0.00000000000E+00  0.00000000000E+00  0.23536542305E+03  0.23536542305E+03  0.00000000000E+00 0. -1.
         21   -1    0    0  501  502 -0.00000000000E+00 -0.00000000000E+00 -0.25016017200E+03  0.25016017200E+03  0.00000000000E+00 0. -1.
         25    1    1    2    0    0 -0.11514940094E+03 -0.20113710210E+02  0.16470029942E+03  0.23751870348E+03  0.12500000000E+03 0.  0.
         25    1    1    2    0    0  0.11514940094E+03  0.20113710210E+02 -0.17949504837E+03  0.24800689157E+03  0.12500000000E+03 0.  0.
</event>
<event>
 4    0  0.2168146E-002  0.2421355E+03  0.7546771E-02  0.1118378E+00
         21   -1    0    0  502  501  0.00000000000E+00  0.00000000000E+00  0.28222050055E+03  0.28222050055E+03  0.00000000000E+00 0.  1.
         21   -1    0    0  501  502 -0.00000000000E+00 -0.00000000000E+00 -0.20774387741E+03  0.20774387741E+03  0.00000000000E+00 0.  1.
         25    1    1    2    0    0  0.65800328734E+02 -0.10905098029E+03 -0.12834019246E+03  0.21981356775E+03  0.12500000000E+03 0.  0.
         25    1    1    2    0    0 -0.65800328734E+02  0.10905098029E+03  0.20281681560E+03  0.27015081021E+03  0.12500000000E+03 0.  0.
</event>
<event>
 4    0  0.2168146E-002  0.7376405E+03  0.7546771E-02  0.9654942E-01
         21   -1    0    0  502  501  0.00000000000E+00  0.00000000000E+00  0.47941401502E+03  0.47941401502E+03  0.00000000000E+00 0.  1.
         21   -1    0    0  501  502 -0.00000000000E+00 -0.00000000000E+00 -0.11349554474E+04  0.11349554474E+04  0.00000000000E+00 0.  1.
         25    1    1    2    0    0  0.24178392113E+02 -0.60179472113E+03  0.11773275702E+03  0.62628067438E+03  0.12500000000E+03 0.  0.
         25    1    1    2    0    0 -0.24178392113E+02  0.60179472113E+03 -0.77327418940E+03  0.98808878803E+03  0.12500000000E+03 0.  0.
</event>
<event>
 4    0  0.2168146E-002  0.1850355E+03  0.7546771E-02  0.1163017E+00
         21   -1    0    0  502  501  0.00000000000E+00  0.00000000000E+00  0.39991191755E+02  0.39991191755E+02  0.00000000000E+00 0. -1.
         21   -1    0    0  501  502 -0.00000000000E+00 -0.00000000000E+00 -0.85614179213E+03  0.85614179213E+03  0.00000000000E+00 0. -1.
         25    1    1    2    0    0  0.84742637337E+02 -0.10498386181E+03 -0.45711951550E+03  0.49273337341E+03  0.12500000000E+03 0.  0.
         25    1    1    2    0    0 -0.84742637337E+02  0.10498386181E+03 -0.35903108487E+03  0.40339961047E+03  0.12500000000E+03 0.  0.
</event>
<event>
 4    0  0.2168146E-002  0.2508013E+03  0.7546771E-02  0.1112799E+00
         21   -1    0    0  502  501  0.00000000000E+00  0.00000000000E+00  0.22733344700E+03  0.22733344700E+03  0.00000000000E+00 0.  1.
         21   -1    0    0  501  502 -0.00000000000E+00 -0.00000000000E+00 -0.27669181798E+03  0.27669181798E+03  0.00000000000E+00 0.  1.
         25    1    1    2    0    0 -0.20346996057E+03  0.56615709532E+02 -0.76609942945E+02  0.25709812675E+03  0.12500000000E+03 0.  0.
         25    1    1    2    0    0  0.20346996057E+03 -0.56615709532E+02  0.27251571962E+02  0.24692713823E+03  0.12500000000E+03 0.  0.
</event>
<event>
 4    0  0.2168146E-002  0.1702578E+03  0.7546771E-02  0.1177579E+00
         21   -1    0    0  502  501  0.00000000000E+00  0.00000000000E+00  0.41740977329E+02  0.41740977329E+02  0.00000000000E+00 0. -1.
         21   -1    0    0  501  502 -0.00000000000E+00 -0.00000000000E+00 -0.69446655076E+03  0.69446655076E+03  0.00000000000E+00 0. -1.
         25    1    1    2    0    0  0.76780808237E+02  0.37320823668E+02 -0.15785449498E+03  0.21870340184E+03  0.12500000000E+03 0.  0.
         25    1    1    2    0    0 -0.76780808237E+02 -0.37320823668E+02 -0.49487107845E+03  0.51750412624E+03  0.12500000000E+03 0.  0.
</event>
<event>
 4    0  0.2168146E-002  0.2030539E+03  0.7546771E-02  0.1147188E+00
         21   -1    0    0  502  501  0.00000000000E+00  0.00000000000E+00  0.69826043727E+02  0.69826043727E+02  0.00000000000E+00 0. -1.
         21   -1    0    0  501  502 -0.00000000000E+00 -0.00000000000E+00 -0.59048008525E+03  0.59048008525E+03  0.00000000000E+00 0. -1.
         25    1    1    2    0    0  0.55311461248E+02  0.11002253808E+03 -0.94182155795E+02  0.19914716945E+03  0.12500000000E+03 0.  0.
         25    1    1    2    0    0 -0.55311461248E+02 -0.11002253808E+03 -0.42647188573E+03  0.46115895952E+03  0.12500000000E+03 0.  0.
</event>
<event>
 4    0  0.2168146E-002  0.2101160E+03  0.7546771E-02  0.1141474E+00
         21   -1    0    0  502  501  0.00000000000E+00  0.00000000000E+00  0.76732758109E+02  0.76732758109E+02  0.00000000000E+00 0.  1.
         21   -1    0    0  501  502 -0.00000000000E+00 -0.00000000000E+00 -0.57535680083E+03  0.57535680083E+03  0.00000000000E+00 0.  1.
         25    1    1    2    0    0  0.15328182473E+03 -0.70172217849E+02 -0.23346785766E+03  0.31392944830E+03  0.12500000000E+03 0.  0.
         25    1    1    2    0    0 -0.15328182473E+03  0.70172217849E+02 -0.26515618506E+03  0.33816011063E+03  0.12500000000E+03 0.  0.
</event>
<event>
 4    0  0.2168146E-002  0.1515688E+03  0.7546771E-02  0.1198558E+00
         21   -1    0    0  502  501  0.00000000000E+00  0.00000000000E+00  0.61735089859E+03  0.61735089859E+03  0.00000000000E+00 0. -1.
         21   -1    0    0  501  502 -0.00000000000E+00 -0.00000000000E+00 -0.37212371712E+02  0.37212371712E+02  0.00000000000E+00 0. -1.
         25    1    1    2    0    0  0.21664965020E+02 -0.78337223685E+02  0.34888774522E+03  0.37941237471E+03  0.12500000000E+03 0.  0.
         25    1    1    2    0    0 -0.21664965020E+02  0.78337223685E+02  0.23125078166E+03  0.27515089559E+03  0.12500000000E+03 0.  0.
</event>
<event>
 4    0  0.2168146E-002  0.2602149E+03  0.7546771E-02  0.1107014E+00
         21   -1    0    0  502  501  0.00000000000E+00  0.00000000000E+00  0.21788221141E+03  0.21788221141E+03  0.00000000000E+00 0. -1.
         21   -1    0    0  501  502 -0.00000000000E+00 -0.00000000000E+00 -0.31077239503E+03  0.31077239503E+03  0.00000000000E+00 0. -1.
         25    1    1    2    0    0  0.15813281624E+03 -0.13969669361E+03 -0.13480032261E+03  0.27985224807E+03  0.12500000000E+03 0.  0.
         25    1    1    2    0    0 -0.15813281624E+03  0.13969669361E+03  0.41910138990E+02  0.24880235836E+03  0.12500000000E+03 0.  0.
</event>
<event>
 4    0  0.2168146E-002  0.2029395E+03  0.7546771E-02  0.1147282E+00
         21   -1    0    0  502  501  0.00000000000E+00  0.00000000000E+00  0.20210193810E+03  0.20210193810E+03  0.00000000000E+00 0.  1.
         21   -1    0    0  501  502 -0.00000000000E+00 -0.00000000000E+00 -0.20378058173E+03  0.20378058173E+03  0.00000000000E+00 0.  1.
         25    1    1    2    0    0 -0.13079379271E+03 -0.52591456684E+02  0.74570692493E+02  0.20262938016E+03  0.12500000000E+03 0.  0.
         25    1    1    2    0    0  0.13079379271E+03  0.52591456684E+02 -0.76249336121E+02  0.20325313967E+03  0.12500000000E+03 0.  0.
</event>
<event>
 4    0  0.2168146E-002  0.2166123E+03  0.7546771E-02  0.1136434E+00
         21   -1    0    0  502  501  0.00000000000E+00  0.00000000000E+00  0.62840238457E+02  0.62840238457E+02  0.00000000000E+00 0.  1.
         21   -1    0    0  501  502 -0.00000000000E+00 -0.00000000000E+00 -0.74666942462E+03  0.74666942462E+03  0.00000000000E+00 0.  1.
         25    1    1    2    0    0  0.10264933981E+03  0.85618941375E+01 -0.61066180620E+03  0.63177767810E+03  0.12500000000E+03 0.  0.
         25    1    1    2    0    0 -0.10264933981E+03 -0.85618941375E+01 -0.73167379965E+02  0.17773198498E+03  0.12500000000E+03 0.  0.
</event>
<event>
 4    0  0.2168146E-002  0.1786708E+03  0.7546771E-02  0.1169096E+00
         21   -1    0    0  502  501  0.00000000000E+00  0.00000000000E+00  0.86435522073E+03  0.86435522073E+03  0.00000000000E+00 0.  1.
         21   -1    0    0  501  502 -0.00000000000E+00 -0.00000000000E+00 -0.36933042609E+02  0.36933042609E+02  0.00000000000E+00 0.  1.
         25    1    1    2    0    0  0.30434332927E+02  0.10395382204E+03  0.58413481057E+03  0.60710058693E+03  0.12500000000E+03 0.  0.
         25    1    1    2    0    0 -0.30434332927E+02 -0.10395382204E+03  0.24328736755E+03  0.29418767641E+03  0.12500000000E+03 0.  0.
</event>
<event>
 4    0  0.2168146E-002  0.3587679E+03  0.7546771E-02  0.1059073E+00
         21   -1    0    0  502  501  0.00000000000E+00  0.00000000000E+00  0.22758614231E+03  0.22758614231E+03  0.00000000000E+00 0. -1.
         21   -1    0    0  501  502 -0.00000000000E+00 -0.00000000000E+00 -0.56556353853E+03  0.56556353853E+03  0.00000000000E+00 0. -1.
         25    1    1    2    0    0 -0.30897400891E+03  0.13269885444E+03 -0.16463683945E+03  0.39472042392E+03  0.12500000000E+03 0.  0.
         25    1    1    2    0    0  0.30897400891E+03 -0.13269885444E+03 -0.17334055677E+03  0.39842925693E+03  0.12500000000E+03 0.  0.
</event>
<event>
 4    0  0.2168146E-002  0.3610545E+03  0.7546771E-02  0.1058167E+00
         21   -1    0    0  502  501  0.00000000000E+00  0.00000000000E+00  0.30571510078E+03  0.30571510078E+03  0.00000000000E+00 0. -1.
         21   -1    0    0  501  502 -0.00000000000E+00 -0.00000000000E+00 -0.42641122974E+03  0.42641122974E+03  0.00000000000E+00 0. -1.
         25    1    1    2    0    0  0.24886078047E+03  0.22977643812E+02  0.17146246723E+03  0.32784758325E+03  0.12500000000E+03 0.  0.
         25    1    1    2    0    0 -0.24886078047E+03 -0.22977643812E+02 -0.29215859619E+03  0.40427874727E+03  0.12500000000E+03 0.  0.
</event>
<event>
 4    0  0.2168146E-002  0.1992061E+03  0.7546771E-02  0.1150411E+00
         21   -1    0    0  502  501  0.00000000000E+00  0.00000000000E+00  0.73639688249E+02  0.73639688249E+02  0.00000000000E+00 0. -1.
         21   -1    0    0  501  502 -0.00000000000E+00 -0.00000000000E+00 -0.53888147575E+03  0.53888147575E+03  0.00000000000E+00 0. -1.
         25    1    1    2    0    0 -0.88292402550E+02  0.69301800174E+02 -0.39720070890E+03  0.43126753994E+03  0.12500000000E+03 0.  0.
         25    1    1    2    0    0  0.88292402550E+02 -0.69301800174E+02 -0.68041078593E+02  0.18125362405E+03  0.12500000000E+03 0.  0.
</event>
<event>
 4    0  0.2168146E-002  0.3031088E+03  0.7546771E-02  0.1083697E+00
         21   -1    0    0  502  501  0.00000000000E+00  0.00000000000E+00  0.20582997711E+04  0.20582997711E+04  0.00000000000E+00 0.  1.
         21   -1    0    0  501  502 -0.00000000000E+00 -0.00000000000E+00 -0.44636330493E+02  0.44636330493E+02  0.00000000000E+00 0.  1.
         25    1    1    2    0    0  0.66232846841E+02  0.20466608593E+03  0.16074198922E+04  0.16265603913E+04  0.12500000000E+03 0.  0.
         25    1    1    2    0    0 -0.66232846841E+02 -0.20466608593E+03  0.40624354842E+03  0.47637571030E+03  0.12500000000E+03 0.  0.
</event>
<event>
 4    0  0.2168146E-002  0.2169730E+03  0.7546771E-02  0.1136160E+00
         21   -1    0    0  502  501  0.00000000000E+00  0.00000000000E+00  0.38305036097E+03  0.38305036097E+03  0.00000000000E+00 0. -1.
         21   -1    0    0  501  502 -0.00000000000E+00 -0.00000000000E+00 -0.12290104357E+03  0.12290104357E+03  0.00000000000E+00 0. -1.
         25    1    1    2    0    0 -0.69615082385E+02  0.28151927594E+02 -0.57250677262E+02  0.15665704826E+03  0.12500000000E+03 0.  0.
         25    1    1    2    0    0  0.69615082385E+02 -0.28151927594E+02  0.31739999466E+03  0.34929435628E+03  0.12500000000E+03 0.  0.
</event>
<event>
 4    0  0.2168146E-002  0.2011685E+03  0.7546771E-02  0.1148757E+00
         21   -1    0    0  502  501  0.00000000000E+00  0.00000000000E+00  0.32858359867E+03  0.32858359867E+03  0.00000000000E+00 0.  1.
         21   -1    0    0  501  502 -0.00000000000E+00 -0.00000000000E+00 -0.12316118999E+03  0.12316118999E+03  0.00000000000E+00 0.  1.
         25    1    1    2    0    0 -0.27870843306E+02  0.12471750552E+03  0.20630458734E+03  0.27297952825E+03  0.12500000000E+03 0.  0.
         25    1    1    2    0    0  0.27870843306E+02 -0.12471750552E+03 -0.88217866209E+00  0.17876526041E+03  0.12500000000E+03 0.  0.
</event>
<event>
 4    0  0.2168146E-002  0.3156612E+03  0.7546771E-02  0.1077664E+00
         21   -1    0    0  502  501  0.00000000000E+00  0.00000000000E+00  0.36368610291E+03  0.36368610291E+03  0.00000000000E+00 0. -1.
         21   -1    0    0  501  502 -0.00000000000E+00 -0.00000000000E+00 -0.27397808123E+03  0.27397808123E+03  0.00000000000E+00 0. -1.
         25    1    1    2    0    0 -0.25417812189E+03  0.22277220375E+02 -0.94056491211E+02  0.29928985237E+03  0.12500000000E+03 0.  0.
         25    1    1    2    0    0  0.25417812189E+03 -0.22277220375E+02  0.18376451289E+03  0.33837433176E+03  0.12500000000E+03 0.  0.
</event>
<event>
 4    0  0.2168146E-002  0.1875999E+03  0.7546771E-02  0.1160644E+00
         21   -1    0    0  502  501  0.00000000000E+00  0.00000000000E+00  0.16689254664E+03  0.16689254664E+03  0.00000000000E+00 0. -1.
         21   -1    0    0  501  502 -0.00000000000E+00 -0.00000000000E+00 -0.21087652376E+03  0.21087652376E+03  0.00000000000E+00 0. -1.
         25    1    1    2    0    0 -0.40150349897E+02 -0.31516053294E+02  0.10914353853E+03  0.17361631322E+03  0.12500000000E+03 0.  0.
         25    1    1    2    0    0  0.40150349897E+02  0.31516053294E+02 -0.15312751565E+03  0.20415275718E+03  0.12500000000E+03 0.  0.
</event>
<event>
 4    0  0.2168146E-002  0.2137575E+03  0.7546771E-02  0.1138625E+00
         21   -1    0    0  502  501  0.00000000000E+00  0.00000000000E+00  0.24722992727E+02  0.24722992727E+02  0.00000000000E+00 0.  1.
         21   -1    0    0  501  502 -0.00000000000E+00 -0.00000000000E+00 -0.18481694658E+04  0.18481694658E+04  0.00000000000E+00 0.  1.
         25    1    1    2    0    0 -0.16657386028E+03 -0.17500439718E+02 -0.71511177218E+03  0.74502547811E+03  0.12500000000E+03 0.  0.
         25    1    1    2    0    0  0.16657386028E+03  0.17500439718E+02 -0.11083347009E+04  0.11278669804E+04  0.12500000000E+03 0.  0.
</event>
<event>
 4    0  0.2168146E-002  0.3101830E+03  0.7546771E-02  0.1080258E+00
         21   -1    0    0  502  501  0.00000000000E+00  0.00000000000E+00  0.18392844845E+03  0.18392844845E+03  0.00000000000E+00 0. -1.
         21   -1    0    0  501  502 -0.00000000000E+00 -0.00000000000E+00 -0.52310290931E+03  0.52310290931E+03  0.00000000000E+00 0. -1.
         25    1    1    2    0    0  0.14447253043E+03 -0.37161563054E+02  0.10568097494E+03  0.22146503625E+03  0.12500000000E+03 0.  0.
         25    1    1    2    0    0 -0.14447253043E+03  0.37161563054E+02 -0.44485543580E+03  0.48556632151E+03  0.12500000000E+03 0.  0.
</event>
<event>
 4    0  0.2168146E-002  0.1822926E+03  0.7546771E-02  0.1165603E+00
         21   -1    0    0  502  501  0.00000000000E+00  0.00000000000E+00  0.92117891142E+02  0.92117891142E+02  0.00000000000E+00 0.  1.
         21   -1    0    0  501  502 -0.00000000000E+00 -0.00000000000E+00 -0.36073966168E+03  0.36073966168E+03  0.00000000000E+00 0.  1.
         25    1    1    2    0    0 -0.84334185744E+02  0.96475367349E+02 -0.17708421612E+03  0.25180065725E+03  0.12500000000E+03 0.  0.
         25    1    1    2    0    0  0.84334185744E+02 -0.96475367349E+02 -0.91537554419E+02  0.20105689558E+03  0.12500000000E+03 0.  0.
</event>
<event>
 4    0  0.2168146E-002  0.1699366E+03  0.7546771E-02  0.1177914E+00
         21   -1    0    0  502  501  0.00000000000E+00  0.00000000000E+00  0.46704024156E+03  0.46704024156E+03  0.00000000000E+00 0.  1.
         21   -1    0    0  501  502 -0.00000000000E+00 -0.00000000000E+00 -0.61832858159E+02  0.61832858159E+02  0.00000000000E+00 0.  1.
         25    1    1    2    0    0 -0.14335486992E+02  0.10352475913E+03  0.12748223821E+03  0.20688064917E+03  0.12500000000E+03 0.  0.
         25    1    1    2    0    0  0.14335486992E+02 -0.10352475913E+03  0.27772514519E+03  0.32199245055E+03  0.12500000000E+03 0.  0.
</event>
<event>
 4    0  0.2168146E-002  0.2428453E+03  0.7546771E-02  0.1117912E+00
         21   -1    0    0  502  501  0.00000000000E+00  0.00000000000E+00  0.12287773255E+03  0.12287773255E+03  0.00000000000E+00 0. -1.
         21   -1    0    0  501  502 -0.00000000000E+00 -0.00000000000E+00 -0.47993907371E+03  0.47993907371E+03  0.00000000000E+00 0. -1.
         25    1    1    2    0    0  0.25075303659E+02 -0.20400163416E+03 -0.21975843128E+03  0.32582849125E+03  0.12500000000E+03 0.  0.
         25    1    1    2    0    0 -0.25075303659E+02  0.20400163416E+03 -0.13730290987E+03  0.27698831501E+03  0.12500000000E+03 0.  0.
</event>
<event>
 4    0  0.2168146E-002  0.1782728E+03  0.7546771E-02  0.1169485E+00
         21   -1    0    0  502  501  0.00000000000E+00  0.00000000000E+00  0.31254739521E+03  0.31254739521E+03  0.00000000000E+00 0.  1.
         21   -1    0    0  501  502 -0.00000000000E+00 -0.00000000000E+00 -0.10168437449E+03  0.10168437449E+03  0.00000000000E+00 0.  1.
         25    1    1    2    0    0  0.93613735788E+02 -0.81200403395E+02  0.13827447317E+03  0.22383446332E+03  0.12500000000E+03 0.  0.
         25    1    1    2    0    0 -0.93613735788E+02  0.81200403395E+02  0.72588547544E+02  0.19039730637E+03  0.12500000000E+03 0.  0.
</event>
<event>
 4    0  0.2168146E-002  0.2102545E+03  0.7546771E-02  0.1141365E+00
         21   -1    0    0  502  501  0.00000000000E+00  0.00000000000E+00  0.16005994031E+02  0.16005994031E+02  0.00000000000E+00 0. -1.
         21   -1    0    0  501  502 -0.00000000000E+00 -0.00000000000E+00 -0.27618988262E+04  0.27618988262E+04  0.00000000000E+00 0. -1.
         25    1    1    2    0    0  0.45001158574E+02  0.11010685793E+03 -0.57930348411E+03  0.60445525156E+03  0.12500000000E+03 0.  0.
         25    1    1    2    0    0 -0.45001158574E+02 -0.11010685793E+03 -0.21665893480E+04  0.21734495687E+04  0.12500000000E+03 0.  0.
</event>
<event>
 4    0  0.2168146E-002  0.2099803E+03  0.7546771E-02  0.1141582E+00
         21   -1    0    0  502  501  0.00000000000E+00  0.00000000000E+00  0.28397352569E+03  0.28397352569E+03  0.00000000000E+00 0.  1.
         21   -1    0    0  501  502 -0.00000000000E+00 -0.00000000000E+00 -0.15526703740E+03  0.15526703740E+03  0.00000000000E+00 0.  1.
         25    1    1    2    0    0  0.16347813739E+02  0.63547075092E+02 -0.98221676228E+02  0.17198249750E+03  0.12500000000E+03 0.  0.
         25    1    1    2    0    0 -0.16347813739E+02 -0.63547075092E+02  0.22692816452E+03  0.26725806558E+03  0.12500000000E+03 0.  0.
</event>
<event>
 4    0  0.2168146E-002  0.1923868E+03  0.7546771E-02  0.1156326E+00
         21   -1    0    0  502  501  0.00000000000E+00  0.00000000000E+00  0.76718122095E+02  0.76718122095E+02  0.00000000000E+00 0.  1.
         21   -1    0    0  501  502 -0.00000000000E+00 -0.00000000000E+00 -0.48245029130E+03  0.48245029130E+03  0.00000000000E+00 0. -1.
         25    1    1    2    0    0 -0.22047084125E+02  0.13617563470E+03 -0.27343137288E+03  0.33078632541E+03  0.12500000000E+03 0.  0.
         25    1    1    2    0    0  0.22047084125E+02 -0.13617563470E+03 -0.13230079633E+03  0.22838208799E+03  0.12500000000E+03 0.  0.
</event>
<event>
 4    0  0.2168146E-002  0.2371951E+03  0.7546771E-02  0.1121676E+00
         21   -1    0    0  502  501  0.00000000000E+00  0.00000000000E+00  0.67565866397E+03  0.67565866397E+03  0.00000000000E+00 0.  1.
         21   -1    0    0  501  502 -0.00000000000E+00 -0.00000000000E+00 -0.83269164701E+02  0.83269164701E+02  0.00000000000E+00 0.  1.
         25    1    1    2    0    0  0.18933731453E+03  0.59302607892E+02  0.35323179970E+03  0.42398481376E+03  0.12500000000E+03 0.  0.
         25    1    1    2    0    0 -0.18933731453E+03 -0.59302607892E+02  0.23915769957E+03  0.33494301492E+03  0.12500000000E+03 0.  0.
</event>
<event>
 4    0  0.2168146E-002  0.2154721E+03  0.7546771E-02  0.1137305E+00
         21   -1    0    0  502  501  0.00000000000E+00  0.00000000000E+00  0.22576905717E+03  0.22576905717E+03  0.00000000000E+00 0.  1.
         21   -1    0    0  501  502 -0.00000000000E+00 -0.00000000000E+00 -0.20564470318E+03  0.20564470318E+03  0.00000000000E+00 0.  1.
         25    1    1    2    0    0 -0.35510960361E+02  0.52672781934E+02 -0.15372467764E+03  0.20806664024E+03  0.12500000000E+03 0.  0.
         25    1    1    2    0    0  0.35510960361E+02 -0.52672781934E+02  0.17384903163E+03  0.22334712011E+03  0.12500000000E+03 0.  0.
</event>
<event>
 4    0  0.2168146E-002  0.2060392E+03  0.7546771E-02  0.1144741E+00
         21   -1    0    0  502  501  0.00000000000E+00  0.00000000000E+00  0.85152149038E+02  0.85152149038E+02  0.00000000000E+00 0. -1.
         21   -1    0    0  501  502 -0.00000000000E+00 -0.00000000000E+00 -0.49854483819E+03  0.49854483819E+03  0.00000000000E+00 0. -1.
         25    1    1    2    0    0  0.14616455347E+02 -0.12475136481E+03 -0.35559846123E+03  0.39730568762E+03  0.12500000000E+03 0.  0.
         25    1    1    2    0    0 -0.14616455347E+02  0.12475136481E+03 -0.57794227925E+02  0.18639129961E+03  0.12500000000E+03 0.  0.
</event>
<event>
 4    0  0.2168146E-002  0.1959418E+03  0.7546771E-02  0.1153209E+00
         21   -1    0    0  502  501  0.00000000000E+00  0.00000000000E+00  0.50158665663E+03  0.50158665663E+03  0.00000000000E+00 0.  1.
         21   -1    0    0  501  502 -0.00000000000E+00 -0.00000000000E+00 -0.76543459992E+02  0.76543459992E+02  0.00000000000E+00 0.  1.
         25    1    1    2    0    0 -0.22389565172E+02  0.11542013027E+03  0.35204936990E+03  0.39164634295E+03  0.12500000000E+03 0.  0.
         25    1    1    2    0    0  0.22389565172E+02 -0.11542013027E+03  0.72993826733E+02  0.18648377367E+03  0.12500000000E+03 0.  0.
</event>
<event>
 4    0  0.2168146E-002  0.1873033E+03  0.7546771E-02  0.1160916E+00
         21   -1    0    0  502  501  0.00000000000E+00  0.00000000000E+00  0.51432518613E+03  0.51432518613E+03  0.00000000000E+00 0. -1.
         21   -1    0    0  501  502 -0.00000000000E+00 -0.00000000000E+00 -0.68210756520E+02  0.68210756520E+02  0.00000000000E+00 0. -1.
         25    1    1    2    0    0  0.64875102354E+02 -0.35318108664E+02  0.40706345405E+03  0.43218260415E+03  0.12500000000E+03 0.  0.
         25    1    1    2    0    0 -0.64875102354E+02  0.35318108664E+02  0.39050975552E+02  0.15035333850E+03  0.12500000000E+03 0.  0.
</event>
<event>
 4    0  0.2168146E-002  0.1898564E+03  0.7546771E-02  0.1158591E+00
         21   -1    0    0  502  501  0.00000000000E+00  0.00000000000E+00  0.97717390566E+02  0.97717390566E+02  0.00000000000E+00 0.  1.
         21   -1    0    0  501  502 -0.00000000000E+00 -0.00000000000E+00 -0.36887465686E+03  0.36887465686E+03  0.00000000000E+00 0.  1.
         25    1    1    2    0    0  0.80800524350E+02 -0.50726813847E+02 -0.26630918579E+03  0.30926932731E+03  0.12500000000E+03 0.  0.
         25    1    1    2    0    0 -0.80800524350E+02  0.50726813847E+02 -0.48480804975E+01  0.15732272011E+03  0.12500000000E+03 0.  0.
</event>
<event>
 4    0  0.2168146E-002  0.1960347E+03  0.7546771E-02  0.1153128E+00
         21   -1    0    0  502  501  0.00000000000E+00  0.00000000000E+00  0.84262056757E+03  0.84262056757E+03  0.00000000000E+00 0. -1.
         21   -1    0    0  501  502 -0.00000000000E+00 -0.00000000000E+00 -0.45607231978E+02  0.45607231978E+02  0.00000000000E+00 0. -1.
         25    1    1    2    0    0 -0.13192890966E+03  0.63534217709E+02  0.48213834341E+03  0.51915721724E+03  0.12500000000E+03 0.  0.
         25    1    1    2    0    0  0.13192890966E+03 -0.63534217709E+02  0.31487499218E+03  0.36907058231E+03  0.12500000000E+03 0.  0.
</event>
<event>
 4    0  0.2168146E-002  0.2242897E+03  0.7546771E-02  0.1130725E+00
         21   -1    0    0  502  501  0.00000000000E+00  0.00000000000E+00  0.87034424995E+02  0.87034424995E+02  0.00000000000E+00 0. -1.
         21   -1    0    0  501  502 -0.00000000000E+00 -0.00000000000E+00 -0.57799989383E+03  0.57799989383E+03  0.00000000000E+00 0. -1.
         25    1    1    2    0    0 -0.81722615789E+02 -0.13672337970E+03 -0.38852244742E+03  0.43811706271E+03  0.12500000000E+03 0.  0.
         25    1    1    2    0    0  0.81722615789E+02  0.13672337970E+03 -0.10244302142E+03  0.22691725612E+03  0.12500000000E+03 0.  0.
</event>
<event>
 4    0  0.2168146E-002  0.1803239E+03  0.7546771E-02  0.1167490E+00
         21   -1    0    0  502  501  0.00000000000E+00  0.00000000000E+00  0.43423141742E+02  0.43423141742E+02  0.00000000000E+00 0.  1.
         21   -1    0    0  501  502 -0.00000000000E+00 -0.00000000000E+00 -0.74883371002E+03  0.74883371002E+03  0.00000000000E+00 0.  1.
         25    1    1    2    0    0 -0.67718440894E+02  0.10901378021E+03 -0.30758226283E+03  0.35595173819E+03  0.12500000000E+03 0.  0.
         25    1    1    2    0    0  0.67718440894E+02 -0.10901378021E+03 -0.39782830545E+03  0.43630511357E+03  0.12500000000E+03 0.  0.
</event>
<event>
 4    0  0.2168146E-002  0.2427414E+03  0.7546771E-02  0.1117980E+00
         21   -1    0    0  502  501  0.00000000000E+00  0.00000000000E+00  0.75779476996E+03  0.75779476996E+03  0.00000000000E+00 0. -1.
         21   -1    0    0  501  502 -0.00000000000E+00 -0.00000000000E+00 -0.77756402027E+02  0.77756402027E+02  0.00000000000E+00 0. -1.
         25    1    1    2    0    0 -0.20353403294E+03 -0.41568255962E+02  0.36069873689E+03  0.43460626004E+03  0.12500000000E+03 0.  0.
         25    1    1    2    0    0  0.20353403294E+03  0.41568255962E+02  0.31933963104E+03  0.40094491195E+03  0.12500000000E+03 0.  0.
</event>
<event>
 4    0  0.2168146E-002  0.3406517E+03  0.7546771E-02  0.1066519E+00
         21   -1    0    0  502  501  0.00000000000E+00  0.00000000000E+00  0.27508986433E+03  0.27508986433E+03  0.00000000000E+00 0.  1.
         21   -1    0    0  501  502 -0.00000000000E+00 -0.00000000000E+00 -0.42183885498E+03  0.42183885498E+03  0.00000000000E+00 0.  1.
         25    1    1    2    0    0  0.11949658465E+03  0.27022423694E+03  0.43786202379E+02  0.32379438459E+03  0.12500000000E+03 0.  0.
         25    1    1    2    0    0 -0.11949658465E+03 -0.27022423694E+03 -0.19053519302E+03  0.37313433472E+03  0.12500000000E+03 0.  0.
</event>
<event>
 4    0  0.2168146E-002  0.1925747E+03  0.7546771E-02  0.1156159E+00
         21   -1    0    0  502  501  0.00000000000E+00  0.00000000000E+00  0.58552300646E+02  0.58552300646E+02  0.00000000000E+00 0. -1.
         21   -1    0    0  501  502 -0.00000000000E+00 -0.00000000000E+00 -0.63336574067E+03  0.63336574067E+03  0.00000000000E+00 0. -1.
         25    1    1    2    0    0  0.40605832815E+02  0.62422194538E+02 -0.60773255649E+02  0.15768244237E+03  0.12500000000E+03 0.  0.
         25    1    1    2    0    0 -0.40605832815E+02 -0.62422194538E+02 -0.51404018438E+03  0.53423559895E+03  0.12500000000E+03 0.  0.
</event>
<event>
 4    0  0.2168146E-002  0.2309989E+03  0.7546771E-02  0.1125939E+00
         21   -1    0    0  502  501  0.00000000000E+00  0.00000000000E+00  0.67876165227E+02  0.67876165227E+02  0.00000000000E+00 0. -1.
         21   -1    0    0  501  502 -0.00000000000E+00 -0.00000000000E+00 -0.78614505403E+03  0.78614505403E+03  0.00000000000E+00 0. -1.
         25    1    1    2    0    0  0.12226917470E+03  0.14722452660E+03 -0.29752789051E+03  0.37519682561E+03  0.12500000000E+03 0.  0.
         25    1    1    2    0    0 -0.12226917470E+03 -0.14722452660E+03 -0.42074099829E+03  0.47882439365E+03  0.12500000000E+03 0.  0.
</event>
<event>
 4    0  0.2168146E-002  0.2230248E+03  0.7546771E-02  0.1131648E+00
         21   -1    0    0  502  501  0.00000000000E+00  0.00000000000E+00  0.19117145167E+03  0.19117145167E+03  0.00000000000E+00 0.  1.
         21   -1    0    0  501  502 -0.00000000000E+00 -0.00000000000E+00 -0.26018568572E+03  0.26018568572E+03  0.00000000000E+00 0.  1.
         25    1    1    2    0    0  0.34825262928E+02  0.17333553950E+03  0.19580433820E+02  0.21740837513E+03  0.12500000000E+03 0.  0.
         25    1    1    2    0    0 -0.34825262928E+02 -0.17333553950E+03 -0.88594667869E+02  0.23394876226E+03  0.12500000000E+03 0.  0.
</event>
<event>
 4    0  0.2168146E-002  0.2356618E+03  0.7546771E-02  0.1122717E+00
         21   -1    0    0  502  501  0.00000000000E+00  0.00000000000E+00  0.28041057135E+03  0.28041057135E+03  0.00000000000E+00 0.  1.
         21   -1    0    0  501  502 -0.00000000000E+00 -0.00000000000E+00 -0.19805424939E+03  0.19805424939E+03  0.00000000000E+00 0.  1.
         25    1    1    2    0    0  0.15789457669E+03 -0.35707594730E+02 -0.77667286508E+02  0.21877599746E+03  0.12500000000E+03 0.  0.
         25    1    1    2    0    0 -0.15789457669E+03  0.35707594730E+02  0.16002360846E+03  0.25968882328E+03  0.12500000000E+03 0.  0.
</event>
<event>
 4    0  0.2168146E-002  0.2156490E+03  0.7546771E-02  0.1137169E+00
         21   -1    0    0  502  501  0.00000000000E+00  0.00000000000E+00  0.95263215232E+02  0.95263215232E+02  0.00000000000E+00 0. -1.
         21   -1    0    0  501  502 -0.00000000000E+00 -0.00000000000E+00 -0.48816829204E+03  0.48816829204E+03  0.00000000000E+00 0. -1.
         25    1    1    2    0    0 -0.14148892975E+03 -0.37566134919E+02 -0.32794741694E+03  0.38026943082E+03  0.12500000000E+03 0.  0.
         25    1    1    2    0    0  0.14148892975E+03  0.37566134919E+02 -0.64957659862E+02  0.20316207645E+03  0.12500000000E+03 0.  0.
</event>
<event>
 4    0  0.2168146E-002  0.1562376E+03  0.7546771E-02  0.1193011E+00
         21   -1    0    0  502  501  0.00000000000E+00  0.00000000000E+00  0.27973784300E+02  0.27973784300E+02  0.00000000000E+00 0. -1.
         21   -1    0    0  501  502 -0.00000000000E+00 -0.00000000000E+00 -0.87260896487E+03  0.87260896487E+03  0.00000000000E+00 0. -1.
         25    1    1    2    0    0 -0.16916500952E+02  0.30788714689E+02 -0.17187268573E+03  0.21540504417E+03  0.12500000000E+03 0.  0.
         25    1    1    2    0    0  0.16916500952E+02 -0.30788714689E+02 -0.67276249484E+03  0.68517770499E+03  0.12500000000E+03 0.  0.
</event>
<event>
 4    0  0.2168146E-002  0.2288787E+03  0.7546771E-02  0.1127431E+00
         21   -1    0    0  502  501  0.00000000000E+00  0.00000000000E+00  0.12414975501E+04  0.12414975501E+04  0.00000000000E+00 0.  1.
         21   -1    0    0  501  502 -0.00000000000E+00 -0.00000000000E+00 -0.42195384885E+02  0.42195384885E+02  0.00000000000E+00 0.  1.
         25    1    1    2    0    0  0.14471608841E+02  0.99807357910E+01  0.11350567913E+04  0.11420542728E+04  0.12500000000E+03 0.  0.
         25    1    1    2    0    0 -0.14471608841E+02 -0.99807357910E+01  0.64245373875E+02  0.14163866214E+03  0.12500000000E+03 0.  0.
</event>
<event>
 4    0  0.2168146E-002  0.3904305E+03  0.7546771E-02  0.1047145E+00
         21   -1    0    0  502  501  0.00000000000E+00  0.00000000000E+00  0.90406995032E+03  0.90406995032E+03  0.00000000000E+00 0.  1.
         21   -1    0    0  501  502 -0.00000000000E+00 -0.00000000000E+00 -0.16861084033E+03  0.16861084033E+03  0.00000000000E+00 0.  1.
         25    1    1    2    0    0  0.11793271485E+03  0.32211635726E+03  0.55779895031E+03  0.66665713962E+03  0.12500000000E+03 0.  0.
         25    1    1    2    0    0 -0.11793271485E+03 -0.32211635726E+03  0.17766015968E+03  0.40602365102E+03  0.12500000000E+03 0.  0.
</event>
<event>
 4    0  0.2168146E-002  0.2553200E+03  0.7546771E-02  0.1109988E+00
         21   -1    0    0  502  501  0.00000000000E+00  0.00000000000E+00  0.18756709371E+03  0.18756709371E+03  0.00000000000E+00 0. -1.
         21   -1    0    0  501  502 -0.00000000000E+00 -0.00000000000E+00 -0.34754655357E+03  0.34754655357E+03  0.00000000000E+00 0. -1.
         25    1    1    2    0    0 -0.71818740775E+02 -0.14911135203E+03  0.76046526112E+02  0.22090767521E+03  0.12500000000E+03 0.  0.
         25    1    1    2    0    0  0.71818740775E+02  0.14911135203E+03 -0.23602598597E+03  0.31420597207E+03  0.12500000000E+03 0.  0.
</event>
<event>
 4    0  0.2168146E-002  0.1889279E+03  0.7546771E-02  0.1159432E+00
         21   -1    0    0  502  501  0.00000000000E+00  0.00000000000E+00  0.51813625630E+02  0.51813625630E+02  0.00000000000E+00 0. -1.
         21   -1    0    0  501  502 -0.00000000000E+00 -0.00000000000E+00 -0.68888699708E+03  0.68888699708E+03  0.00000000000E+00 0. -1.
         25    1    1    2    0    0  0.80183230213E+02 -0.99670903493E+01 -0.54663742738E+03  0.56653876329E+03  0.12500000000E+03 0.  0.
         25    1    1    2    0    0 -0.80183230213E+02  0.99670903493E+01 -0.90435944073E+02  0.17416185942E+03  0.12500000000E+03 0.  0.
</event>
<event>
 4    0  0.2168146E-002  0.3368518E+03  0.7546771E-02  0.1068145E+00
         21   -1    0    0  502  501  0.00000000000E+00  0.00000000000E+00  0.25799351472E+03  0.25799351472E+03  0.00000000000E+00 0. -1.
         21   -1    0    0  501  502 -0.00000000000E+00 -0.00000000000E+00 -0.43981395893E+03  0.43981395893E+03  0.00000000000E+00 0. -1.
         25    1    1    2    0    0  0.30975788171E+03 -0.37949475587E+02 -0.11298083069E+03  0.35465444602E+03  0.12500000000E+03 0.  0.
         25    1    1    2    0    0 -0.30975788171E+03  0.37949475587E+02 -0.68839613518E+02  0.34315302763E+03  0.12500000000E+03 0.  0.
</event>
<event>
 4    0  0.2168146E-002  0.2230655E+03  0.7546771E-02  0.1131618E+00
         21   -1    0    0  502  501  0.00000000000E+00  0.00000000000E+00  0.67448775889E+02  0.67448775889E+02  0.00000000000E+00 0. -1.
         21   -1    0    0  501  502 -0.00000000000E+00 -0.00000000000E+00 -0.73771871059E+03  0.73771871059E+03  0.00000000000E+00 0. -1.
         25    1    1    2    0    0  0.18347428465E+03  0.12567162799E+02 -0.30323185781E+03  0.37602567240E+03  0.12500000000E+03 0.  0.
         25    1    1    2    0    0 -0.18347428465E+03 -0.12567162799E+02 -0.36703807689E+03  0.42914181408E+03  0.12500000000E+03 0.  0.
</event>
<event>
 4    0  0.2168146E-002  0.1695830E+03  0.7546771E-02  0.1178283E+00
         21   -1    0    0  502  501  0.00000000000E+00  0.00000000000E+00  0.14061944256E+04  0.14061944256E+04  0.00000000000E+00 0.  1.
         21   -1    0    0  501  502 -0.00000000000E+00 -0.00000000000E+00 -0.20451218823E+02  0.20451218823E+02  0.00000000000E+00 0.  1.
         25    1    1    2    0    0 -0.42351935991E+02  0.34341440183E+02  0.11168644934E+04  0.11251596853E+04  0.12500000000E+03 0.  0.
         25    1    1    2    0    0  0.42351935991E+02 -0.34341440183E+02  0.26887871347E+03  0.30148595913E+03  0.12500000000E+03 0.  0.
</event>
<event>
 4    0  0.2168146E-002  0.1973786E+03  0.7546771E-02  0.1151970E+00
         21   -1    0    0  502  501  0.00000000000E+00  0.00000000000E+00  0.41767355321E+03  0.41767355321E+03  0.00000000000E+00 0.  1.
         21   -1    0    0  501  502 -0.00000000000E+00 -0.00000000000E+00 -0.93274522232E+02  0.93274522232E+02  0.00000000000E+00 0.  1.
         25    1    1    2    0    0 -0.11111052829E+03  0.86806167292E+02  0.86147645611E+02  0.20718898866E+03  0.12500000000E+03 0.  0.
         25    1    1    2    0    0  0.11111052829E+03 -0.86806167292E+02  0.23825138537E+03  0.30375908679E+03  0.12500000000E+03 0.  0.
</event>
<event>
 4    0  0.2168146E-002  0.2864789E+03  0.7546771E-02  0.1092202E+00
         21   -1    0    0  502  501  0.00000000000E+00  0.00000000000E+00  0.42305198203E+03  0.42305198203E+03  0.00000000000E+00 0.  1.
         21   -1    0    0  501  502 -0.00000000000E+00 -0.00000000000E+00 -0.19399539943E+03  0.19399539943E+03  0.00000000000E+00 0.  1.
         25    1    1    2    0    0 -0.15593921788E+03  0.17603632836E+03  0.86373158973E+00  0.26632982298E+03  0.12500000000E+03 0.  0.
         25    1    1    2    0    0  0.15593921788E+03 -0.17603632836E+03  0.22819285102E+03  0.35071755849E+03  0.12500000000E+03 0.  0.
</event>
<event>
 4    0  0.2168146E-002  0.2682733E+03  0.7546771E-02  0.1102272E+00
         21   -1    0    0  502  501  0.00000000000E+00  0.00000000000E+00  0.83716959155E+02  0.83716959155E+02  0.00000000000E+00 0. -1.
         21   -1    0    0  501  502 -0.00000000000E+00 -0.00000000000E+00 -0.85968944090E+03  0.85968944090E+03  0.00000000000E+00 0. -1.
         25    1    1    2    0    0  0.18564970922E+02 -0.15694484304E+02 -0.80316172240E+03  0.81319415105E+03  0.12500000000E+03 0.  0.
         25    1    1    2    0    0 -0.18564970922E+02  0.15694484304E+02  0.27189240652E+02  0.13021224900E+03  0.12500000000E+03 0.  0.
</event>
<event>
 4    0  0.2168146E-002  0.2720781E+03  0.7546771E-02  0.1100096E+00
         21   -1    0    0  502  501  0.00000000000E+00  0.00000000000E+00  0.22790031439E+03  0.22790031439E+03  0.00000000000E+00 0.  1.
         21   -1    0    0  501  502 -0.00000000000E+00 -0.00000000000E+00 -0.32481966555E+03  0.32481966555E+03  0.00000000000E+00 0.  1.
         25    1    1    2    0    0 -0.18187908346E+03  0.85017528161E+02  0.88169395217E+02  0.25240210646E+03  0.12500000000E+03 0.  0.
         25    1    1    2    0    0  0.18187908346E+03 -0.85017528161E+02 -0.18508874638E+03  0.30031787348E+03  0.12500000000E+03 0.  0.
</event>
<event>
 4    0  0.2168146E-002  0.2020465E+03  0.7546771E-02  0.1148024E+00
         21   -1    0    0  502  501  0.00000000000E+00  0.00000000000E+00  0.42982113013E+02  0.42982113013E+02  0.00000000000E+00 0. -1.
         21   -1    0    0  501  502 -0.00000000000E+00 -0.00000000000E+00 -0.94976246610E+03  0.94976246610E+03  0.00000000000E+00 0. -1.
         25    1    1    2    0    0  0.13726982410E+03  0.52787413970E+02 -0.30663760192E+03  0.36232738593E+03  0.12500000000E+03 0.  0.
         25    1    1    2    0    0 -0.13726982410E+03 -0.52787413970E+02 -0.60014275116E+03  0.63041719318E+03  0.12500000000E+03 0.  0.
</event>
<event>
 4    0  0.2168146E-002  0.2871538E+03  0.7546771E-02  0.1091845E+00
         21   -1    0    0  502  501  0.00000000000E+00  0.00000000000E+00  0.46214732654E+03  0.46214732654E+03  0.00000000000E+00 0. -1.
         21   -1    0    0  501  502 -0.00000000000E+00 -0.00000000000E+00 -0.17842216534E+03  0.17842216534E+03  0.00000000000E+00 0. -1.
         25    1    1    2    0    0  0.19372301114E+03 -0.85028000632E+02  0.30757755842E+03  0.39368429024E+03  0.12500000000E+03 0.  0.
         25    1    1    2    0    0 -0.19372301114E+03  0.85028000632E+02 -0.23852397215E+02  0.24688520164E+03  0.12500000000E+03 0.  0.
</event>
<event>
 4    0  0.2168146E-002  0.2417926E+03  0.7546771E-02  0.1118604E+00
         21   -1    0    0  502  501  0.00000000000E+00  0.00000000000E+00  0.54323577562E+03  0.54323577562E+03  0.00000000000E+00 0.  1.
         21   -1    0    0  501  502 -0.00000000000E+00 -0.00000000000E+00 -0.10762118859E+03  0.10762118859E+03  0.00000000000E+00 0.  1.
         25    1    1    2    0    0 -0.53144021062E+02  0.17488003584E+03  0.87100011184E+02  0.23794689714E+03  0.12500000000E+03 0.  0.
         25    1    1    2    0    0  0.53144021062E+02 -0.17488003584E+03  0.34851457585E+03  0.41291006707E+03  0.12500000000E+03 0.  0.
</event>
<event>
 4    0  0.2168146E-002  0.2393916E+03  0.7546771E-02  0.1120199E+00
         21   -1    0    0  502  501  0.00000000000E+00  0.00000000000E+00  0.94988306444E+02  0.94988306444E+02  0.00000000000E+00 0.  1.
         21   -1    0    0  501  502 -0.00000000000E+00 -0.00000000000E+00 -0.60331981205E+03  0.60331981205E+03  0.00000000000E+00 0.  1.
         25    1    1    2    0    0  0.98981719020E+01  0.13999856292E+03 -0.47042711250E+03  0.50658093095E+03  0.12500000000E+03 0.  0.
         25    1    1    2    0    0 -0.98981719020E+01 -0.13999856292E+03 -0.37904393110E+02  0.19172718755E+03  0.12500000000E+03 0.  0.
</event>
<event>
 4    0  0.2168146E-002  0.1808752E+03  0.7546771E-02  0.1166959E+00
         21   -1    0    0  502  501  0.00000000000E+00  0.00000000000E+00  0.12642377377E+03  0.12642377377E+03  0.00000000000E+00 0. -1.
         21   -1    0    0  501  502 -0.00000000000E+00 -0.00000000000E+00 -0.25877906172E+03  0.25877906172E+03  0.00000000000E+00 0. -1.
         25    1    1    2    0    0 -0.11139083341E+03  0.62688341123E+02 -0.36956245204E+02  0.18256097595E+03  0.12500000000E+03 0.  0.
         25    1    1    2    0    0  0.11139083341E+03 -0.62688341123E+02 -0.95399042746E+02  0.20264185954E+03  0.12500000000E+03 0.  0.
</event>
<event>
 4    0  0.2168146E-002  0.1980458E+03  0.7546771E-02  0.1151398E+00
         21   -1    0    0  502  501  0.00000000000E+00  0.00000000000E+00  0.59021654897E+02  0.59021654897E+02  0.00000000000E+00 0. -1.
         21   -1    0    0  501  502 -0.00000000000E+00 -0.00000000000E+00 -0.66453833199E+03  0.66453833199E+03  0.00000000000E+00 0. -1.
         25    1    1    2    0    0 -0.10121135013E+03 -0.30962645022E+02 -0.99383434890E+02  0.19158415882E+03  0.12500000000E+03 0.  0.
         25    1    1    2    0    0  0.10121135013E+03  0.30962645022E+02 -0.50613324220E+03  0.53197582806E+03  0.12500000000E+03 0.  0.
</event>
<event>
 4    0  0.2168146E-002  0.2312385E+03  0.7546771E-02  0.1125771E+00
         21   -1    0    0  502  501  0.00000000000E+00  0.00000000000E+00  0.49850456651E+02  0.49850456651E+02  0.00000000000E+00 0.  1.
         21   -1    0    0  501  502 -0.00000000000E+00 -0.00000000000E+00 -0.10726329292E+04  0.10726329292E+04  0.00000000000E+00 0.  1.
         25    1    1    2    0    0  0.65939337425E+02  0.11433623224E+03 -0.85826849946E+03  0.87730871841E+03  0.12500000000E+03 0.  0.
         25    1    1    2    0    0 -0.65939337425E+02 -0.11433623224E+03 -0.16451397313E+03  0.24517466749E+03  0.12500000000E+03 0.  0.
</event>
<event>
 4    0  0.2168146E-002  0.2087228E+03  0.7546771E-02  0.1142581E+00
         21   -1    0    0  502  501  0.00000000000E+00  0.00000000000E+00  0.95368318066E+02  0.95368318066E+02  0.00000000000E+00 0.  1.
         21   -1    0    0  501  502 -0.00000000000E+00 -0.00000000000E+00 -0.45680990999E+03  0.45680990999E+03  0.00000000000E+00 0.  1.
         25    1    1    2    0    0  0.41021784580E+02 -0.14434473478E+03 -0.27812088654E+03  0.33984469511E+03  0.12500000000E+03 0.  0.
         25    1    1    2    0    0 -0.41021784580E+02  0.14434473478E+03 -0.83320705394E+02  0.21233353295E+03  0.12500000000E+03 0.  0.
</event>
<event>
 4    0  0.2168146E-002  0.1789229E+03  0.7546771E-02  0.1168850E+00
         21   -1    0    0  502  501  0.00000000000E+00  0.00000000000E+00  0.36859059401E+03  0.36859059401E+03  0.00000000000E+00 0.  1.
         21   -1    0    0  501  502 -0.00000000000E+00 -0.00000000000E+00 -0.86853586704E+02  0.86853586704E+02  0.00000000000E+00 0.  1.
         25    1    1    2    0    0 -0.93486823343E+02  0.45558603620E+02  0.23588200892E+03  0.28649728557E+03  0.12500000000E+03 0.  0.
         25    1    1    2    0    0  0.93486823343E+02 -0.45558603620E+02  0.45854998377E+02  0.16894689514E+03  0.12500000000E+03 0.  0.
</event>
<event>
 4    0  0.2168146E-002  0.2822569E+03  0.7546771E-02  0.1094463E+00
         21   -1    0    0  502  501  0.00000000000E+00  0.00000000000E+00  0.25091306991E+03  0.25091306991E+03  0.00000000000E+00 0. -1.
         21   -1    0    0  501  502 -0.00000000000E+00 -0.00000000000E+00 -0.31751620247E+03  0.31751620247E+03  0.00000000000E+00 0.  1.
         25    1    1    2    0    0 -0.21017622031E+03  0.10370197246E+02  0.10825221660E+03  0.26762871104E+03  0.12500000000E+03 0.  0.
         25    1    1    2    0    0  0.21017622031E+03 -0.10370197246E+02 -0.17485534916E+03  0.30080056134E+03  0.12500000000E+03 0.  0.
</event>
<event>
 4    0  0.2168146E-002  0.1856969E+03  0.7546771E-02  0.1162401E+00
         21   -1    0    0  502  501  0.00000000000E+00  0.00000000000E+00  0.66666653036E+02  0.66666653036E+02  0.00000000000E+00 0. -1.
         21   -1    0    0  501  502 -0.00000000000E+00 -0.00000000000E+00 -0.51724994374E+03  0.51724994374E+03  0.00000000000E+00 0. -1.
         25    1    1    2    0    0  0.70581409793E+02 -0.87563440393E+02 -0.10140195107E+03  0.19635795676E+03  0.12500000000E+03 0.  0.
         25    1    1    2    0    0 -0.70581409793E+02  0.87563440393E+02 -0.34918133964E+03  0.38755864002E+03  0.12500000000E+03 0.  0.
</event>
<event>
 4    0  0.2168146E-002  0.2183141E+03  0.7546771E-02  0.1135146E+00
         21   -1    0    0  502  501  0.00000000000E+00  0.00000000000E+00  0.40018311240E+03  0.40018311240E+03  0.00000000000E+00 0.  1.
         21   -1    0    0  501  502 -0.00000000000E+00 -0.00000000000E+00 -0.11909814716E+03  0.11909814716E+03  0.00000000000E+00 0.  1.
         25    1    1    2    0    0  0.15966057078E+02  0.86463974519E+02 -0.44870344751E+02  0.15927737349E+03  0.12500000000E+03 0.  0.
         25    1    1    2    0    0 -0.15966057078E+02 -0.86463974519E+02  0.32595531000E+03  0.36000388607E+03  0.12500000000E+03 0.  0.
</event>
<event>
 4    0  0.2168146E-002  0.3345011E+03  0.7546771E-02  0.1069162E+00
         21   -1    0    0  502  501  0.00000000000E+00  0.00000000000E+00  0.14279965094E+03  0.14279965094E+03  0.00000000000E+00 0. -1.
         21   -1    0    0  501  502 -0.00000000000E+00 -0.00000000000E+00 -0.78355240562E+03  0.78355240562E+03  0.00000000000E+00 0. -1.
         25    1    1    2    0    0  0.30668231512E+03  0.36223703974E+02 -0.27884043214E+03  0.43444583752E+03  0.12500000000E+03 0.  0.
         25    1    1    2    0    0 -0.30668231512E+03 -0.36223703974E+02 -0.36191232253E+03  0.49190621904E+03  0.12500000000E+03 0.  0.
</event>
<event>
 4    0  0.2168146E-002  0.2314938E+03  0.7546771E-02  0.1125593E+00
         21   -1    0    0  502  501  0.00000000000E+00  0.00000000000E+00  0.44445475166E+02  0.44445475166E+02  0.00000000000E+00 0.  1.
         21   -1    0    0  501  502 -0.00000000000E+00 -0.00000000000E+00 -0.12057329156E+04  0.12057329156E+04  0.00000000000E+00 0.  1.
         25    1    1    2    0    0  0.16324922166E+03 -0.41647268077E+02 -0.31635681650E+03  0.37959378111E+03  0.12500000000E+03 0.  0.
         25    1    1    2    0    0 -0.16324922166E+03  0.41647268077E+02 -0.84493062398E+03  0.87058460970E+03  0.12500000000E+03 0.  0.
</event>
<event>
 4    0  0.2168146E-002  0.2055909E+03  0.7546771E-02  0.1145106E+00
         21   -1    0    0  502  501  0.00000000000E+00  0.00000000000E+00  0.40185445276E+03  0.40185445276E+03  0.00000000000E+00 0.  1.
         21   -1    0    0  501  502 -0.00000000000E+00 -0.00000000000E+00 -0.10518145045E+03  0.10518145045E+03  0.00000000000E+00 0.  1.
         25    1    1    2    0    0 -0.24770426952E+02 -0.15098963436E+03  0.78241664655E+02  0.21250459248E+03  0.12500000000E+03 0.  0.
         25    1    1    2    0    0  0.24770426952E+02  0.15098963436E+03  0.21843133765E+03  0.29453131073E+03  0.12500000000E+03 0.  0.
</event>
<event>
 4    0  0.2168146E-002  0.2907132E+03  0.7546771E-02  0.1089977E+00
         21   -1    0    0  502  501  0.00000000000E+00  0.00000000000E+00  0.11492806905E+03  0.11492806905E+03  0.00000000000E+00 0.  1.
         21   -1    0    0  501  502 -0.00000000000E+00 -0.00000000000E+00 -0.73536587474E+03  0.73536587474E+03  0.00000000000E+00 0.  1.
         25    1    1    2    0    0 -0.10226845857E+03 -0.19763852338E+03 -0.10668728010E+03  0.27663513746E+03  0.12500000000E+03 0.  0.
         25    1    1    2    0    0  0.10226845857E+03  0.19763852338E+03 -0.51375052560E+03  0.57365880634E+03  0.12500000000E+03 0.  0.
</event>
<event>
 4    0  0.2168146E-002  0.2438219E+03  0.7546771E-02  0.1117273E+00
         21   -1    0    0  502  501  0.00000000000E+00  0.00000000000E+00  0.23518991542E+03  0.23518991542E+03  0.00000000000E+00 0.  1.
         21   -1    0    0  501  502 -0.00000000000E+00 -0.00000000000E+00 -0.25277063090E+03  0.25277063090E+03  0.00000000000E+00 0.  1.
         25    1    1    2    0    0 -0.82698011219E+02  0.13337230245E+03 -0.14743350724E+03  0.24897544292E+03  0.12500000000E+03 0.  0.
         25    1    1    2    0    0  0.82698011219E+02 -0.13337230245E+03  0.12985279176E+03  0.23898510340E+03  0.12500000000E+03 0.  0.
</event>
<event>
 4    0  0.2168146E-002  0.2452613E+03  0.7546771E-02  0.1116337E+00
         21   -1    0    0  502  501  0.00000000000E+00  0.00000000000E+00  0.34885995834E+03  0.34885995834E+03  0.00000000000E+00 0.  1.
         21   -1    0    0  501  502 -0.00000000000E+00 -0.00000000000E+00 -0.17242768585E+03  0.17242768585E+03  0.00000000000E+00 0.  1.
         25    1    1    2    0    0  0.19637929208E+03 -0.67781448064E+02  0.48896053299E+02  0.24733575376E+03  0.12500000000E+03 0.  0.
         25    1    1    2    0    0 -0.19637929208E+03  0.67781448064E+02  0.12753621919E+03  0.27395189043E+03  0.12500000000E+03 0.  0.
</event>
<event>
 4    0  0.2168146E-002  0.2080388E+03  0.7546771E-02  0.1143128E+00
         21   -1    0    0  502  501  0.00000000000E+00  0.00000000000E+00  0.57120234700E+03  0.57120234700E+03  0.00000000000E+00 0.  1.
         21   -1    0    0  501  502 -0.00000000000E+00 -0.00000000000E+00 -0.75770280072E+02  0.75770280072E+02  0.00000000000E+00 0.  1.
         25    1    1    2    0    0  0.64471149811E+02 -0.63875263273E+02  0.31035325911E+02  0.15755878227E+03  0.12500000000E+03 0.  0.
         25    1    1    2    0    0 -0.64471149811E+02  0.63875263273E+02  0.46439674102E+03  0.48941384481E+03  0.12500000000E+03 0.  0.
</event>
<event>
 4    0  0.2168146E-002  0.2204177E+03  0.7546771E-02  0.1133572E+00
         21   -1    0    0  502  501  0.00000000000E+00  0.00000000000E+00  0.21812550456E+03  0.21812550456E+03  0.00000000000E+00 0.  1.
         21   -1    0    0  501  502 -0.00000000000E+00 -0.00000000000E+00 -0.22273395730E+03  0.22273395730E+03  0.00000000000E+00 0.  1.
         25    1    1    2    0    0  0.74078050211E+02 -0.94517260585E+02  0.13385712147E+03  0.21900639041E+03  0.12500000000E+03 0.  0.
         25    1    1    2    0    0 -0.74078050211E+02  0.94517260585E+02 -0.13846557421E+03  0.22185307145E+03  0.12500000000E+03 0.  0.
</event>
<event>
 4    0  0.2168146E-002  0.2057280E+03  0.7546771E-02  0.1144994E+00
         21   -1    0    0  502  501  0.00000000000E+00  0.00000000000E+00  0.35425949850E+03  0.35425949850E+03  0.00000000000E+00 0.  1.
         21   -1    0    0  501  502 -0.00000000000E+00 -0.00000000000E+00 -0.11947177456E+03  0.11947177456E+03  0.00000000000E+00 0.  1.
         25    1    1    2    0    0 -0.94323619336E+02 -0.37925078344E+02 -0.29888291134E+02  0.16387057905E+03  0.12500000000E+03 0.  0.
         25    1    1    2    0    0  0.94323619336E+02  0.37925078344E+02  0.26467601507E+03  0.30986069400E+03  0.12500000000E+03 0.  0.
</event>
<event>
 4    0  0.2168146E-002  0.3415659E+03  0.7546771E-02  0.1066131E+00
         21   -1    0    0  502  501  0.00000000000E+00  0.00000000000E+00  0.25229939238E+03  0.25229939238E+03  0.00000000000E+00 0.  1.
         21   -1    0    0  501  502 -0.00000000000E+00 -0.00000000000E+00 -0.46241604513E+03  0.46241604513E+03  0.00000000000E+00 0.  1.
         25    1    1    2    0    0 -0.51232129512E+02  0.19514321704E+03  0.15193350872E+03  0.28180560201E+03  0.12500000000E+03 0.  0.
         25    1    1    2    0    0  0.51232129512E+02 -0.19514321704E+03 -0.36205016147E+03  0.43290983550E+03  0.12500000000E+03 0.  0.
</event>
<event>
 4    0  0.2168146E-002  0.4865620E+03  0.7546771E-02  0.1017347E+00
         21   -1    0    0  502  501  0.00000000000E+00  0.00000000000E+00  0.36571065006E+03  0.36571065006E+03  0.00000000000E+00 0. -1.
         21   -1    0    0  501  502 -0.00000000000E+00 -0.00000000000E+00 -0.64734936258E+03  0.64734936258E+03  0.00000000000E+00 0. -1.
         25    1    1    2    0    0  0.26623683320E+03  0.15743930134E+03  0.22790304624E+03  0.40402225612E+03  0.12500000000E+03 0.  0.
         25    1    1    2    0    0 -0.26623683320E+03 -0.15743930134E+03 -0.50954175875E+03  0.60903775652E+03  0.12500000000E+03 0.  0.
</event>
<event>
 4    0  0.2168146E-002  0.1775372E+03  0.7546771E-02  0.1170208E+00
         21   -1    0    0  502  501  0.00000000000E+00  0.00000000000E+00  0.49628194771E+02  0.49628194771E+02  0.00000000000E+00 0. -1.
         21   -1    0    0  501  502 -0.00000000000E+00 -0.00000000000E+00 -0.63511163097E+03  0.63511163097E+03  0.00000000000E+00 0. -1.
         25    1    1    2    0    0 -0.29520061377E+02 -0.12156824379E+03 -0.32287553009E+03  0.36813568130E+03  0.12500000000E+03 0.  0.
         25    1    1    2    0    0  0.29520061377E+02  0.12156824379E+03 -0.26260790612E+03  0.31660414444E+03  0.12500000000E+03 0.  0.
</event>
<event>
 4    0  0.2168146E-002  0.1631538E+03  0.7546771E-02  0.1185181E+00
         21   -1    0    0  502  501  0.00000000000E+00  0.00000000000E+00  0.44985216107E+02  0.44985216107E+02  0.00000000000E+00 0. -1.
         21   -1    0    0  501  502 -0.00000000000E+00 -0.00000000000E+00 -0.59173131640E+03  0.59173131640E+03  0.00000000000E+00 0. -1.
         25    1    1    2    0    0 -0.56449084138E+02  0.37780706930E+02 -0.42923454068E+03  0.45219594406E+03  0.12500000000E+03 0.  0.
         25    1    1    2    0    0  0.56449084138E+02 -0.37780706930E+02 -0.11751155961E+03  0.18452058844E+03  0.12500000000E+03 0.  0.
</event>
<event>
 4    0  0.2168146E-002  0.2173736E+03  0.7546771E-02  0.1135856E+00
         21   -1    0    0  502  501  0.00000000000E+00  0.00000000000E+00  0.87408012723E+02  0.87408012723E+02  0.00000000000E+00 0. -1.
         21   -1    0    0  501  502 -0.00000000000E+00 -0.00000000000E+00 -0.54058298689E+03  0.54058298689E+03  0.00000000000E+00 0. -1.
         25    1    1    2    0    0  0.65953124508E+01 -0.11681007803E+03 -0.33120909372E+02  0.17438488212E+03  0.12500000000E+03 0.  0.
         25    1    1    2    0    0 -0.65953124508E+01  0.11681007803E+03 -0.42005406480E+03  0.45360611749E+03  0.12500000000E+03 0.  0.
</event>
<event>
 4    0  0.2168146E-002  0.2415166E+03  0.7546771E-02  0.1118787E+00
         21   -1    0    0  502  501  0.00000000000E+00  0.00000000000E+00  0.16456852810E+03  0.16456852810E+03  0.00000000000E+00 0. -1.
         21   -1    0    0  501  502 -0.00000000000E+00 -0.00000000000E+00 -0.35444361552E+03  0.35444361552E+03  0.00000000000E+00 0. -1.
         25    1    1    2    0    0  0.10396902501E+03  0.97344115375E+02 -0.25582296853E+03  0.31836429792E+03  0.12500000000E+03 0.  0.
         25    1    1    2    0    0 -0.10396902501E+03 -0.97344115375E+02  0.65947881110E+02  0.20064784570E+03  0.12500000000E+03 0.  0.
</event>
<event>
 4    0  0.2168146E-002  0.2050375E+03  0.7546771E-02  0.1145557E+00
         21   -1    0    0  502  501  0.00000000000E+00  0.00000000000E+00  0.10968515202E+04  0.10968515202E+04  0.00000000000E+00 0. -1.
         21   -1    0    0  501  502 -0.00000000000E+00 -0.00000000000E+00 -0.38328217114E+02  0.38328217114E+02  0.00000000000E+00 0. -1.
         25    1    1    2    0    0 -0.34301889713E+02 -0.78949826723E+02  0.14763123685E+03  0.21173019830E+03  0.12500000000E+03 0.  0.
         25    1    1    2    0    0  0.34301889713E+02  0.78949826723E+02  0.91089206623E+03  0.92344953901E+03  0.12500000000E+03 0.  0.
</event>
<event>
 4    0  0.2168146E-002  0.2444118E+03  0.7546771E-02  0.1116888E+00
         21   -1    0    0  502  501  0.00000000000E+00  0.00000000000E+00  0.34515989240E+03  0.34515989240E+03  0.00000000000E+00 0. -1.
         21   -1    0    0  501  502 -0.00000000000E+00 -0.00000000000E+00 -0.17307094550E+03  0.17307094550E+03  0.00000000000E+00 0. -1.
         25    1    1    2    0    0 -0.16319191370E+03 -0.78002922270E+02  0.19921907946E+03  0.29669731748E+03  0.12500000000E+03 0.  0.
         25    1    1    2    0    0  0.16319191370E+03  0.78002922270E+02 -0.27130132554E+02  0.22153352042E+03  0.12500000000E+03 0.  0.
</event>
<event>
 4    0  0.2168146E-002  0.2008309E+03  0.7546771E-02  0.1149040E+00
         21   -1    0    0  502  501  0.00000000000E+00  0.00000000000E+00  0.25884525255E+03  0.25884525255E+03  0.00000000000E+00 0.  1.
         21   -1    0    0  501  502 -0.00000000000E+00 -0.00000000000E+00 -0.15581914378E+03  0.15581914378E+03  0.00000000000E+00 0.  1.
         25    1    1    2    0    0  0.36550478511E+02 -0.15276130421E+03  0.45310905198E+02  0.20579123323E+03  0.12500000000E+03 0.  0.
         25    1    1    2    0    0 -0.36550478511E+02  0.15276130421E+03  0.57715203574E+02  0.20887316311E+03  0.12500000000E+03 0.  0.
</event>
<event>
 4    0  0.2168146E-002  0.1740793E+03  0.7546771E-02  0.1173659E+00
         21   -1    0    0  502  501  0.00000000000E+00  0.00000000000E+00  0.14439488590E+03  0.14439488590E+03  0.00000000000E+00 0.  1.
         21   -1    0    0  501  502 -0.00000000000E+00 -0.00000000000E+00 -0.20986612189E+03  0.20986612189E+03  0.00000000000E+00 0.  1.
         25    1    1    2    0    0 -0.11418131468E+03 -0.20898980868E+01 -0.73902816385E+02  0.18473864394E+03  0.12500000000E+03 0.  0.
         25    1    1    2    0    0  0.11418131468E+03  0.20898980868E+01  0.84315803973E+01  0.16952236385E+03  0.12500000000E+03 0.  0.
</event>
<event>
 4    0  0.2168146E-002  0.2155583E+03  0.7546771E-02  0.1137238E+00
         21   -1    0    0  502  501  0.00000000000E+00  0.00000000000E+00  0.58998057995E+03  0.58998057995E+03  0.00000000000E+00 0. -1.
         21   -1    0    0  501  502 -0.00000000000E+00 -0.00000000000E+00 -0.78757494964E+02  0.78757494964E+02  0.00000000000E+00 0.  1.
         25    1    1    2    0    0 -0.16544560392E+03  0.45278454525E+02  0.31402330663E+03  0.37902245765E+03  0.12500000000E+03 0.  0.
         25    1    1    2    0    0  0.16544560392E+03 -0.45278454525E+02  0.19719977836E+03  0.28971561726E+03  0.12500000000E+03 0.  0.
</event>
<event>
 4    0  0.2168146E-002  0.1971110E+03  0.7546771E-02  0.1152200E+00
         21   -1    0    0  502  501  0.00000000000E+00  0.00000000000E+00  0.43567860597E+03  0.43567860597E+03  0.00000000000E+00 0.  1.
         21   -1    0    0  501  502 -0.00000000000E+00 -0.00000000000E+00 -0.89177530211E+02  0.89177530211E+02  0.00000000000E+00 0.  1.
         25    1    1    2    0    0  0.30735979033E+02 -0.78464223393E+02  0.41798739893E+01  0.15081049733E+03  0.12500000000E+03 0.  0.
         25    1    1    2    0    0 -0.30735979033E+02  0.78464223393E+02  0.34232120177E+03  0.37404563885E+03  0.12500000000E+03 0.  0.
</event>
<event>
 4    0  0.2168146E-002  0.3717300E+03  0.7546771E-02  0.1054033E+00
         21   -1    0    0  502  501  0.00000000000E+00  0.00000000000E+00  0.81186166425E+03  0.81186166425E+03  0.00000000000E+00 0. -1.
         21   -1    0    0  501  502 -0.00000000000E+00 -0.00000000000E+00 -0.17020532746E+03  0.17020532746E+03  0.00000000000E+00 0. -1.
         25    1    1    2    0    0  0.13878753973E+03 -0.15077004420E+03 -0.54106530904E+02  0.24606117958E+03  0.12500000000E+03 0.  0.
         25    1    1    2    0    0 -0.13878753973E+03  0.15077004420E+03  0.69576286769E+03  0.73600581212E+03  0.12500000000E+03 0.  0.
</event>
<event>
 4    0  0.2168146E-002  0.1801302E+03  0.7546771E-02  0.1167677E+00
         21   -1    0    0  502  501  0.00000000000E+00  0.00000000000E+00  0.94342146703E+03  0.94342146703E+03  0.00000000000E+00 0.  1.
         21   -1    0    0  501  502 -0.00000000000E+00 -0.00000000000E+00 -0.34392780277E+02  0.34392780277E+02  0.00000000000E+00 0.  1.
         25    1    1    2    0    0  0.10449832616E+03 -0.12211077218E+02  0.24864940974E+03  0.29752401506E+03  0.12500000000E+03 0.  0.
         25    1    1    2    0    0 -0.10449832616E+03  0.12211077218E+02  0.66037927701E+03  0.68029023224E+03  0.12500000000E+03 0.  0.
</event>
<event>
 4    0  0.2168146E-002  0.1968231E+03  0.7546771E-02  0.1152447E+00
         21   -1    0    0  502  501  0.00000000000E+00  0.00000000000E+00  0.12644664854E+03  0.12644664854E+03  0.00000000000E+00 0. -1.
         21   -1    0    0  501  502 -0.00000000000E+00 -0.00000000000E+00 -0.30636887769E+03  0.30636887769E+03  0.00000000000E+00 0. -1.
         25    1    1    2    0    0  0.13965160756E+03  0.40333512646E+02 -0.40975102862E+02  0.19604418582E+03  0.12500000000E+03 0.  0.
         25    1    1    2    0    0 -0.13965160756E+03 -0.40333512646E+02 -0.13894712629E+03  0.23677134041E+03  0.12500000000E+03 0.  0.
</event>
<event>
 4    0  0.2168146E-002  0.2235372E+03  0.7546771E-02  0.1131273E+00
         21   -1    0    0  502  501  0.00000000000E+00  0.00000000000E+00  0.13401430625E+03  0.13401430625E+03  0.00000000000E+00 0. -1.
         21   -1    0    0  501  502 -0.00000000000E+00 -0.00000000000E+00 -0.37286234501E+03  0.37286234501E+03  0.00000000000E+00 0. -1.
         25    1    1    2    0    0 -0.20051422740E+02 -0.85385573497E+02 -0.30451288029E+03  0.34065503075E+03  0.12500000000E+03 0.  0.
         25    1    1    2    0    0  0.20051422740E+02  0.85385573497E+02  0.65664841526E+02  0.16622162052E+03  0.12500000000E+03 0.  0.
</event>
<event>
 4    0  0.2168146E-002  0.1525621E+03  0.7546771E-02  0.1197360E+00
         21   -1    0    0  502  501  0.00000000000E+00  0.00000000000E+00  0.27333307682E+03  0.27333307682E+03  0.00000000000E+00 0. -1.
         21   -1    0    0  501  502 -0.00000000000E+00 -0.00000000000E+00 -0.85153239336E+02  0.85153239336E+02  0.00000000000E+00 0. -1.
         25    1    1    2    0    0  0.17377855630E+01 -0.87145361589E+02  0.10263215657E+03  0.18372722582E+03  0.12500000000E+03 0.  0.
         25    1    1    2    0    0 -0.17377855630E+01  0.87145361589E+02  0.85547680916E+02  0.17475909034E+03  0.12500000000E+03 0.  0.
</event>
<event>
 4    0  0.2168146E-002  0.3210256E+03  0.7546771E-02  0.1075178E+00
         21   -1    0    0  502  501  0.00000000000E+00  0.00000000000E+00  0.29294443598E+03  0.29294443598E+03  0.00000000000E+00 0. -1.
         21   -1    0    0  501  502 -0.00000000000E+00 -0.00000000000E+00 -0.35179867879E+03  0.35179867879E+03  0.00000000000E+00 0. -1.
         25    1    1    2    0    0  0.48801753418E+01  0.13194304499E+03  0.23625664721E+03  0.29811908121E+03  0.12500000000E+03 0.  0.
         25    1    1    2    0    0 -0.48801753418E+01 -0.13194304499E+03 -0.29511089002E+03  0.34662403356E+03  0.12500000000E+03 0.  0.
</event>
<event>
 4    0  0.2168146E-002  0.2830506E+03  0.7546771E-02  0.1094034E+00
         21   -1    0    0  502  501  0.00000000000E+00  0.00000000000E+00  0.87014724393E+03  0.87014724393E+03  0.00000000000E+00 0. -1.
         21   -1    0    0  501  502 -0.00000000000E+00 -0.00000000000E+00 -0.92073658379E+02  0.92073658379E+02  0.00000000000E+00 0. -1.
         25    1    1    2    0    0 -0.16151921650E+02 -0.17860105551E+03  0.83399370246E+02  0.23396511825E+03  0.12500000000E+03 0.  0.
         25    1    1    2    0    0  0.16151921650E+02  0.17860105551E+03  0.69467421530E+03  0.72825578405E+03  0.12500000000E+03 0.  0.
</event>
<event>
 4    0  0.2168146E-002  0.2632801E+03  0.7546771E-02  0.1105188E+00
         21   -1    0    0  502  501  0.00000000000E+00  0.00000000000E+00  0.45616528233E+03  0.45616528233E+03  0.00000000000E+00 0.  1.
         21   -1    0    0  501  502 -0.00000000000E+00 -0.00000000000E+00 -0.15195459907E+03  0.15195459907E+03  0.00000000000E+00 0.  1.
         25    1    1    2    0    0  0.95525076920E+02  0.14426273756E+03 -0.25892750191E+02  0.21501677209E+03  0.12500000000E+03 0.  0.
         25    1    1    2    0    0 -0.95525076920E+02 -0.14426273756E+03  0.33010343345E+03  0.39310310930E+03  0.12500000000E+03 0.  0.
</event>
<event>
 4    0  0.2168146E-002  0.2332562E+03  0.7546771E-02  0.1124369E+00
         21   -1    0    0  502  501  0.00000000000E+00  0.00000000000E+00  0.46299764061E+03  0.46299764061E+03  0.00000000000E+00 0.  1.
         21   -1    0    0  501  502 -0.00000000000E+00 -0.00000000000E+00 -0.11751342594E+03  0.11751342594E+03  0.00000000000E+00 0.  1.
         25    1    1    2    0    0 -0.19331407901E+02  0.19492253903E+03  0.19808987455E+03  0.30534095361E+03  0.12500000000E+03 0.  0.
         25    1    1    2    0    0  0.19331407901E+02 -0.19492253903E+03  0.14739434012E+03  0.27517011294E+03  0.12500000000E+03 0.  0.
</event>
<event>
 4    0  0.2168146E-002  0.3400296E+03  0.7546771E-02  0.1066783E+00
         21   -1    0    0  502  501  0.00000000000E+00  0.00000000000E+00  0.69629292271E+03  0.69629292271E+03  0.00000000000E+00 0. -1.
         21   -1    0    0  501  502 -0.00000000000E+00 -0.00000000000E+00 -0.16605099502E+03  0.16605099502E+03  0.00000000000E+00 0. -1.
         25    1    1    2    0    0  0.29860138142E+03  0.25533465593E+02  0.39306380207E+03  0.50984202979E+03  0.12500000000E+03 0.  0.
         25    1    1    2    0    0 -0.29860138142E+03 -0.25533465593E+02  0.13717812562E+03  0.35250188793E+03  0.12500000000E+03 0.  0.
</event>
<event>
 4    0  0.2168146E-002  0.2051617E+03  0.7546771E-02  0.1145456E+00
         21   -1    0    0  502  501  0.00000000000E+00  0.00000000000E+00  0.34263928874E+03  0.34263928874E+03  0.00000000000E+00 0.  1.
         21   -1    0    0  501  502 -0.00000000000E+00 -0.00000000000E+00 -0.12284442507E+03  0.12284442507E+03  0.00000000000E+00 0.  1.
         25    1    1    2    0    0  0.15783133667E+03 -0.34233257648E+02  0.87676483923E+02  0.22224943779E+03  0.12500000000E+03 0.  0.
         25    1    1    2    0    0 -0.15783133667E+03  0.34233257648E+02  0.13211837975E+03  0.24323427602E+03  0.12500000000E+03 0.  0.
</event>
<event>
 4    0  0.2168146E-002  0.2611555E+03  0.7546771E-02  0.1106451E+00
         21   -1    0    0  502  501  0.00000000000E+00  0.00000000000E+00  0.29197380892E+03  0.29197380892E+03  0.00000000000E+00 0.  1.
         21   -1    0    0  501  502 -0.00000000000E+00 -0.00000000000E+00 -0.23359010853E+03  0.23359010853E+03  0.00000000000E+00 0.  1.
         25    1    1    2    0    0  0.15113781745E+03  0.65502581887E+02 -0.13131322651E+03  0.24495181476E+03  0.12500000000E+03 0.  0.
         25    1    1    2    0    0 -0.15113781745E+03 -0.65502581887E+02  0.18969692690E+03  0.28061210268E+03  0.12500000000E+03 0.  0.
</event>
<event>
 4    0  0.2168146E-002  0.2133041E+03  0.7546771E-02  0.1138976E+00
         21   -1    0    0  502  501  0.00000000000E+00  0.00000000000E+00  0.37716210877E+03  0.37716210877E+03  0.00000000000E+00 0.  1.
         21   -1    0    0  501  502 -0.00000000000E+00 -0.00000000000E+00 -0.12063420502E+03  0.12063420502E+03  0.00000000000E+00 0.  1.
         25    1    1    2    0    0 -0.62502849384E+02 -0.15779678468E+03  0.16638364010E+03  0.26854226321E+03  0.12500000000E+03 0.  0.
         25    1    1    2    0    0  0.62502849384E+02  0.15779678468E+03  0.90144263647E+02  0.22925405058E+03  0.12500000000E+03 0.  0.
</event>
<event>
 4    0  0.2168146E-002  0.2454235E+03  0.7546771E-02  0.1116232E+00
         21   -1    0    0  502  501  0.00000000000E+00  0.00000000000E+00  0.16529897856E+03  0.16529897856E+03  0.00000000000E+00 0. -1.
         21   -1    0    0  501  502 -0.00000000000E+00 -0.00000000000E+00 -0.36438639866E+03  0.36438639866E+03  0.00000000000E+00 0. -1.
         25    1    1    2    0    0  0.50032240909E+02  0.18688413591E+03 -0.81118461490E+01  0.23047712995E+03  0.12500000000E+03 0.  0.
         25    1    1    2    0    0 -0.50032240909E+02 -0.18688413591E+03 -0.19097557396E+03  0.29920824727E+03  0.12500000000E+03 0.  0.
</event>
<event>
 4    0  0.2168146E-002  0.2919128E+03  0.7546771E-02  0.1089355E+00
         21   -1    0    0  502  501  0.00000000000E+00  0.00000000000E+00  0.66829805212E+02  0.66829805212E+02  0.00000000000E+00 0. -1.
         21   -1    0    0  501  502 -0.00000000000E+00 -0.00000000000E+00 -0.12750758243E+04  0.12750758243E+04  0.00000000000E+00 0. -1.
         25    1    1    2    0    0  0.11294802360E+03 -0.23675654146E+03 -0.54004748930E+03  0.61325949374E+03  0.12500000000E+03 0.  0.
         25    1    1    2    0    0 -0.11294802360E+03  0.23675654146E+03 -0.66819852976E+03  0.72864613574E+03  0.12500000000E+03 0.  0.
</event>
<event>
 4    0  0.2168146E-002  0.1651314E+03  0.7546771E-02  0.1183022E+00
         21   -1    0    0  502  501  0.00000000000E+00  0.00000000000E+00  0.20709251674E+03  0.20709251674E+03  0.00000000000E+00 0. -1.
         21   -1    0    0  501  502 -0.00000000000E+00 -0.00000000000E+00 -0.13167250457E+03  0.13167250457E+03  0.00000000000E+00 0. -1.
         25    1    1    2    0    0 -0.60131758800E+02  0.36753442839E+02 -0.46104898409E+02  0.15072261156E+03  0.12500000000E+03 0.  0.
         25    1    1    2    0    0  0.60131758800E+02 -0.36753442839E+02  0.12152491058E+03  0.18804240976E+03  0.12500000000E+03 0.  0.
</event>
<event>
 4    0  0.2168146E-002  0.1863606E+03  0.7546771E-02  0.1161785E+00
         21   -1    0    0  502  501  0.00000000000E+00  0.00000000000E+00  0.15426899703E+03  0.15426899703E+03  0.00000000000E+00 0.  1.
         21   -1    0    0  501  502 -0.00000000000E+00 -0.00000000000E+00 -0.22512794007E+03  0.22512794007E+03  0.00000000000E+00 0.  1.
         25    1    1    2    0    0  0.13061599121E+03 -0.13251404886E+02 -0.79437197505E+02  0.19791767288E+03  0.12500000000E+03 0.  0.
         25    1    1    2    0    0 -0.13061599121E+03  0.13251404886E+02  0.85782544678E+01  0.18147926422E+03  0.12500000000E+03 0.  0.
</event>
<event>
 4    0  0.2168146E-002  0.2006785E+03  0.7546771E-02  0.1149168E+00
         21   -1    0    0  502  501  0.00000000000E+00  0.00000000000E+00  0.67168718863E+03  0.67168718863E+03  0.00000000000E+00 0. -1.
         21   -1    0    0  501  502 -0.00000000000E+00 -0.00000000000E+00 -0.59956273636E+02  0.59956273636E+02  0.00000000000E+00 0. -1.
         25    1    1    2    0    0 -0.97738128226E+01  0.15017352656E+03  0.22435718240E+03  0.29767223719E+03  0.12500000000E+03 0.  0.
         25    1    1    2    0    0  0.97738128226E+01 -0.15017352656E+03  0.38737373258E+03  0.43397122507E+03  0.12500000000E+03 0.  0.
</event>
<event>
 4    0  0.2168146E-002  0.1874612E+03  0.7546771E-02  0.1160771E+00
         21   -1    0    0  502  501  0.00000000000E+00  0.00000000000E+00  0.11989801683E+04  0.11989801683E+04  0.00000000000E+00 0. -1.
         21   -1    0    0  501  502 -0.00000000000E+00 -0.00000000000E+00 -0.29309672337E+02  0.29309672337E+02  0.00000000000E+00 0. -1.
         25    1    1    2    0    0 -0.56252031586E+02  0.50088337792E+02  0.97029908535E+03  0.98121274333E+03  0.12500000000E+03 0.  0.
         25    1    1    2    0    0  0.56252031586E+02 -0.50088337792E+02  0.19937141057E+03  0.24707709726E+03  0.12500000000E+03 0.  0.
</event>
<event>
 4    0  0.2168146E-002  0.2177543E+03  0.7546771E-02  0.1135568E+00
         21   -1    0    0  502  501  0.00000000000E+00  0.00000000000E+00  0.16489977351E+03  0.16489977351E+03  0.00000000000E+00 0.  1.
         21   -1    0    0  501  502 -0.00000000000E+00 -0.00000000000E+00 -0.28755003703E+03  0.28755003703E+03  0.00000000000E+00 0.  1.
         25    1    1    2    0    0 -0.10895330513E+02  0.16952319004E+03 -0.50409585338E+01  0.21096737058E+03  0.12500000000E+03 0.  0.
         25    1    1    2    0    0  0.10895330513E+02 -0.16952319004E+03 -0.11760930499E+03  0.24148243996E+03  0.12500000000E+03 0.  0.
</event>
<event>
 4    0  0.2168146E-002  0.2204884E+03  0.7546771E-02  0.1133519E+00
         21   -1    0    0  502  501  0.00000000000E+00  0.00000000000E+00  0.61031569789E+02  0.61031569789E+02  0.00000000000E+00 0. -1.
         21   -1    0    0  501  502 -0.00000000000E+00 -0.00000000000E+00 -0.79655723681E+03  0.79655723681E+03  0.00000000000E+00 0. -1.
         25    1    1    2    0    0  0.85592778379E+02 -0.12584900531E+03 -0.17498696492E+03  0.26345689162E+03  0.12500000000E+03 0.  0.
         25    1    1    2    0    0 -0.85592778379E+02  0.12584900531E+03 -0.56053870211E+03  0.59413191499E+03  0.12500000000E+03 0.  0.
</event>
<event>
 4    0  0.2168146E-002  0.1624170E+03  0.7546771E-02  0.1185995E+00
         21   -1    0    0  502  501  0.00000000000E+00  0.00000000000E+00  0.30386325724E+03  0.30386325724E+03  0.00000000000E+00 0. -1.
         21   -1    0    0  501  502 -0.00000000000E+00 -0.00000000000E+00 -0.86812980937E+02  0.86812980937E+02  0.00000000000E+00 0. -1.
         25    1    1    2    0    0 -0.44676112455E+02 -0.40120198084E+02  0.21021292607E+03  0.25183339653E+03  0.12500000000E+03 0.  0.
         25    1    1    2    0    0  0.44676112455E+02  0.40120198084E+02  0.68373502282E+01  0.13884284165E+03  0.12500000000E+03 0.  0.
</event>
<event>
 4    0  0.2168146E-002  0.1873209E+03  0.7546771E-02  0.1160900E+00
         21   -1    0    0  502  501  0.00000000000E+00  0.00000000000E+00  0.36125639003E+03  0.36125639003E+03  0.00000000000E+00 0. -1.
         21   -1    0    0  501  502 -0.00000000000E+00 -0.00000000000E+00 -0.97130754314E+02  0.97130754314E+02  0.00000000000E+00 0. -1.
         25    1    1    2    0    0 -0.84636248091E+02  0.94013914589E+02  0.60069523231E+02  0.18771057042E+03  0.12500000000E+03 0.  0.
         25    1    1    2    0    0  0.84636248091E+02 -0.94013914589E+02  0.20405611248E+03  0.27067657392E+03  0.12500000000E+03 0.  0.
</event>
<event>
 4    0  0.2168146E-002  0.2109823E+03  0.7546771E-02  0.1140790E+00
         21   -1    0    0  502  501  0.00000000000E+00  0.00000000000E+00  0.58806874275E+03  0.58806874275E+03  0.00000000000E+00 0. -1.
         21   -1    0    0  501  502 -0.00000000000E+00 -0.00000000000E+00 -0.75694443163E+02  0.75694443163E+02  0.00000000000E+00 0. -1.
         25    1    1    2    0    0 -0.13244108221E+03  0.94491938875E+02  0.17881756864E+03  0.27215820697E+03  0.12500000000E+03 0.  0.
         25    1    1    2    0    0  0.13244108221E+03 -0.94491938875E+02  0.33355673095E+03  0.39160497894E+03  0.12500000000E+03 0.  0.
</event>
<event>
 4    0  0.2168146E-002  0.2100571E+03  0.7546771E-02  0.1141521E+00
         21   -1    0    0  502  501  0.00000000000E+00  0.00000000000E+00  0.10604515917E+03  0.10604515917E+03  0.00000000000E+00 0. -1.
         21   -1    0    0  501  502 -0.00000000000E+00 -0.00000000000E+00 -0.41608682516E+03  0.41608682516E+03  0.00000000000E+00 0. -1.
         25    1    1    2    0    0 -0.16871834240E+03 -0.52296018908E+01 -0.15800513605E+03  0.26283806957E+03  0.12500000000E+03 0.  0.
         25    1    1    2    0    0  0.16871834240E+03  0.52296018908E+01 -0.15203652994E+03  0.25929391476E+03  0.12500000000E+03 0.  0.
</event>
<event>
 4    0  0.2168146E-002  0.2842557E+03  0.7546771E-02  0.1093387E+00
         21   -1    0    0  502  501  0.00000000000E+00  0.00000000000E+00  0.23234356178E+03  0.23234356178E+03  0.00000000000E+00 0.  1.
         21   -1    0    0  501  502 -0.00000000000E+00 -0.00000000000E+00 -0.34776649351E+03  0.34776649351E+03  0.00000000000E+00 0.  1.
         25    1    1    2    0    0 -0.11748496454E+03  0.29002504602E+02 -0.28709189352E+03  0.33569423214E+03  0.12500000000E+03 0.  0.
         25    1    1    2    0    0  0.11748496454E+03 -0.29002504602E+02  0.17166896179E+03  0.24441582315E+03  0.12500000000E+03 0.  0.
</event>
<event>
 4    0  0.2168146E-002  0.1637468E+03  0.7546771E-02  0.1184530E+00
         21   -1    0    0  502  501  0.00000000000E+00  0.00000000000E+00  0.16726725160E+03  0.16726725160E+03  0.00000000000E+00 0. -1.
         21   -1    0    0  501  502 -0.00000000000E+00 -0.00000000000E+00 -0.16030041880E+03  0.16030041880E+03  0.00000000000E+00 0. -1.
         25    1    1    2    0    0 -0.47058208718E+02 -0.94716203008E+02  0.19415218347E+01  0.16375104161E+03  0.12500000000E+03 0.  0.
         25    1    1    2    0    0  0.47058208718E+02  0.94716203008E+02  0.50253109609E+01  0.16381662880E+03  0.12500000000E+03 0.  0.
</event>
<event>
 4    0  0.2168146E-002  0.2176472E+03  0.7546771E-02  0.1135649E+00
         21   -1    0    0  502  501  0.00000000000E+00  0.00000000000E+00  0.49932414018E+02  0.49932414018E+02  0.00000000000E+00 0.  1.
         21   -1    0    0  501  502 -0.00000000000E+00 -0.00000000000E+00 -0.94868819108E+03  0.94868819108E+03  0.00000000000E+00 0.  1.
         25    1    1    2    0    0  0.14198459530E+03 -0.10579752285E+03 -0.49483116603E+03  0.54021812634E+03  0.12500000000E+03 0.  0.
         25    1    1    2    0    0 -0.14198459530E+03  0.10579752285E+03 -0.40392461103E+03  0.45840247876E+03  0.12500000000E+03 0.  0.
</event>
<event>
 4    0  0.2168146E-002  0.1878128E+03  0.7546771E-02  0.1160449E+00
         21   -1    0    0  502  501  0.00000000000E+00  0.00000000000E+00  0.14900621002E+03  0.14900621002E+03  0.00000000000E+00 0. -1.
         21   -1    0    0  501  502 -0.00000000000E+00 -0.00000000000E+00 -0.23672590112E+03  0.23672590112E+03  0.00000000000E+00 0. -1.
         25    1    1    2    0    0  0.51058548499E+02  0.61823028520E+02 -0.16192978540E+03  0.21971644824E+03  0.12500000000E+03 0.  0.
         25    1    1    2    0    0 -0.51058548499E+02 -0.61823028520E+02  0.74210094293E+02  0.16601566289E+03  0.12500000000E+03 0.  0.
</event>
<event>
 4    0  0.2168146E-002  0.2101846E+03  0.7546771E-02  0.1141420E+00
         21   -1    0    0  502  501  0.00000000000E+00  0.00000000000E+00  0.32085902399E+02  0.32085902399E+02  0.00000000000E+00 0. -1.
         21   -1    0    0  501  502 -0.00000000000E+00 -0.00000000000E+00 -0.13768527508E+04  0.13768527508E+04  0.00000000000E+00 0. -1.
         25    1    1    2    0    0 -0.10480493847E+03  0.93288534087E+02 -0.98797008572E+03  0.10056822142E+04  0.12500000000E+03 0.  0.
         25    1    1    2    0    0  0.10480493847E+03 -0.93288534087E+02 -0.35679676269E+03  0.40325643899E+03  0.12500000000E+03 0.  0.
</event>
<event>
 4    0  0.2168146E-002  0.2406080E+03  0.7546771E-02  0.1119388E+00
         21   -1    0    0  502  501  0.00000000000E+00  0.00000000000E+00  0.12874489065E+04  0.12874489065E+04  0.00000000000E+00 0. -1.
         21   -1    0    0  501  502 -0.00000000000E+00 -0.00000000000E+00 -0.44966600624E+02  0.44966600624E+02  0.00000000000E+00 0. -1.
         25    1    1    2    0    0  0.13188052514E+03 -0.32540866193E+02  0.10485406895E+04  0.10646661254E+04  0.12500000000E+03 0.  0.
         25    1    1    2    0    0 -0.13188052514E+03  0.32540866193E+02  0.19394161633E+03  0.26774938175E+03  0.12500000000E+03 0.  0.
</event>
<event>
 4    0  0.2168146E-002  0.2196481E+03  0.7546771E-02  0.1134146E+00
         21   -1    0    0  502  501  0.00000000000E+00  0.00000000000E+00  0.39686307570E+03  0.39686307570E+03  0.00000000000E+00 0.  1.
         21   -1    0    0  501  502 -0.00000000000E+00 -0.00000000000E+00 -0.12156660025E+03  0.12156660025E+03  0.00000000000E+00 0.  1.
         25    1    1    2    0    0  0.12356925934E+03 -0.10474803521E+03  0.23190255675E+03  0.30926575718E+03  0.12500000000E+03 0.  0.
         25    1    1    2    0    0 -0.12356925934E+03  0.10474803521E+03  0.43393918705E+02  0.20916391877E+03  0.12500000000E+03 0.  0.
</event>
<event>
 4    0  0.2168146E-002  0.2388764E+03  0.7546771E-02  0.1120544E+00
         21   -1    0    0  502  501  0.00000000000E+00  0.00000000000E+00  0.15485665093E+04  0.15485665093E+04  0.00000000000E+00 0. -1.
         21   -1    0    0  501  502 -0.00000000000E+00 -0.00000000000E+00 -0.36848230195E+02  0.36848230195E+02  0.00000000000E+00 0. -1.
         25    1    1    2    0    0  0.12017586200E+03 -0.91967171769E+02  0.30404867199E+03  0.36189887183E+03  0.12500000000E+03 0.  0.
         25    1    1    2    0    0 -0.12017586200E+03  0.91967171769E+02  0.12076696071E+04  0.12235158677E+04  0.12500000000E+03 0.  0.
</event>
<event>
 4    0  0.2168146E-002  0.2749792E+03  0.7546771E-02  0.1098463E+00
         21   -1    0    0  502  501  0.00000000000E+00  0.00000000000E+00  0.83107398508E+03  0.83107398508E+03  0.00000000000E+00 0. -1.
         21   -1    0    0  501  502 -0.00000000000E+00 -0.00000000000E+00 -0.90982958474E+02  0.90982958474E+02  0.00000000000E+00 0. -1.
         25    1    1    2    0    0  0.10259425669E+03  0.84397249196E+02  0.25057680865E+02  0.18412323196E+03  0.12500000000E+03 0.  0.
         25    1    1    2    0    0 -0.10259425669E+03 -0.84397249196E+02  0.71503334574E+03  0.73793371158E+03  0.12500000000E+03 0.  0.
</event>
<event>
 4    0  0.2168146E-002  0.2756620E+03  0.7546771E-02  0.1098082E+00
         21   -1    0    0  502  501  0.00000000000E+00  0.00000000000E+00  0.14866429641E+03  0.14866429641E+03  0.00000000000E+00 0.  1.
         21   -1    0    0  501  502 -0.00000000000E+00 -0.00000000000E+00 -0.51114851184E+03  0.51114851184E+03  0.00000000000E+00 0.  1.
         25    1    1    2    0    0  0.96996936339E+02 -0.50660977273E+02 -0.44450511816E+03  0.47453634250E+03  0.12500000000E+03 0.  0.
         25    1    1    2    0    0 -0.96996936339E+02  0.50660977273E+02  0.82020902732E+02  0.18527646575E+03  0.12500000000E+03 0.  0.
</event>
<event>
 4    0  0.2168146E-002  0.2142819E+03  0.7546771E-02  0.1138219E+00
         21   -1    0    0  502  501  0.00000000000E+00  0.00000000000E+00  0.31729499619E+02  0.31729499619E+02  0.00000000000E+00 0. -1.
         21   -1    0    0  501  502 -0.00000000000E+00 -0.00000000000E+00 -0.14471308856E+04  0.14471308856E+04  0.00000000000E+00 0. -1.
         25    1    1    2    0    0 -0.98109911211E+02  0.26762279294E+02 -0.11950975528E+04  0.12059124906E+04  0.12500000000E+03 0.  0.
         25    1    1    2    0    0  0.98109911211E+02 -0.26762279294E+02 -0.22030383325E+03  0.27294789469E+03  0.12500000000E+03 0.  0.
</event>
<event>
 4    0  0.2168146E-002  0.3142360E+03  0.7546771E-02  0.1078333E+00
         21   -1    0    0  502  501  0.00000000000E+00  0.00000000000E+00  0.69951970289E+02  0.69951970289E+02  0.00000000000E+00 0.  1.
         21   -1    0    0  501  502 -0.00000000000E+00 -0.00000000000E+00 -0.14116006959E+04  0.14116006959E+04  0.00000000000E+00 0.  1.
         25    1    1    2    0    0 -0.44555700648E+02 -0.20055592296E+03 -0.11476429275E+04  0.11725686239E+04  0.12500000000E+03 0.  0.
         25    1    1    2    0    0  0.44555700648E+02  0.20055592296E+03 -0.19400579810E+03  0.30898404229E+03  0.12500000000E+03 0.  0.
</event>
<event>
 4    0  0.2168146E-002  0.3327350E+03  0.7546771E-02  0.1069933E+00
         21   -1    0    0  502  501  0.00000000000E+00  0.00000000000E+00  0.21911799732E+03  0.21911799732E+03  0.00000000000E+00 0.  1.
         21   -1    0    0  501  502 -0.00000000000E+00 -0.00000000000E+00 -0.50526456332E+03  0.50526456332E+03  0.00000000000E+00 0.  1.
         25    1    1    2    0    0 -0.14819087966E+03  0.31715258233E+02 -0.43540161712E+03  0.47766720906E+03  0.12500000000E+03 0.  0.
         25    1    1    2    0    0  0.14819087966E+03 -0.31715258233E+02  0.14925505112E+03  0.24671535158E+03  0.12500000000E+03 0.  0.
</event>
<event>
 4    0  0.2168146E-002  0.2122822E+03  0.7546771E-02  0.1139771E+00
         21   -1    0    0  502  501  0.00000000000E+00  0.00000000000E+00  0.43703602192E+02  0.43703602192E+02  0.00000000000E+00 0. -1.
         21   -1    0    0  501  502 -0.00000000000E+00 -0.00000000000E+00 -0.10311219885E+04  0.10311219885E+04  0.00000000000E+00 0. -1.
         25    1    1    2    0    0  0.10524142825E+03 -0.40225748087E+02 -0.16611565157E+03  0.23645988820E+03  0.12500000000E+03 0.  0.
         25    1    1    2    0    0 -0.10524142825E+03  0.40225748087E+02 -0.82130273477E+03  0.83836570253E+03  0.12500000000E+03 0.  0.
</event>
<event>
 4    0  0.2168146E-002  0.2371859E+03  0.7546771E-02  0.1121682E+00
         21   -1    0    0  502  501  0.00000000000E+00  0.00000000000E+00  0.29096609302E+03  0.29096609302E+03  0.00000000000E+00 0. -1.
         21   -1    0    0  501  502 -0.00000000000E+00 -0.00000000000E+00 -0.19334601931E+03  0.19334601931E+03  0.00000000000E+00 0. -1.
         25    1    1    2    0    0  0.18540711561E+03  0.67650321460E+02  0.90653884072E+02  0.25059028555E+03  0.12500000000E+03 0.  0.
         25    1    1    2    0    0 -0.18540711561E+03 -0.67650321460E+02  0.69661896375E+01  0.23372182678E+03  0.12500000000E+03 0.  0.
</event>
<event>
 4    0  0.2168146E-002  0.3009417E+03  0.7546771E-02  0.1084771E+00
         21   -1    0    0  502  501  0.00000000000E+00  0.00000000000E+00  0.34357054685E+03  0.34357054685E+03  0.00000000000E+00 0.  1.
         21   -1    0    0  501  502 -0.00000000000E+00 -0.00000000000E+00 -0.26360214732E+03  0.26360214732E+03  0.00000000000E+00 0.  1.
         25    1    1    2    0    0 -0.14574000608E+02  0.41017756835E+02 -0.23266124564E+03  0.26767725546E+03  0.12500000000E+03 0.  0.
         25    1    1    2    0    0  0.14574000608E+02 -0.41017756835E+02  0.31262964516E+03  0.33949543871E+03  0.12500000000E+03 0.  0.
</event>
<event>
 4    0  0.2168146E-002  0.3101966E+03  0.7546771E-02  0.1080252E+00
         21   -1    0    0  502  501  0.00000000000E+00  0.00000000000E+00  0.21310970827E+03  0.21310970827E+03  0.00000000000E+00 0.  1.
         21   -1    0    0  501  502 -0.00000000000E+00 -0.00000000000E+00 -0.45151368909E+03  0.45151368909E+03  0.00000000000E+00 0.  1.
         25    1    1    2    0    0  0.23657930948E+03 -0.40361347253E+01  0.48861050105E+02  0.27202658376E+03  0.12500000000E+03 0.  0.
         25    1    1    2    0    0 -0.23657930948E+03  0.40361347253E+01 -0.28726503092E+03  0.39259681360E+03  0.12500000000E+03 0.  0.
</event>
<event>
 4    0  0.2168146E-002  0.1366391E+03  0.7546771E-02  0.1217924E+00
         21   -1    0    0  502  501  0.00000000000E+00  0.00000000000E+00  0.71961510955E+02  0.71961510955E+02  0.00000000000E+00 0.  1.
         21   -1    0    0  501  502 -0.00000000000E+00 -0.00000000000E+00 -0.25944760811E+03  0.25944760811E+03  0.00000000000E+00 0.  1.
         25    1    1    2    0    0  0.27930031514E+02 -0.33251459816E+02 -0.13503772322E+03  0.18906594863E+03  0.12500000000E+03 0.  0.
         25    1    1    2    0    0 -0.27930031514E+02  0.33251459816E+02 -0.52448373939E+02  0.14234317043E+03  0.12500000000E+03 0.  0.
</event>
<event>
 4    0  0.2168146E-002  0.2078447E+03  0.7546771E-02  0.1143284E+00
         21   -1    0    0  502  501  0.00000000000E+00  0.00000000000E+00  0.91021380884E+03  0.91021380884E+03  0.00000000000E+00 0. -1.
         21   -1    0    0  501  502 -0.00000000000E+00 -0.00000000000E+00 -0.47460747991E+02  0.47460747991E+02  0.00000000000E+00 0. -1.
         25    1    1    2    0    0 -0.15966542148E+03 -0.11562792528E+00  0.32627152657E+03  0.38414993068E+03  0.12500000000E+03 0.  0.
         25    1    1    2    0    0  0.15966542148E+03  0.11562792528E+00  0.53648153428E+03  0.57352462616E+03  0.12500000000E+03 0.  0.
</event>
<event>
 4    0  0.2168146E-002  0.1674745E+03  0.7546771E-02  0.1180507E+00
         21   -1    0    0  502  501  0.00000000000E+00  0.00000000000E+00  0.26444471890E+03  0.26444471890E+03  0.00000000000E+00 0.  1.
         21   -1    0    0  501  502 -0.00000000000E+00 -0.00000000000E+00 -0.10606262520E+03  0.10606262520E+03  0.00000000000E+00 0.  1.
         25    1    1    2    0    0  0.26169948228E+02  0.10729725824E+03  0.62593723786E+02  0.17815875526E+03  0.12500000000E+03 0.  0.
         25    1    1    2    0    0 -0.26169948228E+02 -0.10729725824E+03  0.95788369918E+02  0.19234858884E+03  0.12500000000E+03 0.  0.
</event>
<event>
 4    0  0.2168146E-002  0.1908817E+03  0.7546771E-02  0.1157668E+00
         21   -1    0    0  502  501  0.00000000000E+00  0.00000000000E+00  0.79937603343E+03  0.79937603343E+03  0.00000000000E+00 0. -1.
         21   -1    0    0  501  502 -0.00000000000E+00 -0.00000000000E+00 -0.45580348782E+02  0.45580348782E+02  0.00000000000E+00 0. -1.
         25    1    1    2    0    0 -0.84768848933E+02 -0.96583049221E+02  0.23181627396E+03  0.29304919045E+03  0.12500000000E+03 0.  0.
         25    1    1    2    0    0  0.84768848933E+02  0.96583049221E+02  0.52197941069E+03  0.55190719177E+03  0.12500000000E+03 0.  0.
</event>
<event>
 4    0  0.2168146E-002  0.2003452E+03  0.7546771E-02  0.1149448E+00
         21   -1    0    0  502  501  0.00000000000E+00  0.00000000000E+00  0.80236479162E+02  0.80236479162E+02  0.00000000000E+00 0.  1.
         21   -1    0    0  501  502 -0.00000000000E+00 -0.00000000000E+00 -0.50024897289E+03  0.50024897289E+03  0.00000000000E+00 0.  1.
         25    1    1    2    0    0  0.16426824149E+02 -0.15509997211E+03 -0.22983691853E+03  0.30459128520E+03  0.12500000000E+03 0.  0.
         25    1    1    2    0    0 -0.16426824149E+02  0.15509997211E+03 -0.19017557520E+03  0.27589416686E+03  0.12500000000E+03 0.  0.
</event>
<event>
 4    0  0.2168146E-002  0.2329961E+03  0.7546771E-02  0.1124549E+00
         21   -1    0    0  502  501  0.00000000000E+00  0.00000000000E+00  0.46176290598E+02  0.46176290598E+02  0.00000000000E+00 0.  1.
         21   -1    0    0  501  502 -0.00000000000E+00 -0.00000000000E+00 -0.11756503771E+04  0.11756503771E+04  0.00000000000E+00 0.  1.
         25    1    1    2    0    0 -0.68874251378E+02  0.79112457711E+02 -0.12866830094E+03  0.20780513741E+03  0.12500000000E+03 0.  0.
         25    1    1    2    0    0  0.68874251378E+02 -0.79112457711E+02 -0.10008057856E+04  0.10140215303E+04  0.12500000000E+03 0.  0.
</event>
<event>
 4    0  0.2168146E-002  0.1840876E+03  0.7546771E-02  0.1163905E+00
         21   -1    0    0  502  501  0.00000000000E+00  0.00000000000E+00  0.16410063965E+04  0.16410063965E+04  0.00000000000E+00 0. -1.
         21   -1    0    0  501  502 -0.00000000000E+00 -0.00000000000E+00 -0.20650885836E+02  0.20650885836E+02  0.00000000000E+00 0. -1.
         25    1    1    2    0    0 -0.12523972467E+03 -0.50330202561E+02  0.84049299802E+03  0.86039037515E+03  0.12500000000E+03 0.  0.
         25    1    1    2    0    0  0.12523972467E+03  0.50330202561E+02  0.77986251265E+03  0.80126690719E+03  0.12500000000E+03 0.  0.
</event>
<event>
 4    0  0.2168146E-002  0.2698803E+03  0.7546771E-02  0.1101348E+00
         21   -1    0    0  502  501  0.00000000000E+00  0.00000000000E+00  0.25102573249E+03  0.25102573249E+03  0.00000000000E+00 0. -1.
         21   -1    0    0  501  502 -0.00000000000E+00 -0.00000000000E+00 -0.29015111355E+03  0.29015111355E+03  0.00000000000E+00 0. -1.
         25    1    1    2    0    0 -0.20347201506E+03 -0.98390109753E+02 -0.98055520651E+02  0.27626320736E+03  0.12500000000E+03 0.  0.
         25    1    1    2    0    0  0.20347201506E+03  0.98390109753E+02  0.58930139589E+02  0.26491363868E+03  0.12500000000E+03 0.  0.
</event>
<event>
 4    0  0.2168146E-002  0.2930934E+03  0.7546771E-02  0.1088745E+00
         21   -1    0    0  502  501  0.00000000000E+00  0.00000000000E+00  0.84514381750E+02  0.84514381750E+02  0.00000000000E+00 0.  1.
         21   -1    0    0  501  502 -0.00000000000E+00 -0.00000000000E+00 -0.10164395415E+04  0.10164395415E+04  0.00000000000E+00 0.  1.
         25    1    1    2    0    0 -0.18136462629E+03  0.15467267046E+03 -0.24804723964E+03  0.36601802653E+03  0.12500000000E+03 0.  0.
         25    1    1    2    0    0  0.18136462629E+03 -0.15467267046E+03 -0.68387792007E+03  0.73493589667E+03  0.12500000000E+03 0.  0.
</event>
<event>
 4    0  0.2168146E-002  0.2415722E+03  0.7546771E-02  0.1118750E+00
         21   -1    0    0  502  501  0.00000000000E+00  0.00000000000E+00  0.56176810347E+03  0.56176810347E+03  0.00000000000E+00 0.  1.
         21   -1    0    0  501  502 -0.00000000000E+00 -0.00000000000E+00 -0.10388116850E+03  0.10388116850E+03  0.00000000000E+00 0.  1.
         25    1    1    2    0    0 -0.10962072473E+03 -0.16801744823E+03  0.29763144216E+03  0.38007373174E+03  0.12500000000E+03 0.  0.
         25    1    1    2    0    0  0.10962072473E+03  0.16801744823E+03  0.16025549281E+03  0.28557554022E+03  0.12500000000E+03 0.  0.
</event>
<event>
 4    0  0.2168146E-002  0.2535780E+03  0.7546771E-02  0.1111064E+00
         21   -1    0    0  502  501  0.00000000000E+00  0.00000000000E+00  0.44384716778E+03  0.44384716778E+03  0.00000000000E+00 0. -1.
         21   -1    0    0  501  502 -0.00000000000E+00 -0.00000000000E+00 -0.14487372352E+03  0.14487372352E+03  0.00000000000E+00 0. -1.
         25    1    1    2    0    0 -0.82604169986E+02 -0.12091385940E+03 -0.42078692920E+02  0.19707670256E+03  0.12500000000E+03 0.  0.
         25    1    1    2    0    0  0.82604169986E+02  0.12091385940E+03  0.34105213718E+03  0.39164418874E+03  0.12500000000E+03 0.  0.
</event>
<event>
 4    0  0.2168146E-002  0.2651830E+03  0.7546771E-02  0.1104069E+00
         21   -1    0    0  502  501  0.00000000000E+00  0.00000000000E+00  0.13051590629E+04  0.13051590629E+04  0.00000000000E+00 0.  1.
         21   -1    0    0  501  502 -0.00000000000E+00 -0.00000000000E+00 -0.53880058199E+02  0.53880058199E+02  0.00000000000E+00 0.  1.
         25    1    1    2    0    0 -0.89515016385E+02  0.13071876005E+03  0.10664764230E+04  0.10854019040E+04  0.12500000000E+03 0.  0.
         25    1    1    2    0    0  0.89515016385E+02 -0.13071876005E+03  0.18480258175E+03  0.27363721715E+03  0.12500000000E+03 0.  0.
</event>
<event>
 4    0  0.2168146E-002  0.2068786E+03  0.7546771E-02  0.1144062E+00
         21   -1    0    0  502  501  0.00000000000E+00  0.00000000000E+00  0.22796524751E+03  0.22796524751E+03  0.00000000000E+00 0.  1.
         21   -1    0    0  501  502 -0.00000000000E+00 -0.00000000000E+00 -0.18774253283E+03  0.18774253283E+03  0.00000000000E+00 0.  1.
         25    1    1    2    0    0 -0.85896536748E+02  0.24463624921E+02  0.15931807301E+03  0.22132314013E+03  0.12500000000E+03 0.  0.
         25    1    1    2    0    0  0.85896536748E+02 -0.24463624921E+02 -0.11909535834E+03  0.19438464020E+03  0.12500000000E+03 0.  0.
</event>
<event>
 4    0  0.2168146E-002  0.1662805E+03  0.7546771E-02  0.1181783E+00
         21   -1    0    0  502  501  0.00000000000E+00  0.00000000000E+00  0.26768686902E+03  0.26768686902E+03  0.00000000000E+00 0.  1.
         21   -1    0    0  501  502 -0.00000000000E+00 -0.00000000000E+00 -0.10328935840E+03  0.10328935840E+03  0.00000000000E+00 0.  1.
         25    1    1    2    0    0  0.56532143636E+02  0.93959069437E+02  0.82335199806E+02  0.18554857887E+03  0.12500000000E+03 0.  0.
         25    1    1    2    0    0 -0.56532143636E+02 -0.93959069437E+02  0.82062310810E+02  0.18542764856E+03  0.12500000000E+03 0.  0.
</event>
<event>
 4    0  0.2168146E-002  0.1753681E+03  0.7546771E-02  0.1172363E+00
         21   -1    0    0  502  501  0.00000000000E+00  0.00000000000E+00  0.15345159027E+03  0.15345159027E+03  0.00000000000E+00 0. -1.
         21   -1    0    0  501  502 -0.00000000000E+00 -0.00000000000E+00 -0.20041481273E+03  0.20041481273E+03  0.00000000000E+00 0. -1.
         25    1    1    2    0    0 -0.12206416372E+03 -0.12667620783E+02 -0.15110390854E+02  0.17582221871E+03  0.12500000000E+03 0.  0.
         25    1    1    2    0    0  0.12206416372E+03  0.12667620783E+02 -0.31852831601E+02  0.17804418429E+03  0.12500000000E+03 0.  0.
</event>
<event>
 4    0  0.2168146E-002  0.1882508E+03  0.7546771E-02  0.1160049E+00
         21   -1    0    0  502  501  0.00000000000E+00  0.00000000000E+00  0.28633129433E+03  0.28633129433E+03  0.00000000000E+00 0. -1.
         21   -1    0    0  501  502 -0.00000000000E+00 -0.00000000000E+00 -0.12376699234E+03  0.12376699234E+03  0.00000000000E+00 0. -1.
         25    1    1    2    0    0 -0.85860070411E+02 -0.82917939166E+02  0.16254532447E+03  0.23726213106E+03  0.12500000000E+03 0.  0.
         25    1    1    2    0    0  0.85860070411E+02  0.82917939166E+02  0.18977510372E-01  0.17283615561E+03  0.12500000000E+03 0.  0.
</event>
<event>
 4    0  0.2168146E-002  0.2017321E+03  0.7546771E-02  0.1148286E+00
         21   -1    0    0  502  501  0.00000000000E+00  0.00000000000E+00  0.24377271386E+03  0.24377271386E+03  0.00000000000E+00 0. -1.
         21   -1    0    0  501  502 -0.00000000000E+00 -0.00000000000E+00 -0.16694171143E+03  0.16694171143E+03  0.00000000000E+00 0. -1.
         25    1    1    2    0    0  0.13534544264E+03 -0.20086969518E+02 -0.42696709950E+02  0.19018381695E+03  0.12500000000E+03 0.  0.
         25    1    1    2    0    0 -0.13534544264E+03  0.20086969518E+02  0.11952771237E+03  0.22053060834E+03  0.12500000000E+03 0.  0.
</event>
<event>
 4    0  0.2168146E-002  0.1556746E+03  0.7546771E-02  0.1193668E+00
         21   -1    0    0  502  501  0.00000000000E+00  0.00000000000E+00  0.49169201231E+02  0.49169201231E+02  0.00000000000E+00 0.  1.
         21   -1    0    0  501  502 -0.00000000000E+00 -0.00000000000E+00 -0.49288125981E+03  0.49288125981E+03  0.00000000000E+00 0.  1.
         25    1    1    2    0    0 -0.31434830423E+02 -0.63815218291E+02 -0.11813952266E+03  0.18612489749E+03  0.12500000000E+03 0.  0.
         25    1    1    2    0    0  0.31434830423E+02  0.63815218291E+02 -0.32557253592E+03  0.35592556356E+03  0.12500000000E+03 0.  0.
</event>
<event>
 4    0  0.2168146E-002  0.2483194E+03  0.7546771E-02  0.1114372E+00
         21   -1    0    0  502  501  0.00000000000E+00  0.00000000000E+00  0.20345816444E+03  0.20345816444E+03  0.00000000000E+00 0.  1.
         21   -1    0    0  501  502 -0.00000000000E+00 -0.00000000000E+00 -0.30307233143E+03  0.30307233143E+03  0.00000000000E+00 0.  1.
         25    1    1    2    0    0 -0.19399082238E+03 -0.89159505309E+02 -0.28035168094E+02  0.24898358822E+03  0.12500000000E+03 0.  0.
         25    1    1    2    0    0  0.19399082238E+03  0.89159505309E+02 -0.71578998894E+02  0.25754690764E+03  0.12500000000E+03 0.  0.
</event>
<event>
 4    0  0.2168146E-002  0.2122513E+03  0.7546771E-02  0.1139796E+00
         21   -1    0    0  502  501  0.00000000000E+00  0.00000000000E+00  0.37300931236E+02  0.37300931236E+02  0.00000000000E+00 0. -1.
         21   -1    0    0  501  502 -0.00000000000E+00 -0.00000000000E+00 -0.12077607436E+04  0.12077607436E+04  0.00000000000E+00 0. -1.
         25    1    1    2    0    0 -0.85675159378E+02  0.84814516562E+02 -0.94314921412E+03  0.95900426238E+03  0.12500000000E+03 0.  0.
         25    1    1    2    0    0  0.85675159378E+02 -0.84814516562E+02 -0.22731059827E+03  0.28605741249E+03  0.12500000000E+03 0.  0.
</event>
<event>
 4    0  0.2168146E-002  0.1925754E+03  0.7546771E-02  0.1156159E+00
         21   -1    0    0  502  501  0.00000000000E+00  0.00000000000E+00  0.63202010353E+02  0.63202010353E+02  0.00000000000E+00 0.  1.
         21   -1    0    0  501  502 -0.00000000000E+00 -0.00000000000E+00 -0.58677393469E+03  0.58677393469E+03  0.00000000000E+00 0.  1.
         25    1    1    2    0    0 -0.11130837673E+03 -0.81019099946E+01 -0.42192994441E+03  0.45398796643E+03  0.12500000000E+03 0.  0.
         25    1    1    2    0    0  0.11130837673E+03  0.81019099946E+01 -0.10164197993E+03  0.19598797861E+03  0.12500000000E+03 0.  0.
</event>
<event>
 4    0  0.2168146E-002  0.2071675E+03  0.7546771E-02  0.1143829E+00
         21   -1    0    0  502  501  0.00000000000E+00  0.00000000000E+00  0.75462505752E+02  0.75462505752E+02  0.00000000000E+00 0. -1.
         21   -1    0    0  501  502 -0.00000000000E+00 -0.00000000000E+00 -0.56873781573E+03  0.56873781573E+03  0.00000000000E+00 0. -1.
         25    1    1    2    0    0 -0.13291259011E+03  0.98004529039E+02 -0.23922404342E+03  0.31642343035E+03  0.12500000000E+03 0.  0.
         25    1    1    2    0    0  0.13291259011E+03 -0.98004529039E+02 -0.25405126656E+03  0.32777689114E+03  0.12500000000E+03 0.  0.
</event>
<event>
 4    0  0.2168146E-002  0.2007426E+03  0.7546771E-02  0.1149114E+00
         21   -1    0    0  502  501  0.00000000000E+00  0.00000000000E+00  0.40963646038E+02  0.40963646038E+02  0.00000000000E+00 0.  1.
         21   -1    0    0  501  502 -0.00000000000E+00 -0.00000000000E+00 -0.98374080955E+03  0.98374080955E+03  0.00000000000E+00 0.  1.
         25    1    1    2    0    0 -0.79316189394E+02  0.69034539098E+01 -0.81697474792E+03  0.83030804784E+03  0.12500000000E+03 0.  0.
         25    1    1    2    0    0  0.79316189394E+02 -0.69034539098E+01 -0.12580241560E+03  0.19439640775E+03  0.12500000000E+03 0.  0.
</event>
<event>
 4    0  0.2168146E-002  0.2718209E+03  0.7546771E-02  0.1100242E+00
         21   -1    0    0  502  501  0.00000000000E+00  0.00000000000E+00  0.58847384129E+02  0.58847384129E+02  0.00000000000E+00 0. -1.
         21   -1    0    0  501  502 -0.00000000000E+00 -0.00000000000E+00 -0.12555626144E+04  0.12555626144E+04  0.00000000000E+00 0. -1.
         25    1    1    2    0    0  0.15317028738E+03  0.12722774829E+03 -0.92821982288E+03  0.95753071828E+03  0.12500000000E+03 0.  0.
         25    1    1    2    0    0 -0.15317028738E+03 -0.12722774829E+03 -0.26849540736E+03  0.35687928021E+03  0.12500000000E+03 0.  0.
</event>
<event>
 4    0  0.2168146E-002  0.2344368E+03  0.7546771E-02  0.1123555E+00
         21   -1    0    0  502  501  0.00000000000E+00  0.00000000000E+00  0.74589657622E+02  0.74589657622E+02  0.00000000000E+00 0.  1.
         21   -1    0    0  501  502 -0.00000000000E+00 -0.00000000000E+00 -0.73683973121E+03  0.73683973121E+03  0.00000000000E+00 0.  1.
         25    1    1    2    0    0 -0.88513604824E+02  0.12851237585E+03 -0.54297628581E+03  0.57861760769E+03  0.12500000000E+03 0.  0.
         25    1    1    2    0    0  0.88513604824E+02 -0.12851237585E+03 -0.11927378778E+03  0.23281178114E+03  0.12500000000E+03 0.  0.
</event>
<event>
 4    0  0.2168146E-002  0.2317469E+03  0.7546771E-02  0.1125416E+00
         21   -1    0    0  502  501  0.00000000000E+00  0.00000000000E+00  0.18894142646E+03  0.18894142646E+03  0.00000000000E+00 0. -1.
         21   -1    0    0  501  502 -0.00000000000E+00 -0.00000000000E+00 -0.28425021248E+03  0.28425021248E+03  0.00000000000E+00 0. -1.
         25    1    1    2    0    0  0.19153696961E+03  0.37260506661E+02 -0.44975654607E+02  0.23605627632E+03  0.12500000000E+03 0.  0.
         25    1    1    2    0    0 -0.19153696961E+03 -0.37260506661E+02 -0.50333131414E+02  0.23713536262E+03  0.12500000000E+03 0.  0.
</event>
<event>
 4    0  0.2168146E-002  0.4678018E+03  0.7546771E-02  0.1022542E+00
         21   -1    0    0  502  501  0.00000000000E+00  0.00000000000E+00  0.59009210779E+03  0.59009210779E+03  0.00000000000E+00 0. -1.
         21   -1    0    0  501  502 -0.00000000000E+00 -0.00000000000E+00 -0.37085487660E+03  0.37085487660E+03  0.00000000000E+00 0. -1.
         25    1    1    2    0    0  0.23571083854E+03 -0.15822266576E+03 -0.25003741443E+03  0.39841902562E+03  0.12500000000E+03 0.  0.
         25    1    1    2    0    0 -0.23571083854E+03  0.15822266576E+03  0.46927464563E+03  0.56252795876E+03  0.12500000000E+03 0.  0.
</event>
<event>
 4    0  0.2168146E-002  0.1802556E+03  0.7546771E-02  0.1167556E+00
         21   -1    0    0  502  501  0.00000000000E+00  0.00000000000E+00  0.61884663071E+02  0.61884663071E+02  0.00000000000E+00 0.  1.
         21   -1    0    0  501  502 -0.00000000000E+00 -0.00000000000E+00 -0.52504251248E+03  0.52504251248E+03  0.00000000000E+00 0.  1.
         25    1    1    2    0    0 -0.92918563291E+02 -0.38807407396E+02 -0.98047711634E+02  0.18809100996E+03  0.12500000000E+03 0.  0.
         25    1    1    2    0    0  0.92918563291E+02  0.38807407396E+02 -0.36511013777E+03  0.39883616558E+03  0.12500000000E+03 0.  0.
</event>
<event>
 4    0  0.2168146E-002  0.2350393E+03  0.7546771E-02  0.1123142E+00
         21   -1    0    0  502  501  0.00000000000E+00  0.00000000000E+00  0.39699002875E+03  0.39699002875E+03  0.00000000000E+00 0. -1.
         21   -1    0    0  501  502 -0.00000000000E+00 -0.00000000000E+00 -0.13915585795E+03  0.13915585795E+03  0.00000000000E+00 0. -1.
         25    1    1    2    0    0  0.61983780022E+02  0.17580301530E+03  0.49325354559E+02  0.22979704040E+03  0.12500000000E+03 0.  0.
         25    1    1    2    0    0 -0.61983780022E+02 -0.17580301530E+03  0.20850881624E+03  0.30634884629E+03  0.12500000000E+03 0.  0.
</event>
<event>
 4    0  0.2168146E-002  0.2443034E+03  0.7546771E-02  0.1116959E+00
         21   -1    0    0  502  501  0.00000000000E+00  0.00000000000E+00  0.30743252695E+02  0.30743252695E+02  0.00000000000E+00 0.  1.
         21   -1    0    0  501  502 -0.00000000000E+00 -0.00000000000E+00 -0.19413737824E+04  0.19413737824E+04  0.00000000000E+00 0.  1.
         25    1    1    2    0    0 -0.13335731898E+03 -0.11801642674E+03 -0.14038081580E+04  0.14205683356E+04  0.12500000000E+03 0.  0.
         25    1    1    2    0    0  0.13335731898E+03  0.11801642674E+03 -0.50682237169E+03  0.55154869953E+03  0.12500000000E+03 0.  0.
</event>
<event>
 4    0  0.2168146E-002  0.2210873E+03  0.7546771E-02  0.1133075E+00
         21   -1    0    0  502  501  0.00000000000E+00  0.00000000000E+00  0.76429512569E+02  0.76429512569E+02  0.00000000000E+00 0. -1.
         21   -1    0    0  501  502 -0.00000000000E+00 -0.00000000000E+00 -0.63953845874E+03  0.63953845874E+03  0.00000000000E+00 0. -1.
         25    1    1    2    0    0  0.92334744088E+01 -0.92080248519E+02 -0.53598276213E+03  0.55809188358E+03  0.12500000000E+03 0.  0.
         25    1    1    2    0    0 -0.92334744088E+01  0.92080248519E+02 -0.27126184043E+02  0.15787608773E+03  0.12500000000E+03 0.  0.
</event>
<event>
 4    0  0.2168146E-002  0.1999228E+03  0.7546771E-02  0.1149804E+00
         21   -1    0    0  502  501  0.00000000000E+00  0.00000000000E+00  0.50596060862E+03  0.50596060862E+03  0.00000000000E+00 0. -1.
         21   -1    0    0  501  502 -0.00000000000E+00 -0.00000000000E+00 -0.78996478254E+02  0.78996478254E+02  0.00000000000E+00 0. -1.
         25    1    1    2    0    0  0.66216142751E+02 -0.63744235615E+02  0.29032147060E+02  0.15784730184E+03  0.12500000000E+03 0.  0.
         25    1    1    2    0    0 -0.66216142751E+02  0.63744235615E+02  0.39793198331E+03  0.42710978504E+03  0.12500000000E+03 0.  0.
</event>
<event>
 4    0  0.2168146E-002  0.2461373E+03  0.7546771E-02  0.1115771E+00
         21   -1    0    0  502  501  0.00000000000E+00  0.00000000000E+00  0.32016142259E+03  0.32016142259E+03  0.00000000000E+00 0.  1.
         21   -1    0    0  501  502 -0.00000000000E+00 -0.00000000000E+00 -0.18922825855E+03  0.18922825855E+03  0.00000000000E+00 0.  1.
         25    1    1    2    0    0 -0.12975402955E+03 -0.16694750827E+03  0.49072468288E+02  0.25048090915E+03  0.12500000000E+03 0.  0.
         25    1    1    2    0    0  0.12975402955E+03  0.16694750827E+03  0.81860695760E+02  0.25890877199E+03  0.12500000000E+03 0.  0.
</event>
<event>
 4    0  0.2168146E-002  0.2128584E+03  0.7546771E-02  0.1139322E+00
         21   -1    0    0  502  501  0.00000000000E+00  0.00000000000E+00  0.84372032067E+02  0.84372032067E+02  0.00000000000E+00 0.  1.
         21   -1    0    0  501  502 -0.00000000000E+00 -0.00000000000E+00 -0.53701072743E+03  0.53701072743E+03  0.00000000000E+00 0.  1.
         25    1    1    2    0    0 -0.47641435247E+02 -0.13004189459E+03 -0.76731290624E+02  0.20172578334E+03  0.12500000000E+03 0.  0.
         25    1    1    2    0    0  0.47641435247E+02  0.13004189459E+03 -0.37590740473E+03  0.41965697616E+03  0.12500000000E+03 0.  0.
</event>
<event>
 4    0  0.2168146E-002  0.1796842E+03  0.7546771E-02  0.1168109E+00
         21   -1    0    0  502  501  0.00000000000E+00  0.00000000000E+00  0.24930933387E+03  0.24930933387E+03  0.00000000000E+00 0. -1.
         21   -1    0    0  501  502 -0.00000000000E+00 -0.00000000000E+00 -0.12950345555E+03  0.12950345555E+03  0.00000000000E+00 0. -1.
         25    1    1    2    0    0 -0.85968364525E+02  0.15250374213E+02  0.16011678862E+03  0.22110070016E+03  0.12500000000E+03 0.  0.
         25    1    1    2    0    0  0.85968364525E+02 -0.15250374213E+02 -0.40310910297E+02  0.15771208927E+03  0.12500000000E+03 0.  0.
</event>
<event>
 4    0  0.2168146E-002  0.3971117E+03  0.7546771E-02  0.1044784E+00
         21   -1    0    0  502  501  0.00000000000E+00  0.00000000000E+00  0.39219925108E+03  0.39219925108E+03  0.00000000000E+00 0.  1.
         21   -1    0    0  501  502 -0.00000000000E+00 -0.00000000000E+00 -0.40208566602E+03  0.40208566602E+03  0.00000000000E+00 0.  1.
         25    1    1    2    0    0  0.22242563319E+03 -0.15776002085E+03  0.25529092267E+03  0.39390334052E+03  0.12500000000E+03 0.  0.
         25    1    1    2    0    0 -0.22242563319E+03  0.15776002085E+03 -0.26517733762E+03  0.40038157658E+03  0.12500000000E+03 0.  0.
</event>
<event>
 4    0  0.2168146E-002  0.1890995E+03  0.7546771E-02  0.1159276E+00
         21   -1    0    0  502  501  0.00000000000E+00  0.00000000000E+00  0.42528487883E+03  0.42528487883E+03  0.00000000000E+00 0. -1.
         21   -1    0    0  501  502 -0.00000000000E+00 -0.00000000000E+00 -0.84081570510E+02  0.84081570510E+02  0.00000000000E+00 0. -1.
         25    1    1    2    0    0 -0.32439285597E+02  0.55169117812E+02  0.40252287756E-01  0.14043126586E+03  0.12500000000E+03 0.  0.
         25    1    1    2    0    0  0.32439285597E+02 -0.55169117812E+02  0.34116305604E+03  0.36893518349E+03  0.12500000000E+03 0.  0.
</event>
<event>
 4    0  0.2168146E-002  0.2310737E+03  0.7546771E-02  0.1125886E+00
         21   -1    0    0  502  501  0.00000000000E+00  0.00000000000E+00  0.20062710639E+03  0.20062710639E+03  0.00000000000E+00 0. -1.
         21   -1    0    0  501  502 -0.00000000000E+00 -0.00000000000E+00 -0.26614077933E+03  0.26614077933E+03  0.00000000000E+00 0. -1.
         25    1    1    2    0    0  0.14995635707E+03 -0.11883319157E+03 -0.67183069732E+02  0.23821587122E+03  0.12500000000E+03 0.  0.
         25    1    1    2    0    0 -0.14995635707E+03  0.11883319157E+03  0.16693967913E+01  0.22855201450E+03  0.12500000000E+03 0.  0.
</event>
<event>
 4    0  0.2168146E-002  0.2476761E+03  0.7546771E-02  0.1114782E+00
         21   -1    0    0  502  501  0.00000000000E+00  0.00000000000E+00  0.20432372889E+03  0.20432372889E+03  0.00000000000E+00 0.  1.
         21   -1    0    0  501  502 -0.00000000000E+00 -0.00000000000E+00 -0.30022667765E+03  0.30022667765E+03  0.00000000000E+00 0.  1.
         25    1    1    2    0    0 -0.13344130150E+03 -0.14605819285E+02  0.12156770073E+03  0.22005366791E+03  0.12500000000E+03 0.  0.
         25    1    1    2    0    0  0.13344130150E+03  0.14605819285E+02 -0.21747064949E+03  0.28449673863E+03  0.12500000000E+03 0.  0.
</event>
<event>
 4    0  0.2168146E-002  0.2479517E+03  0.7546771E-02  0.1114606E+00
         21   -1    0    0  502  501  0.00000000000E+00  0.00000000000E+00  0.66067951598E+03  0.66067951598E+03  0.00000000000E+00 0. -1.
         21   -1    0    0  501  502 -0.00000000000E+00 -0.00000000000E+00 -0.93055760983E+02  0.93055760983E+02  0.00000000000E+00 0. -1.
         25    1    1    2    0    0 -0.13834530486E+03 -0.16337018343E+03  0.29153137147E+03  0.38268104312E+03  0.12500000000E+03 0.  0.
         25    1    1    2    0    0  0.13834530486E+03  0.16337018343E+03  0.27609238353E+03  0.37105423384E+03  0.12500000000E+03 0.  0.
</event>
<event>
 4    0  0.2168146E-002  0.1958211E+03  0.7546771E-02  0.1153313E+00
         21   -1    0    0  502  501  0.00000000000E+00  0.00000000000E+00  0.10023866951E+03  0.10023866951E+03  0.00000000000E+00 0. -1.
         21   -1    0    0  501  502 -0.00000000000E+00 -0.00000000000E+00 -0.38254608690E+03  0.38254608690E+03  0.00000000000E+00 0. -1.
         25    1    1    2    0    0  0.46889196944E+02 -0.54641627508E+02 -0.30439754924E+03  0.33684888634E+03  0.12500000000E+03 0.  0.
         25    1    1    2    0    0 -0.46889196944E+02  0.54641627508E+02  0.22090131847E+02  0.14593587007E+03  0.12500000000E+03 0.  0.
</event>
<event>
 4    0  0.2168146E-002  0.2478192E+03  0.7546771E-02  0.1114691E+00
         21   -1    0    0  502  501  0.00000000000E+00  0.00000000000E+00  0.42323935221E+03  0.42323935221E+03  0.00000000000E+00 0.  1.
         21   -1    0    0  501  502 -0.00000000000E+00 -0.00000000000E+00 -0.14510551104E+03  0.14510551104E+03  0.00000000000E+00 0.  1.
         25    1    1    2    0    0  0.47096661120E+02  0.19986591515E+03  0.70028004509E+02  0.25038650312E+03  0.12500000000E+03 0.  0.
         25    1    1    2    0    0 -0.47096661120E+02 -0.19986591515E+03  0.20810583666E+03  0.31795836013E+03  0.12500000000E+03 0.  0.
</event>
<event>
 4    0  0.2168146E-002  0.1858377E+03  0.7546771E-02  0.1162270E+00
         21   -1    0    0  502  501  0.00000000000E+00  0.00000000000E+00  0.61410708535E+03  0.61410708535E+03  0.00000000000E+00 0.  1.
         21   -1    0    0  501  502 -0.00000000000E+00 -0.00000000000E+00 -0.56237175579E+02  0.56237175579E+02  0.00000000000E+00 0.  1.
         25    1    1    2    0    0 -0.20027832892E+02 -0.52606194015E+02  0.50522514937E+03  0.52349400885E+03  0.12500000000E+03 0.  0.
         25    1    1    2    0    0  0.20027832892E+02  0.52606194015E+02  0.52644760396E+02  0.14685025208E+03  0.12500000000E+03 0.  0.
</event>
<event>
 4    0  0.2168146E-002  0.2699789E+03  0.7546771E-02  0.1101292E+00
         21   -1    0    0  502  501  0.00000000000E+00  0.00000000000E+00  0.29286364643E+03  0.29286364643E+03  0.00000000000E+00 0.  1.
         21   -1    0    0  501  502 -0.00000000000E+00 -0.00000000000E+00 -0.24888246974E+03  0.24888246974E+03  0.00000000000E+00 0. -1.
         25    1    1    2    0    0  0.19144923299E+03 -0.14171482040E+03 -0.10578334878E+01  0.26900189245E+03  0.12500000000E+03 0.  0.
         25    1    1    2    0    0 -0.19144923299E+03  0.14171482040E+03  0.45039010177E+02  0.27274422371E+03  0.12500000000E+03 0.  0.
</event>
<event>
 4    0  0.2168146E-002  0.2971456E+03  0.7546771E-02  0.1086676E+00
         21   -1    0    0  502  501  0.00000000000E+00  0.00000000000E+00  0.22895285117E+03  0.22895285117E+03  0.00000000000E+00 0. -1.
         21   -1    0    0  501  502 -0.00000000000E+00 -0.00000000000E+00 -0.38564943217E+03  0.38564943217E+03  0.00000000000E+00 0. -1.
         25    1    1    2    0    0 -0.19732341287E+03 -0.13057133531E+03 -0.21193389167E+03  0.34135960116E+03  0.12500000000E+03 0.  0.
         25    1    1    2    0    0  0.19732341287E+03  0.13057133531E+03  0.55237310669E+02  0.27324268217E+03  0.12500000000E+03 0.  0.
</event>
<event>
 4    0  0.2168146E-002  0.2880600E+03  0.7546771E-02  0.1091366E+00
         21   -1    0    0  502  501  0.00000000000E+00  0.00000000000E+00  0.11048109381E+03  0.11048109381E+03  0.00000000000E+00 0.  1.
         21   -1    0    0  501  502 -0.00000000000E+00 -0.00000000000E+00 -0.75106583317E+03  0.75106583317E+03  0.00000000000E+00 0.  1.
         25    1    1    2    0    0 -0.20298113280E+03  0.13928377372E+03 -0.19740968481E+03  0.33940667871E+03  0.12500000000E+03 0.  0.
         25    1    1    2    0    0  0.20298113280E+03 -0.13928377372E+03 -0.44317505454E+03  0.52214024827E+03  0.12500000000E+03 0.  0.
</event>
<event>
 4    0  0.2168146E-002  0.2590927E+03  0.7546771E-02  0.1107690E+00
         21   -1    0    0  502  501  0.00000000000E+00  0.00000000000E+00  0.13548116018E+04  0.13548116018E+04  0.00000000000E+00 0.  1.
         21   -1    0    0  501  502 -0.00000000000E+00 -0.00000000000E+00 -0.49548601952E+02  0.49548601952E+02  0.00000000000E+00 0.  1.
         25    1    1    2    0    0  0.30419755185E+01 -0.77582288981E+02  0.74690740521E+02  0.16502112561E+03  0.12500000000E+03 0.  0.
         25    1    1    2    0    0 -0.30419755185E+01  0.77582288981E+02  0.12305722593E+04  0.12393390781E+04  0.12500000000E+03 0.  0.
</event>
<event>
 4    0  0.2168146E-002  0.1440639E+03  0.7546771E-02  0.1207963E+00
         21   -1    0    0  502  501  0.00000000000E+00  0.00000000000E+00  0.18870382859E+03  0.18870382859E+03  0.00000000000E+00 0. -1.
         21   -1    0    0  501  502 -0.00000000000E+00 -0.00000000000E+00 -0.10998410132E+03  0.10998410132E+03  0.00000000000E+00 0. -1.
         25    1    1    2    0    0  0.56638382281E+02 -0.14127477754E+02 -0.36571235357E+01  0.13800676262E+03  0.12500000000E+03 0.  0.
         25    1    1    2    0    0 -0.56638382281E+02  0.14127477754E+02  0.82376850799E+02  0.16068116729E+03  0.12500000000E+03 0.  0.
</event>
<event>
 4    0  0.2168146E-002  0.2125008E+03  0.7546771E-02  0.1139601E+00
         21   -1    0    0  502  501  0.00000000000E+00  0.00000000000E+00  0.22034038093E+03  0.22034038093E+03  0.00000000000E+00 0.  1.
         21   -1    0    0  501  502 -0.00000000000E+00 -0.00000000000E+00 -0.20494011507E+03  0.20494011507E+03  0.00000000000E+00 0.  1.
         25    1    1    2    0    0  0.98718933863E+02  0.10401066954E+02  0.14807039594E+03  0.21772333878E+03  0.12500000000E+03 0.  0.
         25    1    1    2    0    0 -0.98718933863E+02 -0.10401066954E+02 -0.13267013008E+03  0.20755715722E+03  0.12500000000E+03 0.  0.
</event>
<event>
 4    0  0.2168146E-002  0.2841138E+03  0.7546771E-02  0.1093463E+00
         21   -1    0    0  502  501  0.00000000000E+00  0.00000000000E+00  0.42401602126E+03  0.42401602126E+03  0.00000000000E+00 0. -1.
         21   -1    0    0  501  502 -0.00000000000E+00 -0.00000000000E+00 -0.19037169430E+03  0.19037169430E+03  0.00000000000E+00 0. -1.
         25    1    1    2    0    0 -0.89794782149E+02  0.23871607834E+03  0.12424887385E+03  0.31001814723E+03  0.12500000000E+03 0.  0.
         25    1    1    2    0    0  0.89794782149E+02 -0.23871607834E+03  0.10939545311E+03  0.30436956832E+03  0.12500000000E+03 0.  0.
</event>
<event>
 4    0  0.2168146E-002  0.1887547E+03  0.7546771E-02  0.1159589E+00
         21   -1    0    0  502  501  0.00000000000E+00  0.00000000000E+00  0.10514502380E+04  0.10514502380E+04  0.00000000000E+00 0. -1.
         21   -1    0    0  501  502 -0.00000000000E+00 -0.00000000000E+00 -0.33884952596E+02  0.33884952596E+02  0.00000000000E+00 0. -1.
         25    1    1    2    0    0 -0.75854021400E+02  0.34130273566E+02  0.83764704380E+03  0.85099722568E+03  0.12500000000E+03 0.  0.
         25    1    1    2    0    0  0.75854021400E+02 -0.34130273566E+02  0.17991824160E+03  0.23433796490E+03  0.12500000000E+03 0.  0.
</event>
<event>
 4    0  0.2168146E-002  0.2382319E+03  0.7546771E-02  0.1120976E+00
         21   -1    0    0  502  501  0.00000000000E+00  0.00000000000E+00  0.44646999521E+02  0.44646999521E+02  0.00000000000E+00 0.  1.
         21   -1    0    0  501  502 -0.00000000000E+00 -0.00000000000E+00 -0.12711818814E+04  0.12711818814E+04  0.00000000000E+00 0.  1.
         25    1    1    2    0    0 -0.19422914326E+03 -0.56150904368E+02 -0.56946471012E+03  0.61708422458E+03  0.12500000000E+03 0.  0.
         25    1    1    2    0    0  0.19422914326E+03  0.56150904368E+02 -0.65707017175E+03  0.69874465634E+03  0.12500000000E+03 0.  0.
</event>
<event>
 4    0  0.2168146E-002  0.2356793E+03  0.7546771E-02  0.1122705E+00
         21   -1    0    0  502  501  0.00000000000E+00  0.00000000000E+00  0.13736155736E+04  0.13736155736E+04  0.00000000000E+00 0. -1.
         21   -1    0    0  501  502 -0.00000000000E+00 -0.00000000000E+00 -0.40436872871E+02  0.40436872871E+02  0.00000000000E+00 0. -1.
         25    1    1    2    0    0  0.80218431673E+02 -0.71249606738E+02  0.16095553435E+03  0.23031106634E+03  0.12500000000E+03 0.  0.
         25    1    1    2    0    0 -0.80218431673E+02  0.71249606738E+02  0.11722231664E+04  0.11837413801E+04  0.12500000000E+03 0.  0.
</event>
<event>
 4    0  0.2168146E-002  0.2185159E+03  0.7546771E-02  0.1134994E+00
         21   -1    0    0  502  501  0.00000000000E+00  0.00000000000E+00  0.55178908752E+03  0.55178908752E+03  0.00000000000E+00 0.  1.
         21   -1    0    0  501  502 -0.00000000000E+00 -0.00000000000E+00 -0.86535216668E+02  0.86535216668E+02  0.00000000000E+00 0.  1.
         25    1    1    2    0    0 -0.22017944325E+02 -0.12790903039E+02 -0.26502480460E+02  0.13029112995E+03  0.12500000000E+03 0.  0.
         25    1    1    2    0    0  0.22017944325E+02  0.12790903039E+02  0.49175635132E+03  0.50803317424E+03  0.12500000000E+03 0.  0.
</event>
<event>
 4    0  0.2168146E-002  0.1987390E+03  0.7546771E-02  0.1150807E+00
         21   -1    0    0  502  501  0.00000000000E+00  0.00000000000E+00  0.31614878571E+03  0.31614878571E+03  0.00000000000E+00 0. -1.
         21   -1    0    0  501  502 -0.00000000000E+00 -0.00000000000E+00 -0.12493232907E+03  0.12493232907E+03  0.00000000000E+00 0. -1.
         25    1    1    2    0    0 -0.53532207388E+02  0.12845498010E+02  0.25581090862E+03  0.28999124989E+03  0.12500000000E+03 0.  0.
         25    1    1    2    0    0  0.53532207388E+02 -0.12845498010E+02 -0.64594451973E+02  0.15108986489E+03  0.12500000000E+03 0.  0.
</event>
<event>
 4    0  0.2168146E-002  0.1518605E+03  0.7546771E-02  0.1198205E+00
         21   -1    0    0  502  501  0.00000000000E+00  0.00000000000E+00  0.17885402659E+03  0.17885402659E+03  0.00000000000E+00 0.  1.
         21   -1    0    0  501  502 -0.00000000000E+00 -0.00000000000E+00 -0.12894093418E+03  0.12894093418E+03  0.00000000000E+00 0.  1.
         25    1    1    2    0    0  0.84528774452E+02 -0.10795782732E+02  0.38360550992E+02  0.15607112003E+03  0.12500000000E+03 0.  0.
         25    1    1    2    0    0 -0.84528774452E+02  0.10795782732E+02  0.11552541426E+02  0.15172384074E+03  0.12500000000E+03 0.  0.
</event>
<event>
 4    0  0.2168146E-002  0.2252302E+03  0.7546771E-02  0.1130043E+00
         21   -1    0    0  502  501  0.00000000000E+00  0.00000000000E+00  0.28476623690E+03  0.28476623690E+03  0.00000000000E+00 0.  1.
         21   -1    0    0  501  502 -0.00000000000E+00 -0.00000000000E+00 -0.17814132885E+03  0.17814132885E+03  0.00000000000E+00 0.  1.
         25    1    1    2    0    0 -0.14758592607E+03 -0.24376777340E+02  0.16924741330E+03  0.25815793568E+03  0.12500000000E+03 0.  0.
         25    1    1    2    0    0  0.14758592607E+03  0.24376777340E+02 -0.62622505255E+02  0.20474963006E+03  0.12500000000E+03 0.  0.
</event>
<event>
 4    0  0.2168146E-002  0.2070188E+03  0.7546771E-02  0.1143949E+00
         21   -1    0    0  502  501  0.00000000000E+00  0.00000000000E+00  0.17476896440E+03  0.17476896440E+03  0.00000000000E+00 0. -1.
         21   -1    0    0  501  502 -0.00000000000E+00 -0.00000000000E+00 -0.24521970603E+03  0.24521970603E+03  0.00000000000E+00 0. -1.
         25    1    1    2    0    0 -0.73878468074E+02  0.12951050669E+03 -0.10695808297E+03  0.22202709497E+03  0.12500000000E+03 0.  0.
         25    1    1    2    0    0  0.73878468074E+02 -0.12951050669E+03  0.36507341347E+02  0.19796157546E+03  0.12500000000E+03 0.  0.
</event>
<event>
 4    0  0.2168146E-002  0.3817895E+03  0.7546771E-02  0.1050274E+00
         21   -1    0    0  502  501  0.00000000000E+00  0.00000000000E+00  0.49368279403E+02  0.49368279403E+02  0.00000000000E+00 0. -1.
         21   -1    0    0  501  502 -0.00000000000E+00 -0.00000000000E+00 -0.29525684879E+04  0.29525684879E+04  0.00000000000E+00 0. -1.
         25    1    1    2    0    0 -0.29898203671E+03 -0.28294938323E+02 -0.22373631920E+04  0.22608869752E+04  0.12500000000E+03 0.  0.
         25    1    1    2    0    0  0.29898203671E+03  0.28294938323E+02 -0.66583701650E+03  0.74104979208E+03  0.12500000000E+03 0.  0.
</event>
<event>
 4    0  0.2168146E-002  0.3147003E+03  0.7546771E-02  0.1078115E+00
         21   -1    0    0  502  501  0.00000000000E+00  0.00000000000E+00  0.12455753550E+04  0.12455753550E+04  0.00000000000E+00 0.  1.
         21   -1    0    0  501  502 -0.00000000000E+00 -0.00000000000E+00 -0.79510488692E+02  0.79510488692E+02  0.00000000000E+00 0.  1.
         25    1    1    2    0    0 -0.22322764073E+03  0.17952392094E+03  0.50562421608E+03  0.59442431449E+03  0.12500000000E+03 0.  0.
         25    1    1    2    0    0  0.22322764073E+03 -0.17952392094E+03  0.66044065024E+03  0.73066152921E+03  0.12500000000E+03 0.  0.
</event>
<event>
 4    0  0.2168146E-002  0.2416798E+03  0.7546771E-02  0.1118679E+00
         21   -1    0    0  502  501  0.00000000000E+00  0.00000000000E+00  0.12485104849E+03  0.12485104849E+03  0.00000000000E+00 0. -1.
         21   -1    0    0  501  502 -0.00000000000E+00 -0.00000000000E+00 -0.46783032431E+03  0.46783032431E+03  0.00000000000E+00 0. -1.
         25    1    1    2    0    0  0.12017101236E+03  0.10621397790E+03 -0.11327004954E+02  0.20365603932E+03  0.12500000000E+03 0.  0.
         25    1    1    2    0    0 -0.12017101236E+03 -0.10621397790E+03 -0.33165227087E+03  0.38902533347E+03  0.12500000000E+03 0.  0.
</event>
<event>
 4    0  0.2168146E-002  0.2631914E+03  0.7546771E-02  0.1105241E+00
         21   -1    0    0  502  501  0.00000000000E+00  0.00000000000E+00  0.49321465138E+03  0.49321465138E+03  0.00000000000E+00 0. -1.
         21   -1    0    0  501  502 -0.00000000000E+00 -0.00000000000E+00 -0.14044535148E+03  0.14044535148E+03  0.00000000000E+00 0. -1.
         25    1    1    2    0    0  0.11507928500E+03  0.19794547162E+03  0.13435400899E+03  0.29343082882E+03  0.12500000000E+03 0.  0.
         25    1    1    2    0    0 -0.11507928500E+03 -0.19794547162E+03  0.21841529091E+03  0.34022917405E+03  0.12500000000E+03 0.  0.
</event>
<event>
 4    0  0.2168146E-002  0.2884645E+03  0.7546771E-02  0.1091154E+00
         21   -1    0    0  502  501  0.00000000000E+00  0.00000000000E+00  0.13772182963E+04  0.13772182963E+04  0.00000000000E+00 0. -1.
         21   -1    0    0  501  502 -0.00000000000E+00 -0.00000000000E+00 -0.60420167264E+02  0.60420167264E+02  0.00000000000E+00 0. -1.
         25    1    1    2    0    0 -0.60193454605E+02  0.24175970283E+03  0.47333172734E+03  0.54930768245E+03  0.12500000000E+03 0.  0.
         25    1    1    2    0    0  0.60193454605E+02 -0.24175970283E+03  0.84346640169E+03  0.88833078111E+03  0.12500000000E+03 0.  0.
</event>
<event>
 4    0  0.2168146E-002  0.3870040E+03  0.7546771E-02  0.1048375E+00
         21   -1    0    0  502  501  0.00000000000E+00  0.00000000000E+00  0.18443568034E+03  0.18443568034E+03  0.00000000000E+00 0.  1.
         21   -1    0    0  501  502 -0.00000000000E+00 -0.00000000000E+00 -0.81205604847E+03  0.81205604847E+03  0.00000000000E+00 0.  1.
         25    1    1    2    0    0  0.47705263364E+02 -0.33836176489E+03 -0.48355089538E+03  0.60515365364E+03  0.12500000000E+03 0.  0.
         25    1    1    2    0    0 -0.47705263364E+02  0.33836176489E+03 -0.14406947275E+03  0.39133807516E+03  0.12500000000E+03 0.  0.
</event>
<event>
 4    0  0.2168146E-002  0.1946502E+03  0.7546771E-02  0.1154333E+00
         21   -1    0    0  502  501  0.00000000000E+00  0.00000000000E+00  0.46610917290E+03  0.46610917290E+03  0.00000000000E+00 0. -1.
         21   -1    0    0  501  502 -0.00000000000E+00 -0.00000000000E+00 -0.81287208583E+02  0.81287208583E+02  0.00000000000E+00 0. -1.
         25    1    1    2    0    0 -0.86498056831E+02  0.85037438493E+02  0.31459177756E+03  0.35959180510E+03  0.12500000000E+03 0.  0.
         25    1    1    2    0    0  0.86498056831E+02 -0.85037438493E+02  0.70230186753E+02  0.18780457639E+03  0.12500000000E+03 0.  0.
</event>
<event>
 4    0  0.2168146E-002  0.2517396E+03  0.7546771E-02  0.1112210E+00
         21   -1    0    0  502  501  0.00000000000E+00  0.00000000000E+00  0.12408601844E+03  0.12408601844E+03  0.00000000000E+00 0. -1.
         21   -1    0    0  501  502 -0.00000000000E+00 -0.00000000000E+00 -0.51071704507E+03  0.51071704507E+03  0.00000000000E+00 0. -1.
         25    1    1    2    0    0 -0.10844323615E+03  0.14267067013E+01  0.45863705441E+02  0.17172783827E+03  0.12500000000E+03 0.  0.
         25    1    1    2    0    0  0.10844323615E+03 -0.14267067013E+01 -0.43249473207E+03  0.46307522524E+03  0.12500000000E+03 0.  0.
</event>
<event>
 4    0  0.2168146E-002  0.3109609E+03  0.7546771E-02  0.1079886E+00
         21   -1    0    0  502  501  0.00000000000E+00  0.00000000000E+00  0.49745250863E+03  0.49745250863E+03  0.00000000000E+00 0. -1.
         21   -1    0    0  501  502 -0.00000000000E+00 -0.00000000000E+00 -0.19438376583E+03  0.19438376583E+03  0.00000000000E+00 0. -1.
         25    1    1    2    0    0 -0.74271589159E+02  0.30737092245E+02 -0.15232172137E+03  0.21280964404E+03  0.12500000000E+03 0.  0.
         25    1    1    2    0    0  0.74271589159E+02 -0.30737092245E+02  0.45539046417E+03  0.47902663042E+03  0.12500000000E+03 0.  0.
</event>
<event>
 4    0  0.2168146E-002  0.2103757E+03  0.7546771E-02  0.1141269E+00
         21   -1    0    0  502  501  0.00000000000E+00  0.00000000000E+00  0.12010774447E+03  0.12010774447E+03  0.00000000000E+00 0.  1.
         21   -1    0    0  501  502 -0.00000000000E+00 -0.00000000000E+00 -0.36848536681E+03  0.36848536681E+03  0.00000000000E+00 0.  1.
         25    1    1    2    0    0  0.90246261148E+02  0.54844941353E+01 -0.29028450992E+03  0.32873175086E+03  0.12500000000E+03 0.  0.
         25    1    1    2    0    0 -0.90246261148E+02 -0.54844941353E+01  0.41906887576E+02  0.15986136041E+03  0.12500000000E+03 0.  0.
</event>
<event>
 4    0  0.2168146E-002  0.4295621E+03  0.7546771E-02  0.1033998E+00
         21   -1    0    0  502  501  0.00000000000E+00  0.00000000000E+00  0.41511300318E+03  0.41511300318E+03  0.00000000000E+00 0.  1.
         21   -1    0    0  501  502 -0.00000000000E+00 -0.00000000000E+00 -0.44451421878E+03  0.44451421878E+03  0.00000000000E+00 0.  1.
         25    1    1    2    0    0 -0.27271479920E+03 -0.13574246638E+03 -0.29072303138E+03  0.43925420870E+03  0.12500000000E+03 0.  0.
         25    1    1    2    0    0  0.27271479920E+03  0.13574246638E+03  0.26132181578E+03  0.42037301327E+03  0.12500000000E+03 0.  0.
</event>
<event>
 4    0  0.2168146E-002  0.2090215E+03  0.7546771E-02  0.1142343E+00
         21   -1    0    0  502  501  0.00000000000E+00  0.00000000000E+00  0.79394491850E+03  0.79394491850E+03  0.00000000000E+00 0.  1.
         21   -1    0    0  501  502 -0.00000000000E+00 -0.00000000000E+00 -0.55028999324E+02  0.55028999324E+02  0.00000000000E+00 0.  1.
         25    1    1    2    0    0 -0.13369405913E+03  0.78028118659E+02  0.23938172666E+03  0.31127335223E+03  0.12500000000E+03 0.  0.
         25    1    1    2    0    0  0.13369405913E+03 -0.78028118659E+02  0.49953419251E+03  0.53770056559E+03  0.12500000000E+03 0.  0.
</event>
<event>
 4    0  0.2168146E-002  0.1766137E+03  0.7546771E-02  0.1171121E+00
         21   -1    0    0  502  501  0.00000000000E+00  0.00000000000E+00  0.83799904626E+03  0.83799904626E+03  0.00000000000E+00 0.  1.
         21   -1    0    0  501  502 -0.00000000000E+00 -0.00000000000E+00 -0.37222458728E+02  0.37222458728E+02  0.00000000000E+00 0.  1.
         25    1    1    2    0    0 -0.87528921356E+02  0.60727601332E+02  0.23946130404E+03  0.29037195073E+03  0.12500000000E+03 0.  0.
         25    1    1    2    0    0  0.87528921356E+02 -0.60727601332E+02  0.56131528349E+03  0.58484955426E+03  0.12500000000E+03 0.  0.
</event>
<event>
 4    0  0.2168146E-002  0.2291656E+03  0.7546771E-02  0.1127228E+00
         21   -1    0    0  502  501  0.00000000000E+00  0.00000000000E+00  0.25014548407E+03  0.25014548407E+03  0.00000000000E+00 0. -1.
         21   -1    0    0  501  502 -0.00000000000E+00 -0.00000000000E+00 -0.20994529170E+03  0.20994529170E+03  0.00000000000E+00 0. -1.
         25    1    1    2    0    0 -0.11848666499E+03 -0.13887020642E+02  0.17121015878E+03  0.24324855106E+03  0.12500000000E+03 0.  0.
         25    1    1    2    0    0  0.11848666499E+03  0.13887020642E+02 -0.13100996641E+03  0.21684222472E+03  0.12500000000E+03 0.  0.
</event>
<event>
 4    0  0.2168146E-002  0.2146748E+03  0.7546771E-02  0.1137917E+00
         21   -1    0    0  502  501  0.00000000000E+00  0.00000000000E+00  0.30592301170E+03  0.30592301170E+03  0.00000000000E+00 0.  1.
         21   -1    0    0  501  502 -0.00000000000E+00 -0.00000000000E+00 -0.15064342767E+03  0.15064342767E+03  0.00000000000E+00 0.  1.
         25    1    1    2    0    0  0.77628236646E+02  0.22892368596E+02  0.24207068059E+03  0.28420664677E+03  0.12500000000E+03 0.  0.
         25    1    1    2    0    0 -0.77628236646E+02 -0.22892368596E+02 -0.86791096566E+02  0.17235979261E+03  0.12500000000E+03 0.  0.
</event>
<event>
 4    0  0.2168146E-002  0.2947782E+03  0.7546771E-02  0.1087880E+00
         21   -1    0    0  502  501  0.00000000000E+00  0.00000000000E+00  0.25270760523E+03  0.25270760523E+03  0.00000000000E+00 0. -1.
         21   -1    0    0  501  502 -0.00000000000E+00 -0.00000000000E+00 -0.34385263203E+03  0.34385263203E+03  0.00000000000E+00 0. -1.
         25    1    1    2    0    0 -0.99574298870E+02  0.10179433818E+03  0.18292432608E+03  0.26336939335E+03  0.12500000000E+03 0.  0.
         25    1    1    2    0    0  0.99574298870E+02 -0.10179433818E+03 -0.27406935288E+03  0.33319084392E+03  0.12500000000E+03 0.  0.
</event>
<event>
 4    0  0.2168146E-002  0.2107694E+03  0.7546771E-02  0.1140958E+00
         21   -1    0    0  502  501  0.00000000000E+00  0.00000000000E+00  0.42510066431E+02  0.42510066431E+02  0.00000000000E+00 0.  1.
         21   -1    0    0  501  502 -0.00000000000E+00 -0.00000000000E+00 -0.10450174298E+04  0.10450174298E+04  0.00000000000E+00 0. -1.
         25    1    1    2    0    0  0.14008695118E+03  0.72638173306E+02 -0.66232907668E+03  0.69224667853E+03  0.12500000000E+03 0.  0.
         25    1    1    2    0    0 -0.14008695118E+03 -0.72638173306E+02 -0.34017828669E+03  0.39528081771E+03  0.12500000000E+03 0.  0.
</event>
<event>
 4    0  0.2168146E-002  0.2453186E+03  0.7546771E-02  0.1116300E+00
         21   -1    0    0  502  501  0.00000000000E+00  0.00000000000E+00  0.16574714367E+04  0.16574714367E+04  0.00000000000E+00 0.  1.
         21   -1    0    0  501  502 -0.00000000000E+00 -0.00000000000E+00 -0.36309043769E+02  0.36309043769E+02  0.00000000000E+00 0.  1.
         25    1    1    2    0    0 -0.11133100560E+03 -0.10737868522E+03  0.13064437825E+04  0.13214935231E+04  0.12500000000E+03 0.  0.
         25    1    1    2    0    0  0.11133100560E+03  0.10737868522E+03  0.31471861041E+03  0.37228695732E+03  0.12500000000E+03 0.  0.
</event>
<event>
 4    0  0.2168146E-002  0.1610126E+03  0.7546771E-02  0.1187558E+00
         21   -1    0    0  502  501  0.00000000000E+00  0.00000000000E+00  0.85128746254E+02  0.85128746254E+02  0.00000000000E+00 0.  1.
         21   -1    0    0  501  502 -0.00000000000E+00 -0.00000000000E+00 -0.30453944172E+03  0.30453944172E+03  0.00000000000E+00 0.  1.
         25    1    1    2    0    0 -0.97720809940E+01 -0.10101097417E+03 -0.10829918866E+03  0.19404232717E+03  0.12500000000E+03 0.  0.
         25    1    1    2    0    0  0.97720809940E+01  0.10101097417E+03 -0.11111150681E+03  0.19562586081E+03  0.12500000000E+03 0.  0.
</event>
<event>
 4    0  0.2168146E-002  0.1616356E+03  0.7546771E-02  0.1186862E+00
         21   -1    0    0  502  501  0.00000000000E+00  0.00000000000E+00  0.29609927918E+03  0.29609927918E+03  0.00000000000E+00 0.  1.
         21   -1    0    0  501  502 -0.00000000000E+00 -0.00000000000E+00 -0.88234179441E+02  0.88234179441E+02  0.00000000000E+00 0.  1.
         25    1    1    2    0    0  0.28358655500E+02 -0.21213192456E+02  0.21825679283E+03  0.25399850490E+03  0.12500000000E+03 0.  0.
         25    1    1    2    0    0 -0.28358655500E+02  0.21213192456E+02 -0.10391693091E+02  0.13033495372E+03  0.12500000000E+03 0.  0.
</event>
<event>
 4    0  0.2168146E-002  0.1748838E+03  0.7546771E-02  0.1172848E+00
         21   -1    0    0  502  501  0.00000000000E+00  0.00000000000E+00  0.95843115867E+03  0.95843115867E+03  0.00000000000E+00 0.  1.
         21   -1    0    0  501  502 -0.00000000000E+00 -0.00000000000E+00 -0.31910824323E+02  0.31910824323E+02  0.00000000000E+00 0.  1.
         25    1    1    2    0    0 -0.80893126550E+01 -0.26808150783E+02  0.12615101828E+03  0.17978652158E+03  0.12500000000E+03 0.  0.
         25    1    1    2    0    0  0.80893126550E+01  0.26808150783E+02  0.80036931607E+03  0.81055546142E+03  0.12500000000E+03 0.  0.
</event>
<event>
 4    0  0.2168146E-002  0.2196364E+03  0.7546771E-02  0.1134154E+00
         21   -1    0    0  502  501  0.00000000000E+00  0.00000000000E+00  0.10832594880E+03  0.10832594880E+03  0.00000000000E+00 0.  1.
         21   -1    0    0  501  502 -0.00000000000E+00 -0.00000000000E+00 -0.44532395134E+03  0.44532395134E+03  0.00000000000E+00 0.  1.
         25    1    1    2    0    0  0.52651545163E+02 -0.16463754065E+03 -0.10255537506E+03  0.23668610004E+03  0.12500000000E+03 0.  0.
         25    1    1    2    0    0 -0.52651545163E+02  0.16463754065E+03 -0.23444262748E+03  0.31696380011E+03  0.12500000000E+03 0.  0.
</event>
<event>
 4    0  0.2168146E-002  0.2245070E+03  0.7546771E-02  0.1130567E+00
         21   -1    0    0  502  501  0.00000000000E+00  0.00000000000E+00  0.31701454793E+03  0.31701454793E+03  0.00000000000E+00 0.  1.
         21   -1    0    0  501  502 -0.00000000000E+00 -0.00000000000E+00 -0.15899390326E+03  0.15899390326E+03  0.00000000000E+00 0.  1.
         25    1    1    2    0    0 -0.93966517499E+02  0.36666466597E+02  0.24529791649E+03  0.29320675985E+03  0.12500000000E+03 0.  0.
         25    1    1    2    0    0  0.93966517499E+02 -0.36666466597E+02 -0.87277271822E+02  0.18280169135E+03  0.12500000000E+03 0.  0.
</event>
<event>
 4    0  0.2168146E-002  0.1703421E+03  0.7546771E-02  0.1177492E+00
         21   -1    0    0  502  501  0.00000000000E+00  0.00000000000E+00  0.37037408680E+02  0.37037408680E+02  0.00000000000E+00 0. -1.
         21   -1    0    0  501  502 -0.00000000000E+00 -0.00000000000E+00 -0.78343533889E+03  0.78343533889E+03  0.00000000000E+00 0. -1.
         25    1    1    2    0    0  0.10100021903E+03  0.55997275372E+02 -0.39100673662E+03  0.42643640461E+03  0.12500000000E+03 0.  0.
         25    1    1    2    0    0 -0.10100021903E+03 -0.55997275372E+02 -0.35539119358E+03  0.39403634296E+03  0.12500000000E+03 0.  0.
</event>
<event>
 4    0  0.2168146E-002  0.2127658E+03  0.7546771E-02  0.1139394E+00
         21   -1    0    0  502  501  0.00000000000E+00  0.00000000000E+00  0.46000926363E+03  0.46000926363E+03  0.00000000000E+00 0. -1.
         21   -1    0    0  501  502 -0.00000000000E+00 -0.00000000000E+00 -0.98409519079E+02  0.98409519079E+02  0.00000000000E+00 0. -1.
         25    1    1    2    0    0 -0.88154049841E+02 -0.14738520050E+02 -0.12315389517E+02  0.15415910384E+03  0.12500000000E+03 0.  0.
         25    1    1    2    0    0  0.88154049841E+02  0.14738520050E+02  0.37391513407E+03  0.40425967887E+03  0.12500000000E+03 0.  0.
</event>
<event>
 4    0  0.2168146E-002  0.3219594E+03  0.7546771E-02  0.1074751E+00
         21   -1    0    0  502  501  0.00000000000E+00  0.00000000000E+00  0.12888297926E+04  0.12888297926E+04  0.00000000000E+00 0.  1.
         21   -1    0    0  501  502 -0.00000000000E+00 -0.00000000000E+00 -0.80427875386E+02  0.80427875386E+02  0.00000000000E+00 0.  1.
         25    1    1    2    0    0 -0.19969717088E+03  0.12611463061E+03  0.22233397702E+03  0.34762229136E+03  0.12500000000E+03 0.  0.
         25    1    1    2    0    0  0.19969717088E+03 -0.12611463061E+03  0.98606794024E+03  0.10216353767E+04  0.12500000000E+03 0.  0.
</event>
<event>
 4    0  0.2168146E-002  0.1883779E+03  0.7546771E-02  0.1159933E+00
         21   -1    0    0  502  501  0.00000000000E+00  0.00000000000E+00  0.43484545158E+02  0.43484545158E+02  0.00000000000E+00 0. -1.
         21   -1    0    0  501  502 -0.00000000000E+00 -0.00000000000E+00 -0.81606501474E+03  0.81606501474E+03  0.00000000000E+00 0. -1.
         25    1    1    2    0    0 -0.12232361898E+03 -0.11949135443E+02 -0.54361716646E+03  0.57118339723E+03  0.12500000000E+03 0.  0.
         25    1    1    2    0    0  0.12232361898E+03  0.11949135443E+02 -0.22896330312E+03  0.28836616267E+03  0.12500000000E+03 0.  0.
</event>
<event>
 4    0  0.2168146E-002  0.2108021E+03  0.7546771E-02  0.1140932E+00
         21   -1    0    0  502  501  0.00000000000E+00  0.00000000000E+00  0.41487056927E+03  0.41487056927E+03  0.00000000000E+00 0.  1.
         21   -1    0    0  501  502 -0.00000000000E+00 -0.00000000000E+00 -0.10711179686E+03  0.10711179686E+03  0.00000000000E+00 0.  1.
         25    1    1    2    0    0 -0.88863226728E+02 -0.14334640370E+03  0.17761926855E+03  0.27498812534E+03  0.12500000000E+03 0.  0.
         25    1    1    2    0    0  0.88863226728E+02  0.14334640370E+03  0.13013950386E+03  0.24699424079E+03  0.12500000000E+03 0.  0.
</event>
<event>
 4    0  0.2168146E-002  0.2290762E+03  0.7546771E-02  0.1127292E+00
         21   -1    0    0  502  501  0.00000000000E+00  0.00000000000E+00  0.40463806716E+03  0.40463806716E+03  0.00000000000E+00 0.  1.
         21   -1    0    0  501  502 -0.00000000000E+00 -0.00000000000E+00 -0.12968601939E+03  0.12968601939E+03  0.00000000000E+00 0.  1.
         25    1    1    2    0    0 -0.15463902108E+02 -0.13824466150E+03 -0.16806268888E+02  0.18777158831E+03  0.12500000000E+03 0.  0.
         25    1    1    2    0    0  0.15463902108E+02  0.13824466150E+03  0.29175831666E+03  0.34655249824E+03  0.12500000000E+03 0.  0.
</event>
<event>
 4    0  0.2168146E-002  0.1637217E+03  0.7546771E-02  0.1184558E+00
         21   -1    0    0  502  501  0.00000000000E+00  0.00000000000E+00  0.33933713572E+02  0.33933713572E+02  0.00000000000E+00 0.  1.
         21   -1    0    0  501  502 -0.00000000000E+00 -0.00000000000E+00 -0.78991661223E+03  0.78991661223E+03  0.00000000000E+00 0.  1.
         25    1    1    2    0    0  0.85387845750E+02 -0.58178079606E+02 -0.43447741943E+03  0.46375791222E+03  0.12500000000E+03 0.  0.
         25    1    1    2    0    0 -0.85387845750E+02  0.58178079606E+02 -0.32150547923E+03  0.36009241359E+03  0.12500000000E+03 0.  0.
</event>
<event>
 4    0  0.2168146E-002  0.1686691E+03  0.7546771E-02  0.1179243E+00
         21   -1    0    0  502  501  0.00000000000E+00  0.00000000000E+00  0.11731309944E+04  0.11731309944E+04  0.00000000000E+00 0.  1.
         21   -1    0    0  501  502 -0.00000000000E+00 -0.00000000000E+00 -0.24250725303E+02  0.24250725303E+02  0.00000000000E+00 0.  1.
         25    1    1    2    0    0  0.29827806651E+01 -0.11127838325E+03  0.50062234565E+03  0.52786315322E+03  0.12500000000E+03 0.  0.
         25    1    1    2    0    0 -0.29827806651E+01  0.11127838325E+03  0.64825792344E+03  0.66951856648E+03  0.12500000000E+03 0.  0.
</event>
<event>
 4    0  0.2168146E-002  0.2242784E+03  0.7546771E-02  0.1130733E+00
         21   -1    0    0  502  501  0.00000000000E+00  0.00000000000E+00  0.33100958151E+03  0.33100958151E+03  0.00000000000E+00 0.  1.
         21   -1    0    0  501  502 -0.00000000000E+00 -0.00000000000E+00 -0.15196172689E+03  0.15196172689E+03  0.00000000000E+00 0.  1.
         25    1    1    2    0    0  0.84602673295E+02 -0.16588484605E+03  0.90199047151E+02  0.24173593565E+03  0.12500000000E+03 0.  0.
         25    1    1    2    0    0 -0.84602673295E+02  0.16588484605E+03  0.88848807468E+02  0.24123537275E+03  0.12500000000E+03 0.  0.
</event>
<event>
 4    0  0.2168146E-002  0.2177904E+03  0.7546771E-02  0.1135541E+00
         21   -1    0    0  502  501  0.00000000000E+00  0.00000000000E+00  0.57846235798E+02  0.57846235798E+02  0.00000000000E+00 0.  1.
         21   -1    0    0  501  502 -0.00000000000E+00 -0.00000000000E+00 -0.81997806642E+03  0.81997806642E+03  0.00000000000E+00 0.  1.
         25    1    1    2    0    0 -0.13232091708E+03 -0.62161645366E+02 -0.17520213433E+03  0.26018009748E+03  0.12500000000E+03 0.  0.
         25    1    1    2    0    0  0.13232091708E+03  0.62161645366E+02 -0.58692969629E+03  0.61764420473E+03  0.12500000000E+03 0.  0.
</event>
<event>
 4    0  0.2168146E-002  0.2105581E+03  0.7546771E-02  0.1141125E+00
         21   -1    0    0  502  501  0.00000000000E+00  0.00000000000E+00  0.12220767363E+04  0.12220767363E+04  0.00000000000E+00 0.  1.
         21   -1    0    0  501  502 -0.00000000000E+00 -0.00000000000E+00 -0.36278182937E+02  0.36278182937E+02  0.00000000000E+00 0.  1.
         25    1    1    2    0    0  0.15340955835E+03 -0.27320358211E+02  0.39404011605E+03  0.44178445833E+03  0.12500000000E+03 0.  0.
         25    1    1    2    0    0 -0.15340955835E+03  0.27320358211E+02  0.79175843731E+03  0.81657046090E+03  0.12500000000E+03 0.  0.
</event>
<event>
 4    0  0.2168146E-002  0.2422630E+03  0.7546771E-02  0.1118294E+00
         21   -1    0    0  502  501  0.00000000000E+00  0.00000000000E+00  0.81943226184E+02  0.81943226184E+02  0.00000000000E+00 0. -1.
         21   -1    0    0  501  502 -0.00000000000E+00 -0.00000000000E+00 -0.71624414541E+03  0.71624414541E+03  0.00000000000E+00 0. -1.
         25    1    1    2    0    0 -0.42255267496E+02  0.24491629839E+02  0.15113808863E+02  0.13505100807E+03  0.12500000000E+03 0.  0.
         25    1    1    2    0    0  0.42255267496E+02 -0.24491629839E+02 -0.64941472809E+03  0.66313636352E+03  0.12500000000E+03 0.  0.
</event>
<event>
 4    0  0.2168146E-002  0.2825280E+03  0.7546771E-02  0.1094316E+00
         21   -1    0    0  502  501  0.00000000000E+00  0.00000000000E+00  0.20582666423E+03  0.20582666423E+03  0.00000000000E+00 0. -1.
         21   -1    0    0  501  502 -0.00000000000E+00 -0.00000000000E+00 -0.38781199721E+03  0.38781199721E+03  0.00000000000E+00 0. -1.
         25    1    1    2    0    0 -0.53860132907E+02 -0.24702353180E+03 -0.10843079466E+03  0.30216514757E+03  0.12500000000E+03 0.  0.
         25    1    1    2    0    0  0.53860132907E+02  0.24702353180E+03 -0.73554538320E+02  0.29147351387E+03  0.12500000000E+03 0.  0.
</event>
<event>
 4    0  0.2168146E-002  0.1786192E+03  0.7546771E-02  0.1169146E+00
         21   -1    0    0  502  501  0.00000000000E+00  0.00000000000E+00  0.62390970056E+03  0.62390970056E+03  0.00000000000E+00 0.  1.
         21   -1    0    0  501  502 -0.00000000000E+00 -0.00000000000E+00 -0.51136893066E+02  0.51136893066E+02  0.00000000000E+00 0.  1.
         25    1    1    2    0    0 -0.11378882624E+03  0.19553058336E+02  0.38901210622E+03  0.42460056271E+03  0.12500000000E+03 0.  0.
         25    1    1    2    0    0  0.11378882624E+03 -0.19553058336E+02  0.18376070127E+03  0.25044603091E+03  0.12500000000E+03 0.  0.
</event>
<event>
 4    0  0.2168146E-002  0.1838979E+03  0.7546771E-02  0.1164083E+00
         21   -1    0    0  502  501  0.00000000000E+00  0.00000000000E+00  0.57065247945E+02  0.57065247945E+02  0.00000000000E+00 0. -1.
         21   -1    0    0  501  502 -0.00000000000E+00 -0.00000000000E+00 -0.59262726699E+03  0.59262726699E+03  0.00000000000E+00 0. -1.
         25    1    1    2    0    0 -0.54677231363E+02 -0.87603472903E+02 -0.42106010749E+03  0.45119904944E+03  0.12500000000E+03 0.  0.
         25    1    1    2    0    0  0.54677231363E+02  0.87603472903E+02 -0.11450191155E+03  0.19849346549E+03  0.12500000000E+03 0.  0.
</event>
<event>
 4    0  0.2168146E-002  0.2288075E+03  0.7546771E-02  0.1127482E+00
         21   -1    0    0  502  501  0.00000000000E+00  0.00000000000E+00  0.32025194189E+02  0.32025194189E+02  0.00000000000E+00 0. -1.
         21   -1    0    0  501  502 -0.00000000000E+00 -0.00000000000E+00 -0.16347408930E+04  0.16347408930E+04  0.00000000000E+00 0. -1.
         25    1    1    2    0    0 -0.79427194053E+02  0.10753276958E+03 -0.13015054170E+04  0.13143109701E+04  0.12500000000E+03 0.  0.
         25    1    1    2    0    0  0.79427194053E+02 -0.10753276958E+03 -0.30121028188E+03  0.35245511714E+03  0.12500000000E+03 0.  0.
</event>
<event>
 4    0  0.2168146E-002  0.1650791E+03  0.7546771E-02  0.1183079E+00
         21   -1    0    0  502  501  0.00000000000E+00  0.00000000000E+00  0.40056573624E+02  0.40056573624E+02  0.00000000000E+00 0.  1.
         21   -1    0    0  501  502 -0.00000000000E+00 -0.00000000000E+00 -0.68031559685E+03  0.68031559685E+03  0.00000000000E+00 0.  1.
         25    1    1    2    0    0 -0.83618244043E+02 -0.68022738333E+02 -0.32590562563E+03  0.36531983314E+03  0.12500000000E+03 0.  0.
         25    1    1    2    0    0  0.83618244043E+02  0.68022738333E+02 -0.31435339759E+03  0.35505233733E+03  0.12500000000E+03 0.  0.
</event>
<event>
 4    0  0.2168146E-002  0.2046460E+03  0.7546771E-02  0.1145877E+00
         21   -1    0    0  502  501  0.00000000000E+00  0.00000000000E+00  0.66958322594E+02  0.66958322594E+02  0.00000000000E+00 0.  1.
         21   -1    0    0  501  502 -0.00000000000E+00 -0.00000000000E+00 -0.62546338550E+03  0.62546338550E+03  0.00000000000E+00 0.  1.
         25    1    1    2    0    0  0.12519683273E+02 -0.16142310784E+03 -0.26844422676E+03  0.33749291117E+03  0.12500000000E+03 0.  0.
         25    1    1    2    0    0 -0.12519683273E+02  0.16142310784E+03 -0.29006083615E+03  0.35492879692E+03  0.12500000000E+03 0.  0.
</event>
<event>
 4    0  0.2168146E-002  0.1864886E+03  0.7546771E-02  0.1161667E+00
         21   -1    0    0  502  501  0.00000000000E+00  0.00000000000E+00  0.32877000710E+03  0.32877000710E+03  0.00000000000E+00 0. -1.
         21   -1    0    0  501  502 -0.00000000000E+00 -0.00000000000E+00 -0.10578215612E+03  0.10578215612E+03  0.00000000000E+00 0. -1.
         25    1    1    2    0    0  0.96636757272E+02 -0.15656951702E+02  0.22546571582E+03  0.27576002612E+03  0.12500000000E+03 0.  0.
         25    1    1    2    0    0 -0.96636757272E+02  0.15656951702E+02 -0.24778648417E+01  0.15879213711E+03  0.12500000000E+03 0.  0.
</event>
<event>
 4    0  0.2168146E-002  0.2258847E+03  0.7546771E-02  0.1129570E+00
         21   -1    0    0  502  501  0.00000000000E+00  0.00000000000E+00  0.20538106344E+03  0.20538106344E+03  0.00000000000E+00 0. -1.
         21   -1    0    0  501  502 -0.00000000000E+00 -0.00000000000E+00 -0.24843516418E+03  0.24843516418E+03  0.00000000000E+00 0. -1.
         25    1    1    2    0    0 -0.92109776782E+02 -0.12955282876E+03 -0.12263462717E+03  0.23650031332E+03  0.12500000000E+03 0.  0.
         25    1    1    2    0    0  0.92109776782E+02  0.12955282876E+03  0.79580526429E+02  0.21731591430E+03  0.12500000000E+03 0.  0.
</event>
<event>
 4    0  0.2168146E-002  0.2019209E+03  0.7546771E-02  0.1148128E+00
         21   -1    0    0  502  501  0.00000000000E+00  0.00000000000E+00  0.24669869192E+03  0.24669869192E+03  0.00000000000E+00 0. -1.
         21   -1    0    0  501  502 -0.00000000000E+00 -0.00000000000E+00 -0.16527058272E+03  0.16527058272E+03  0.00000000000E+00 0. -1.
         25    1    1    2    0    0  0.31305457313E+02 -0.12349581494E+03 -0.55609723808E+02  0.18694568556E+03  0.12500000000E+03 0.  0.
         25    1    1    2    0    0 -0.31305457313E+02  0.12349581494E+03  0.13703783302E+03  0.22502358908E+03  0.12500000000E+03 0.  0.
</event>
<event>
 4    0  0.2168146E-002  0.2149004E+03  0.7546771E-02  0.1137743E+00
         21   -1    0    0  502  501  0.00000000000E+00  0.00000000000E+00  0.29090572887E+02  0.29090572887E+02  0.00000000000E+00 0. -1.
         21   -1    0    0  501  502 -0.00000000000E+00 -0.00000000000E+00 -0.15875313991E+04  0.15875313991E+04  0.00000000000E+00 0. -1.
         25    1    1    2    0    0 -0.16363829181E+03  0.27071379389E+02 -0.57160166934E+03  0.60816430224E+03  0.12500000000E+03 0.  0.
         25    1    1    2    0    0  0.16363829181E+03 -0.27071379389E+02 -0.98683915685E+03  0.10084576697E+04  0.12500000000E+03 0.  0.
</event>
<event>
 4    0  0.2168146E-002  0.1846266E+03  0.7546771E-02  0.1163399E+00
         21   -1    0    0  502  501  0.00000000000E+00  0.00000000000E+00  0.21678373219E+03  0.21678373219E+03  0.00000000000E+00 0. -1.
         21   -1    0    0  501  502 -0.00000000000E+00 -0.00000000000E+00 -0.15723964875E+03  0.15723964875E+03  0.00000000000E+00 0. -1.
         25    1    1    2    0    0  0.78875018391E+02 -0.42064947726E+02  0.13342317354E+03  0.20351282906E+03  0.12500000000E+03 0.  0.
         25    1    1    2    0    0 -0.78875018391E+02  0.42064947726E+02 -0.73879090094E+02  0.17051055189E+03  0.12500000000E+03 0.  0.
</event>
<event>
 4    0  0.2168146E-002  0.2422965E+03  0.7546771E-02  0.1118272E+00
         21   -1    0    0  502  501  0.00000000000E+00  0.00000000000E+00  0.98008533647E+02  0.98008533647E+02  0.00000000000E+00 0. -1.
         21   -1    0    0  501  502 -0.00000000000E+00 -0.00000000000E+00 -0.59900469257E+03  0.59900469257E+03  0.00000000000E+00 0. -1.
         25    1    1    2    0    0 -0.66687218603E+02 -0.13608819050E+03 -0.45449715678E+03  0.49513618959E+03  0.12500000000E+03 0.  0.
         25    1    1    2    0    0  0.66687218603E+02  0.13608819050E+03 -0.46499002140E+02  0.20187703663E+03  0.12500000000E+03 0.  0.
</event>
<event>
 4    0  0.2168146E-002  0.2665399E+03  0.7546771E-02  0.1103276E+00
         21   -1    0    0  502  501  0.00000000000E+00  0.00000000000E+00  0.20183196841E+03  0.20183196841E+03  0.00000000000E+00 0.  1.
         21   -1    0    0  501  502 -0.00000000000E+00 -0.00000000000E+00 -0.35199328374E+03  0.35199328374E+03  0.00000000000E+00 0.  1.
         25    1    1    2    0    0  0.22890173260E+03  0.53766160627E+02 -0.63158255650E+02  0.27368004764E+03  0.12500000000E+03 0.  0.
         25    1    1    2    0    0 -0.22890173260E+03 -0.53766160627E+02 -0.87003059675E+02  0.28014520451E+03  0.12500000000E+03 0.  0.
</event>
<event>
 4    0  0.2168146E-002  0.2781245E+03  0.7546771E-02  0.1096718E+00
         21   -1    0    0  502  501  0.00000000000E+00  0.00000000000E+00  0.20297822085E+03  0.20297822085E+03  0.00000000000E+00 0.  1.
         21   -1    0    0  501  502 -0.00000000000E+00 -0.00000000000E+00 -0.38109122732E+03  0.38109122732E+03  0.00000000000E+00 0.  1.
         25    1    1    2    0    0  0.42219688042E+02  0.21351881020E+03 -0.21486311757E+03  0.33039967260E+03  0.12500000000E+03 0.  0.
         25    1    1    2    0    0 -0.42219688042E+02 -0.21351881020E+03  0.36750111098E+02  0.25366977556E+03  0.12500000000E+03 0.  0.
</event>
<event>
 4    0  0.2168146E-002  0.1886974E+03  0.7546771E-02  0.1159641E+00
         21   -1    0    0  502  501  0.00000000000E+00  0.00000000000E+00  0.49595866638E+03  0.49595866638E+03  0.00000000000E+00 0. -1.
         21   -1    0    0  501  502 -0.00000000000E+00 -0.00000000000E+00 -0.71793672254E+02  0.71793672254E+02  0.00000000000E+00 0. -1.
         25    1    1    2    0    0  0.70489199464E+02  0.29502562706E+02  0.33175547983E+02  0.15021566307E+03  0.12500000000E+03 0.  0.
         25    1    1    2    0    0 -0.70489199464E+02 -0.29502562706E+02  0.39098944615E+03  0.41753667557E+03  0.12500000000E+03 0.  0.
</event>
<event>
 4    0  0.2168146E-002  0.2134123E+03  0.7546771E-02  0.1138892E+00
         21   -1    0    0  502  501  0.00000000000E+00  0.00000000000E+00  0.10615652038E+03  0.10615652038E+03  0.00000000000E+00 0.  1.
         21   -1    0    0  501  502 -0.00000000000E+00 -0.00000000000E+00 -0.42903460347E+03  0.42903460347E+03  0.00000000000E+00 0.  1.
         25    1    1    2    0    0 -0.15189833839E+02  0.16408171805E+03 -0.22738792208E+03  0.30738218615E+03  0.12500000000E+03 0.  0.
         25    1    1    2    0    0  0.15189833839E+02 -0.16408171805E+03 -0.95490161006E+02  0.22780893771E+03  0.12500000000E+03 0.  0.
</event>
<event>
 4    0  0.2168146E-002  0.2002806E+03  0.7546771E-02  0.1149502E+00
         21   -1    0    0  502  501  0.00000000000E+00  0.00000000000E+00  0.20513947277E+03  0.20513947277E+03  0.00000000000E+00 0.  1.
         21   -1    0    0  501  502 -0.00000000000E+00 -0.00000000000E+00 -0.19553686683E+03  0.19553686683E+03  0.00000000000E+00 0.  1.
         25    1    1    2    0    0  0.10512470586E+03  0.51942385704E+02  0.10845594944E+03  0.20282235623E+03  0.12500000000E+03 0.  0.
         25    1    1    2    0    0 -0.10512470586E+03 -0.51942385704E+02 -0.98853343505E+02  0.19785398338E+03  0.12500000000E+03 0.  0.
</event>
<event>
 4    0  0.2168146E-002  0.3251986E+03  0.7546771E-02  0.1073281E+00
         21   -1    0    0  502  501  0.00000000000E+00  0.00000000000E+00  0.14761129199E+04  0.14761129199E+04  0.00000000000E+00 0. -1.
         21   -1    0    0  501  502 -0.00000000000E+00 -0.00000000000E+00 -0.71643647654E+02  0.71643647654E+02  0.00000000000E+00 0. -1.
         25    1    1    2    0    0  0.19435589130E+03 -0.46870963122E+02  0.16927515596E+03  0.29025881225E+03  0.12500000000E+03 0.  0.
         25    1    1    2    0    0 -0.19435589130E+03  0.46870963122E+02  0.12351941163E+04  0.12574977553E+04  0.12500000000E+03 0.  0.
</event>
<event>
 4    0  0.2168146E-002  0.2424212E+03  0.7546771E-02  0.1118190E+00
         21   -1    0    0  502  501  0.00000000000E+00  0.00000000000E+00  0.26784983991E+03  0.26784983991E+03  0.00000000000E+00 0.  1.
         21   -1    0    0  501  502 -0.00000000000E+00 -0.00000000000E+00 -0.21940669123E+03  0.21940669123E+03  0.00000000000E+00 0.  1.
         25    1    1    2    0    0 -0.13191973302E+03 -0.13835404868E+03  0.10585649610E+03  0.25174442697E+03  0.12500000000E+03 0.  0.
         25    1    1    2    0    0  0.13191973302E+03  0.13835404868E+03 -0.57413347416E+02  0.23551210416E+03  0.12500000000E+03 0.  0.
</event>
<event>
 4    0  0.2168146E-002  0.1878521E+03  0.7546771E-02  0.1160413E+00
         21   -1    0    0  502  501  0.00000000000E+00  0.00000000000E+00  0.16065971588E+04  0.16065971588E+04  0.00000000000E+00 0. -1.
         21   -1    0    0  501  502 -0.00000000000E+00 -0.00000000000E+00 -0.21964702377E+02  0.21964702377E+02  0.00000000000E+00 0. -1.
         25    1    1    2    0    0 -0.76231597774E+02 -0.11141206954E+03  0.62785354811E+03  0.65425452510E+03  0.12500000000E+03 0.  0.
         25    1    1    2    0    0  0.76231597774E+02  0.11141206954E+03  0.95677890829E+03  0.97430733606E+03  0.12500000000E+03 0.  0.
</event>
<event>
 4    0  0.2168146E-002  0.2467309E+03  0.7546771E-02  0.1115388E+00
         21   -1    0    0  502  501  0.00000000000E+00  0.00000000000E+00  0.12036195146E+04  0.12036195146E+04  0.00000000000E+00 0.  1.
         21   -1    0    0  501  502 -0.00000000000E+00 -0.00000000000E+00 -0.50577561199E+02  0.50577561199E+02  0.00000000000E+00 0.  1.
         25    1    1    2    0    0 -0.19482064079E+03 -0.80904340448E+02  0.64615166438E+03  0.69111328142E+03  0.12500000000E+03 0.  0.
         25    1    1    2    0    0  0.19482064079E+03  0.80904340448E+02  0.50689028903E+03  0.56308379439E+03  0.12500000000E+03 0.  0.
</event>
<event>
 4    0  0.2168146E-002  0.1860913E+03  0.7546771E-02  0.1162035E+00
         21   -1    0    0  502  501  0.00000000000E+00  0.00000000000E+00  0.84950467992E+02  0.84950467992E+02  0.00000000000E+00 0. -1.
         21   -1    0    0  501  502 -0.00000000000E+00 -0.00000000000E+00 -0.40764892499E+03  0.40764892499E+03  0.00000000000E+00 0. -1.
         25    1    1    2    0    0  0.43556368188E+02 -0.79565149497E+00  0.11762705576E+02  0.13289526520E+03  0.12500000000E+03 0.  0.
         25    1    1    2    0    0 -0.43556368188E+02  0.79565149497E+00 -0.33446116257E+03  0.35970412778E+03  0.12500000000E+03 0.  0.
</event>
<event>
 4    0  0.2168146E-002  0.4308139E+03  0.7546771E-02  0.1033603E+00
         21   -1    0    0  502  501  0.00000000000E+00  0.00000000000E+00  0.10125599145E+04  0.10125599145E+04  0.00000000000E+00 0. -1.
         21   -1    0    0  501  502 -0.00000000000E+00 -0.00000000000E+00 -0.18329843561E+03  0.18329843561E+03  0.00000000000E+00 0. -1.
         25    1    1    2    0    0 -0.42546347622E+02 -0.35868398390E+03  0.69051086791E+03  0.78923675200E+03  0.12500000000E+03 0.  0.
         25    1    1    2    0    0  0.42546347622E+02  0.35868398390E+03  0.13875061097E+03  0.40662159811E+03  0.12500000000E+03 0.  0.
</event>
<event>
 4    0  0.2168146E-002  0.5566220E+03  0.7546771E-02  0.9999727E-01
         21   -1    0    0  502  501  0.00000000000E+00  0.00000000000E+00  0.20033311160E+03  0.20033311160E+03  0.00000000000E+00 0. -1.
         21   -1    0    0  501  502 -0.00000000000E+00 -0.00000000000E+00 -0.15465645687E+04  0.15465645687E+04  0.00000000000E+00 0.  1.
         25    1    1    2    0    0  0.56179669205E+02 -0.43272069087E+03 -0.16755281214E+03  0.48384118923E+03  0.12500000000E+03 0.  0.
         25    1    1    2    0    0 -0.56179669205E+02  0.43272069087E+03 -0.11786786449E+04  0.12630564910E+04  0.12500000000E+03 0.  0.
</event>
<event>
 4    0  0.2168146E-002  0.2750197E+03  0.7546771E-02  0.1098441E+00
         21   -1    0    0  502  501  0.00000000000E+00  0.00000000000E+00  0.22253673009E+03  0.22253673009E+03  0.00000000000E+00 0.  1.
         21   -1    0    0  501  502 -0.00000000000E+00 -0.00000000000E+00 -0.33988011928E+03  0.33988011928E+03  0.00000000000E+00 0.  1.
         25    1    1    2    0    0  0.17701433861E+02  0.24116111524E+03 -0.18561596576E+02  0.27283980122E+03  0.12500000000E+03 0.  0.
         25    1    1    2    0    0 -0.17701433861E+02 -0.24116111524E+03 -0.98781792610E+02  0.28957704815E+03  0.12500000000E+03 0.  0.
</event>
<event>
 4    0  0.2168146E-002  0.1853537E+03  0.7546771E-02  0.1162720E+00
         21   -1    0    0  502  501  0.00000000000E+00  0.00000000000E+00  0.54058594367E+02  0.54058594367E+02  0.00000000000E+00 0.  1.
         21   -1    0    0  501  502 -0.00000000000E+00 -0.00000000000E+00 -0.63553253597E+03  0.63553253597E+03  0.00000000000E+00 0.  1.
         25    1    1    2    0    0 -0.13119100973E+03 -0.23222288520E+02 -0.23248438996E+03  0.29567608509E+03  0.12500000000E+03 0.  0.
         25    1    1    2    0    0  0.13119100973E+03  0.23222288520E+02 -0.34898955164E+03  0.39391504525E+03  0.12500000000E+03 0.  0.
</event>
<event>
 4    0  0.2168146E-002  0.1731148E+03  0.7546771E-02  0.1174638E+00
         21   -1    0    0  502  501  0.00000000000E+00  0.00000000000E+00  0.22278776786E+03  0.22278776786E+03  0.00000000000E+00 0. -1.
         21   -1    0    0  501  502 -0.00000000000E+00 -0.00000000000E+00 -0.13451690599E+03  0.13451690599E+03  0.00000000000E+00 0. -1.
         25    1    1    2    0    0 -0.34704325078E+02  0.11094224958E+03  0.14383589067E+02  0.17130224913E+03  0.12500000000E+03 0.  0.
         25    1    1    2    0    0  0.34704325078E+02 -0.11094224958E+03  0.73887272794E+02  0.18600242472E+03  0.12500000000E+03 0.  0.
</event>
<event>
 4    0  0.2168146E-002  0.2012136E+03  0.7546771E-02  0.1148719E+00
         21   -1    0    0  502  501  0.00000000000E+00  0.00000000000E+00  0.36009164090E+02  0.36009164090E+02  0.00000000000E+00 0. -1.
         21   -1    0    0  501  502 -0.00000000000E+00 -0.00000000000E+00 -0.11243504713E+04  0.11243504713E+04  0.00000000000E+00 0. -1.
         25    1    1    2    0    0 -0.29483402048E+02 -0.54232091243E+01 -0.97818125878E+02  0.16153039325E+03  0.12500000000E+03 0.  0.
         25    1    1    2    0    0  0.29483402048E+02  0.54232091243E+01 -0.99052318129E+03  0.99882924210E+03  0.12500000000E+03 0.  0.
</event>
<event>
 4    0  0.2168146E-002  0.2148165E+03  0.7546771E-02  0.1137808E+00
         21   -1    0    0  502  501  0.00000000000E+00  0.00000000000E+00  0.49502324381E+03  0.49502324381E+03  0.00000000000E+00 0.  1.
         21   -1    0    0  501  502 -0.00000000000E+00 -0.00000000000E+00 -0.93220167299E+02  0.93220167299E+02  0.00000000000E+00 0.  1.
         25    1    1    2    0    0  0.11994376638E+03  0.10196166927E+03  0.30462023224E+03  0.36496736153E+03  0.12500000000E+03 0.  0.
         25    1    1    2    0    0 -0.11994376638E+03 -0.10196166927E+03  0.97182844268E+02  0.22327604957E+03  0.12500000000E+03 0.  0.
</event>
<event>
 4    0  0.2168146E-002  0.3261758E+03  0.7546771E-02  0.1072842E+00
         21   -1    0    0  502  501  0.00000000000E+00  0.00000000000E+00  0.15228792186E+03  0.15228792186E+03  0.00000000000E+00 0. -1.
         21   -1    0    0  501  502 -0.00000000000E+00 -0.00000000000E+00 -0.69861529991E+03  0.69861529991E+03  0.00000000000E+00 0. -1.
         25    1    1    2    0    0  0.70012180580E+01  0.29042246590E+03 -0.37727967462E+03  0.49229988689E+03  0.12500000000E+03 0.  0.
         25    1    1    2    0    0 -0.70012180580E+01 -0.29042246590E+03 -0.16904770343E+03  0.35860333488E+03  0.12500000000E+03 0.  0.
</event>
<event>
 4    0  0.2168146E-002  0.2430893E+03  0.7546771E-02  0.1117752E+00
         21   -1    0    0  502  501  0.00000000000E+00  0.00000000000E+00  0.58768488437E+03  0.58768488437E+03  0.00000000000E+00 0. -1.
         21   -1    0    0  501  502 -0.00000000000E+00 -0.00000000000E+00 -0.10055115987E+03  0.10055115987E+03  0.00000000000E+00 0. -1.
         25    1    1    2    0    0  0.21521650691E+02  0.19438607765E+03  0.34582663206E+03  0.41649752469E+03  0.12500000000E+03 0.  0.
         25    1    1    2    0    0 -0.21521650691E+02 -0.19438607765E+03  0.14130709243E+03  0.27173851955E+03  0.12500000000E+03 0.  0.
</event>
<event>
 4    0  0.2168146E-002  0.2650018E+03  0.7546771E-02  0.1104175E+00
         21   -1    0    0  502  501  0.00000000000E+00  0.00000000000E+00  0.46496852447E+03  0.46496852447E+03  0.00000000000E+00 0. -1.
         21   -1    0    0  501  502 -0.00000000000E+00 -0.00000000000E+00 -0.15103377251E+03  0.15103377251E+03  0.00000000000E+00 0. -1.
         25    1    1    2    0    0  0.13875948501E+02 -0.14564343876E+03  0.36872984855E+03  0.41592217351E+03  0.12500000000E+03 0.  0.
         25    1    1    2    0    0 -0.13875948501E+02  0.14564343876E+03 -0.54795096591E+02  0.20008012348E+03  0.12500000000E+03 0.  0.
</event>
<event>
 4    0  0.2168146E-002  0.1530916E+03  0.7546771E-02  0.1196725E+00
         21   -1    0    0  502  501  0.00000000000E+00  0.00000000000E+00  0.26013125385E+02  0.26013125385E+02  0.00000000000E+00 0.  1.
         21   -1    0    0  501  502 -0.00000000000E+00 -0.00000000000E+00 -0.90097012023E+03  0.90097012023E+03  0.00000000000E+00 0.  1.
         25    1    1    2    0    0 -0.57595690189E+02  0.33630202974E+02 -0.61307067469E+03  0.62922881867E+03  0.12500000000E+03 0.  0.
         25    1    1    2    0    0  0.57595690189E+02 -0.33630202974E+02 -0.26188632015E+03  0.29775442694E+03  0.12500000000E+03 0.  0.
</event>
<event>
 4    0  0.2168146E-002  0.1733034E+03  0.7546771E-02  0.1174446E+00
         21   -1    0    0  502  501  0.00000000000E+00  0.00000000000E+00  0.72846569825E+02  0.72846569825E+02  0.00000000000E+00 0.  1.
         21   -1    0    0  501  502 -0.00000000000E+00 -0.00000000000E+00 -0.41229232872E+03  0.41229232872E+03  0.00000000000E+00 0.  1.
         25    1    1    2    0    0 -0.32816956945E+02  0.11093926918E+03 -0.12491981176E+03  0.21122129031E+03  0.12500000000E+03 0.  0.
         25    1    1    2    0    0  0.32816956945E+02 -0.11093926918E+03 -0.21452594713E+03  0.27391760824E+03  0.12500000000E+03 0.  0.
</event>
<event>
 4    0  0.2168146E-002  0.2713438E+03  0.7546771E-02  0.1100513E+00
         21   -1    0    0  502  501  0.00000000000E+00  0.00000000000E+00  0.14063361253E+03  0.14063361253E+03  0.00000000000E+00 0. -1.
         21   -1    0    0  501  502 -0.00000000000E+00 -0.00000000000E+00 -0.52354107421E+03  0.52354107421E+03  0.00000000000E+00 0. -1.
         25    1    1    2    0    0 -0.82511968667E+02 -0.95554987682E+02  0.59552810293E+02  0.18737800794E+03  0.12500000000E+03 0.  0.
         25    1    1    2    0    0  0.82511968667E+02  0.95554987682E+02 -0.44246027197E+03  0.47679667880E+03  0.12500000000E+03 0.  0.
</event>
<event>
 4    0  0.2168146E-002  0.1927184E+03  0.7546771E-02  0.1156032E+00
         21   -1    0    0  502  501  0.00000000000E+00  0.00000000000E+00  0.22649431257E+03  0.22649431257E+03  0.00000000000E+00 0. -1.
         21   -1    0    0  501  502 -0.00000000000E+00 -0.00000000000E+00 -0.16397928700E+03  0.16397928700E+03  0.00000000000E+00 0. -1.
         25    1    1    2    0    0 -0.13231841103E+03  0.50907117372E+02 -0.68596869172E+01  0.18913421637E+03  0.12500000000E+03 0.  0.
         25    1    1    2    0    0  0.13231841103E+03 -0.50907117372E+02  0.69374712488E+02  0.20133938320E+03  0.12500000000E+03 0.  0.
</event>
<event>
 4    0  0.2168146E-002  0.4098383E+03  0.7546771E-02  0.1040425E+00
         21   -1    0    0  502  501  0.00000000000E+00  0.00000000000E+00  0.14964306286E+03  0.14964306286E+03  0.00000000000E+00 0.  1.
         21   -1    0    0  501  502 -0.00000000000E+00 -0.00000000000E+00 -0.11224538316E+04  0.11224538316E+04  0.00000000000E+00 0.  1.
         25    1    1    2    0    0 -0.10259748676E+03  0.31079134102E+03 -0.15636536962E+03  0.38365691803E+03  0.12500000000E+03 0.  0.
         25    1    1    2    0    0  0.10259748676E+03 -0.31079134102E+03 -0.81644539910E+03  0.88843997639E+03  0.12500000000E+03 0.  0.
</event>
<event>
 4    0  0.2168146E-002  0.3490287E+03  0.7546771E-02  0.1063014E+00
         21   -1    0    0  502  501  0.00000000000E+00  0.00000000000E+00  0.88222500906E+03  0.88222500906E+03  0.00000000000E+00 0.  1.
         21   -1    0    0  501  502 -0.00000000000E+00 -0.00000000000E+00 -0.13808388994E+03  0.13808388994E+03  0.00000000000E+00 0. -1.
         25    1    1    2    0    0  0.32469027164E+03 -0.15671000103E+02  0.40561538792E+03  0.53461967385E+03  0.12500000000E+03 0.  0.
         25    1    1    2    0    0 -0.32469027164E+03  0.15671000103E+02  0.33852573120E+03  0.48568922515E+03  0.12500000000E+03 0.  0.
</event>
<event>
 4    0  0.2168146E-002  0.2372471E+03  0.7546771E-02  0.1121640E+00
         21   -1    0    0  502  501  0.00000000000E+00  0.00000000000E+00  0.19610474651E+03  0.19610474651E+03  0.00000000000E+00 0. -1.
         21   -1    0    0  501  502 -0.00000000000E+00 -0.00000000000E+00 -0.28702107231E+03  0.28702107231E+03  0.00000000000E+00 0. -1.
         25    1    1    2    0    0  0.13683527248E+03 -0.12213003390E+03 -0.13077721873E+03  0.25761855118E+03  0.12500000000E+03 0.  0.
         25    1    1    2    0    0 -0.13683527248E+03  0.12213003390E+03  0.39860892931E+02  0.22550726764E+03  0.12500000000E+03 0.  0.
</event>
<event>
 4    0  0.2168146E-002  0.2979349E+03  0.7546771E-02  0.1086278E+00
         21   -1    0    0  502  501  0.00000000000E+00  0.00000000000E+00  0.14248038688E+04  0.14248038688E+04  0.00000000000E+00 0. -1.
         21   -1    0    0  501  502 -0.00000000000E+00 -0.00000000000E+00 -0.62299952104E+02  0.62299952104E+02  0.00000000000E+00 0. -1.
         25    1    1    2    0    0  0.86548738139E+01  0.34696277120E+02  0.12233722118E+02  0.13058867655E+03  0.12500000000E+03 0.  0.
         25    1    1    2    0    0 -0.86548738139E+01 -0.34696277120E+02  0.13502701945E+04  0.13565151443E+04  0.12500000000E+03 0.  0.
</event>
<event>
 4    0  0.2168146E-002  0.1831860E+03  0.7546771E-02  0.1164755E+00
         21   -1    0    0  502  501  0.00000000000E+00  0.00000000000E+00  0.41442469622E+03  0.41442469622E+03  0.00000000000E+00 0.  1.
         21   -1    0    0  501  502 -0.00000000000E+00 -0.00000000000E+00 -0.80972738420E+02  0.80972738420E+02  0.00000000000E+00 0.  1.
         25    1    1    2    0    0  0.85019815279E+02 -0.11533627074E+02  0.30574799697E+03  0.34127442212E+03  0.12500000000E+03 0.  0.
         25    1    1    2    0    0 -0.85019815279E+02  0.11533627074E+02  0.27703960836E+02  0.15412301252E+03  0.12500000000E+03 0.  0.
</event>
<event>
 4    0  0.2168146E-002  0.2660439E+03  0.7546771E-02  0.1103565E+00
         21   -1    0    0  502  501  0.00000000000E+00  0.00000000000E+00  0.32711316930E+03  0.32711316930E+03  0.00000000000E+00 0. -1.
         21   -1    0    0  501  502 -0.00000000000E+00 -0.00000000000E+00 -0.21637567678E+03  0.21637567678E+03  0.00000000000E+00 0. -1.
         25    1    1    2    0    0 -0.42157457630E+02  0.81925152762E+02  0.27601912468E+03  0.31670260352E+03  0.12500000000E+03 0.  0.
         25    1    1    2    0    0  0.42157457630E+02 -0.81925152762E+02 -0.16528163215E+03  0.22678624256E+03  0.12500000000E+03 0.  0.
</event>
<event>
 4    0  0.2168146E-002  0.1865485E+03  0.7546771E-02  0.1161612E+00
         21   -1    0    0  502  501  0.00000000000E+00  0.00000000000E+00  0.16869580847E+04  0.16869580847E+04  0.00000000000E+00 0. -1.
         21   -1    0    0  501  502 -0.00000000000E+00 -0.00000000000E+00 -0.20629050943E+02  0.20629050943E+02  0.00000000000E+00 0. -1.
         25    1    1    2    0    0  0.12253463001E+03 -0.55324940204E+02  0.98494293095E+03  0.10019047668E+04  0.12500000000E+03 0.  0.
         25    1    1    2    0    0 -0.12253463001E+03  0.55324940204E+02  0.68138610278E+03  0.70568236879E+03  0.12500000000E+03 0.  0.
</event>
<event>
 4    0  0.2168146E-002  0.1769978E+03  0.7546771E-02  0.1170741E+00
         21   -1    0    0  502  501  0.00000000000E+00  0.00000000000E+00  0.30029930444E+03  0.30029930444E+03  0.00000000000E+00 0. -1.
         21   -1    0    0  501  502 -0.00000000000E+00 -0.00000000000E+00 -0.10432326901E+03  0.10432326901E+03  0.00000000000E+00 0. -1.
         25    1    1    2    0    0 -0.11379928529E+03  0.47391128174E+02  0.72250889518E+02  0.18984569365E+03  0.12500000000E+03 0.  0.
         25    1    1    2    0    0  0.11379928529E+03 -0.47391128174E+02  0.12372514591E+03  0.21477687979E+03  0.12500000000E+03 0.  0.
</event>
<event>
 4    0  0.2168146E-002  0.2608986E+03  0.7546771E-02  0.1106605E+00
         21   -1    0    0  502  501  0.00000000000E+00  0.00000000000E+00  0.57205084239E+02  0.57205084239E+02  0.00000000000E+00 0. -1.
         21   -1    0    0  501  502 -0.00000000000E+00 -0.00000000000E+00 -0.11898955001E+04  0.11898955001E+04  0.00000000000E+00 0. -1.
         25    1    1    2    0    0  0.15185503980E+02  0.13608828762E+03 -0.12764679586E+03  0.22509848078E+03  0.12500000000E+03 0.  0.
         25    1    1    2    0    0 -0.15185503980E+02 -0.13608828762E+03 -0.10050436200E+04  0.10220021035E+04  0.12500000000E+03 0.  0.
</event>
<event>
 4    0  0.2168146E-002  0.2323687E+03  0.7546771E-02  0.1124984E+00
         21   -1    0    0  502  501  0.00000000000E+00  0.00000000000E+00  0.19417565298E+03  0.19417565298E+03  0.00000000000E+00 0. -1.
         21   -1    0    0  501  502 -0.00000000000E+00 -0.00000000000E+00 -0.27807407525E+03  0.27807407525E+03  0.00000000000E+00 0. -1.
         25    1    1    2    0    0  0.75302876464E+02 -0.17420049911E+03  0.73518267492E+01  0.22736619461E+03  0.12500000000E+03 0.  0.
         25    1    1    2    0    0 -0.75302876464E+02  0.17420049911E+03 -0.91250249019E+02  0.24488353362E+03  0.12500000000E+03 0.  0.
</event>
<event>
 4    0  0.2168146E-002  0.2606696E+03  0.7546771E-02  0.1106742E+00
         21   -1    0    0  502  501  0.00000000000E+00  0.00000000000E+00  0.27969970128E+02  0.27969970128E+02  0.00000000000E+00 0.  1.
         21   -1    0    0  501  502 -0.00000000000E+00 -0.00000000000E+00 -0.24293429726E+04  0.24293429726E+04  0.00000000000E+00 0.  1.
         25    1    1    2    0    0  0.66989494432E+02 -0.19256004550E+03 -0.16895406649E+04  0.17063820269E+04  0.12500000000E+03 0.  0.
         25    1    1    2    0    0 -0.66989494432E+02  0.19256004550E+03 -0.71183233759E+03  0.75093091582E+03  0.12500000000E+03 0.  0.
</event>
<event>
 4    0  0.2168146E-002  0.1850854E+03  0.7546771E-02  0.1162970E+00
         21   -1    0    0  502  501  0.00000000000E+00  0.00000000000E+00  0.54976536993E+02  0.54976536993E+02  0.00000000000E+00 0.  1.
         21   -1    0    0  501  502 -0.00000000000E+00 -0.00000000000E+00 -0.62311291739E+03  0.62311291739E+03  0.00000000000E+00 0.  1.
         25    1    1    2    0    0 -0.10019517915E+03 -0.79997709955E+02 -0.19828688675E+03  0.26717297203E+03  0.12500000000E+03 0.  0.
         25    1    1    2    0    0  0.10019517915E+03  0.79997709955E+02 -0.36984949364E+03  0.41091648236E+03  0.12500000000E+03 0.  0.
</event>
<event>
 4    0  0.2168146E-002  0.2457661E+03  0.7546771E-02  0.1116010E+00
         21   -1    0    0  502  501  0.00000000000E+00  0.00000000000E+00  0.26803901229E+03  0.26803901229E+03  0.00000000000E+00 0. -1.
         21   -1    0    0  501  502 -0.00000000000E+00 -0.00000000000E+00 -0.22534389961E+03  0.22534389961E+03  0.00000000000E+00 0. -1.
         25    1    1    2    0    0 -0.20787476802E+02 -0.66668201340E+02 -0.17915237566E+03  0.22934110396E+03  0.12500000000E+03 0.  0.
         25    1    1    2    0    0  0.20787476802E+02  0.66668201340E+02  0.22184748833E+03  0.26404180794E+03  0.12500000000E+03 0.  0.
</event>
<event>
 4    0  0.2168146E-002  0.3143508E+03  0.7546771E-02  0.1078279E+00
         21   -1    0    0  502  501  0.00000000000E+00  0.00000000000E+00  0.93405458988E+03  0.93405458988E+03  0.00000000000E+00 0.  1.
         21   -1    0    0  501  502 -0.00000000000E+00 -0.00000000000E+00 -0.10579296351E+03  0.10579296351E+03  0.00000000000E+00 0.  1.
         25    1    1    2    0    0 -0.25499623749E+02  0.12801725660E+03 -0.11270791099E+02  0.18108196909E+03  0.12500000000E+03 0.  0.
         25    1    1    2    0    0  0.25499623749E+02 -0.12801725660E+03  0.83953241746E+03  0.85876558430E+03  0.12500000000E+03 0.  0.
</event>
<event>
 4    0  0.2168146E-002  0.2102465E+03  0.7546771E-02  0.1141371E+00
         21   -1    0    0  502  501  0.00000000000E+00  0.00000000000E+00  0.63936114343E+03  0.63936114343E+03  0.00000000000E+00 0.  1.
         21   -1    0    0  501  502 -0.00000000000E+00 -0.00000000000E+00 -0.69137155535E+02  0.69137155535E+02  0.00000000000E+00 0.  1.
         25    1    1    2    0    0 -0.13231321797E+03 -0.42328300205E+02  0.12279755158E+03  0.22361286037E+03  0.12500000000E+03 0.  0.
         25    1    1    2    0    0  0.13231321797E+03  0.42328300205E+02  0.44742643632E+03  0.48488543860E+03  0.12500000000E+03 0.  0.
</event>
<event>
 4    0  0.2168146E-002  0.2115347E+03  0.7546771E-02  0.1140356E+00
         21   -1    0    0  502  501  0.00000000000E+00  0.00000000000E+00  0.43193915699E+02  0.43193915699E+02  0.00000000000E+00 0.  1.
         21   -1    0    0  501  502 -0.00000000000E+00 -0.00000000000E+00 -0.10359545135E+04  0.10359545135E+04  0.00000000000E+00 0.  1.
         25    1    1    2    0    0 -0.11128060463E+02 -0.11717175348E+03 -0.81157080206E+03  0.82953313394E+03  0.12500000000E+03 0.  0.
         25    1    1    2    0    0  0.11128060463E+02  0.11717175348E+03 -0.18118979571E+03  0.24961529523E+03  0.12500000000E+03 0.  0.
</event>
<event>
 4    0  0.2168146E-002  0.1579676E+03  0.7546771E-02  0.1191011E+00
         21   -1    0    0  502  501  0.00000000000E+00  0.00000000000E+00  0.79657267155E+02  0.79657267155E+02  0.00000000000E+00 0.  1.
         21   -1    0    0  501  502 -0.00000000000E+00 -0.00000000000E+00 -0.31326424290E+03  0.31326424290E+03  0.00000000000E+00 0.  1.
         25    1    1    2    0    0 -0.65531539879E+02 -0.27895928216E+02 -0.19794051932E+03  0.24469984618E+03  0.12500000000E+03 0.  0.
         25    1    1    2    0    0  0.65531539879E+02  0.27895928216E+02 -0.35666456428E+02  0.14822166388E+03  0.12500000000E+03 0.  0.
</event>
<event>
 4    0  0.2168146E-002  0.1741890E+03  0.7546771E-02  0.1173549E+00
         21   -1    0    0  502  501  0.00000000000E+00  0.00000000000E+00  0.19269118355E+03  0.19269118355E+03  0.00000000000E+00 0. -1.
         21   -1    0    0  501  502 -0.00000000000E+00 -0.00000000000E+00 -0.15746334656E+03  0.15746334656E+03  0.00000000000E+00 0. -1.
         25    1    1    2    0    0 -0.75108447479E+02 -0.58960934162E+02  0.92822827708E+02  0.18264377346E+03  0.12500000000E+03 0.  0.
         25    1    1    2    0    0  0.75108447479E+02  0.58960934162E+02 -0.57594990720E+02  0.16751075666E+03  0.12500000000E+03 0.  0.
</event>
<event>
 4    0  0.2168146E-002  0.2594747E+03  0.7546771E-02  0.1107459E+00
         21   -1    0    0  502  501  0.00000000000E+00  0.00000000000E+00  0.77507389655E+02  0.77507389655E+02  0.00000000000E+00 0.  1.
         21   -1    0    0  501  502 -0.00000000000E+00 -0.00000000000E+00 -0.86865438138E+03  0.86865438138E+03  0.00000000000E+00 0.  1.
         25    1    1    2    0    0  0.11836326763E+03  0.15898822660E+00 -0.74954340336E+03  0.76905799646E+03  0.12500000000E+03 0.  0.
         25    1    1    2    0    0 -0.11836326763E+03 -0.15898822660E+00 -0.41603588360E+02  0.17710377457E+03  0.12500000000E+03 0.  0.
</event>
<event>
 4    0  0.2168146E-002  0.1998089E+03  0.7546771E-02  0.1149900E+00
         21   -1    0    0  502  501  0.00000000000E+00  0.00000000000E+00  0.13076694894E+03  0.13076694894E+03  0.00000000000E+00 0.  1.
         21   -1    0    0  501  502 -0.00000000000E+00 -0.00000000000E+00 -0.30530351384E+03  0.30530351384E+03  0.00000000000E+00 0.  1.
         25    1    1    2    0    0  0.13899578051E+03  0.69618995521E+02 -0.74732204697E+02  0.21301768461E+03  0.12500000000E+03 0.  0.
         25    1    1    2    0    0 -0.13899578051E+03 -0.69618995521E+02 -0.99804360206E+02  0.22305277818E+03  0.12500000000E+03 0.  0.
</event>
<event>
 4    0  0.2168146E-002  0.1763889E+03  0.7546771E-02  0.1171344E+00
         21   -1    0    0  502  501  0.00000000000E+00  0.00000000000E+00  0.85114760983E+03  0.85114760983E+03  0.00000000000E+00 0. -1.
         21   -1    0    0  501  502 -0.00000000000E+00 -0.00000000000E+00 -0.36554231058E+02  0.36554231058E+02  0.00000000000E+00 0. -1.
         25    1    1    2    0    0 -0.11133155327E+03  0.38566375713E+02  0.50813697591E+03  0.53638630331E+03  0.12500000000E+03 0.  0.
         25    1    1    2    0    0  0.11133155327E+03 -0.38566375713E+02  0.30645640287E+03  0.35131553758E+03  0.12500000000E+03 0.  0.
</event>
<event>
 4    0  0.2168146E-002  0.1814434E+03  0.7546771E-02  0.1166413E+00
         21   -1    0    0  502  501  0.00000000000E+00  0.00000000000E+00  0.90338274262E+02  0.90338274262E+02  0.00000000000E+00 0. -1.
         21   -1    0    0  501  502 -0.00000000000E+00 -0.00000000000E+00 -0.36442719792E+03  0.36442719792E+03  0.00000000000E+00 0. -1.
         25    1    1    2    0    0  0.62997374196E+02 -0.41218567431E+02 -0.27218603462E+03  0.30883308906E+03  0.12500000000E+03 0.  0.
         25    1    1    2    0    0 -0.62997374196E+02  0.41218567431E+02 -0.19028890370E+01  0.14593238312E+03  0.12500000000E+03 0.  0.
</event>
<event>
 4    0  0.2168146E-002  0.4654231E+03  0.7546771E-02  0.1023220E+00
         21   -1    0    0  502  501  0.00000000000E+00  0.00000000000E+00  0.12976791157E+04  0.12976791157E+04  0.00000000000E+00 0.  1.
         21   -1    0    0  501  502 -0.00000000000E+00 -0.00000000000E+00 -0.16692777238E+03  0.16692777238E+03  0.00000000000E+00 0. -1.
         25    1    1    2    0    0 -0.19052071962E+03  0.27356332192E+03  0.93722172394E+02  0.36816284617E+03  0.12500000000E+03 0.  0.
         25    1    1    2    0    0  0.19052071962E+03 -0.27356332192E+03  0.10370291709E+04  0.10964440419E+04  0.12500000000E+03 0.  0.
</event>
<event>
 4    0  0.2168146E-002  0.2073112E+03  0.7546771E-02  0.1143713E+00
         21   -1    0    0  502  501  0.00000000000E+00  0.00000000000E+00  0.18195834317E+03  0.18195834317E+03  0.00000000000E+00 0.  1.
         21   -1    0    0  501  502 -0.00000000000E+00 -0.00000000000E+00 -0.23619646707E+03  0.23619646707E+03  0.00000000000E+00 0.  1.
         25    1    1    2    0    0  0.73142276925E+02 -0.14500848843E+03  0.43826696511E+01  0.20499137100E+03  0.12500000000E+03 0.  0.
         25    1    1    2    0    0 -0.73142276925E+02  0.14500848843E+03 -0.58620793549E+02  0.21316343924E+03  0.12500000000E+03 0.  0.
</event>
<event>
 4    0  0.2168146E-002  0.2350998E+03  0.7546771E-02  0.1123101E+00
         21   -1    0    0  502  501  0.00000000000E+00  0.00000000000E+00  0.17849434136E+03  0.17849434136E+03  0.00000000000E+00 0. -1.
         21   -1    0    0  501  502 -0.00000000000E+00 -0.00000000000E+00 -0.30965644872E+03  0.30965644872E+03  0.00000000000E+00 0. -1.
         25    1    1    2    0    0  0.19575893815E+03 -0.35496114955E+02 -0.57186064676E+02  0.24181973045E+03  0.12500000000E+03 0.  0.
         25    1    1    2    0    0 -0.19575893815E+03  0.35496114955E+02 -0.73976042682E+02  0.24633105962E+03  0.12500000000E+03 0.  0.
</event>
<event>
 4    0  0.2168146E-002  0.2090177E+03  0.7546771E-02  0.1142346E+00
         21   -1    0    0  502  501  0.00000000000E+00  0.00000000000E+00  0.63374502584E+02  0.63374502584E+02  0.00000000000E+00 0. -1.
         21   -1    0    0  501  502 -0.00000000000E+00 -0.00000000000E+00 -0.68936892723E+03  0.68936892723E+03  0.00000000000E+00 0. -1.
         25    1    1    2    0    0 -0.10332151706E+03 -0.39835720511E+02 -0.53934631330E+03  0.56460753288E+03  0.12500000000E+03 0.  0.
         25    1    1    2    0    0  0.10332151706E+03  0.39835720511E+02 -0.86648111350E+02  0.18813589694E+03  0.12500000000E+03 0.  0.
</event>
<event>
 4    0  0.2168146E-002  0.2271095E+03  0.7546771E-02  0.1128691E+00
         21   -1    0    0  502  501  0.00000000000E+00  0.00000000000E+00  0.18980665180E+03  0.18980665180E+03  0.00000000000E+00 0. -1.
         21   -1    0    0  501  502 -0.00000000000E+00 -0.00000000000E+00 -0.27174360636E+03  0.27174360636E+03  0.00000000000E+00 0. -1.
         25    1    1    2    0    0 -0.12486358369E+03  0.13341328022E+03 -0.92418958603E+02  0.23990890309E+03  0.12500000000E+03 0.  0.
         25    1    1    2    0    0  0.12486358369E+03 -0.13341328022E+03  0.10482004044E+02  0.22164135508E+03  0.12500000000E+03 0.  0.
</event>
<event>
 4    0  0.2168146E-002  0.1927840E+03  0.7546771E-02  0.1155974E+00
         21   -1    0    0  502  501  0.00000000000E+00  0.00000000000E+00  0.93073740639E+03  0.93073740639E+03  0.00000000000E+00 0.  1.
         21   -1    0    0  501  502 -0.00000000000E+00 -0.00000000000E+00 -0.39931409489E+02  0.39931409489E+02  0.00000000000E+00 0.  1.
         25    1    1    2    0    0 -0.65695408254E+02  0.12393463521E+03  0.33668365909E+03  0.38556006895E+03  0.12500000000E+03 0.  0.
         25    1    1    2    0    0  0.65695408254E+02 -0.12393463521E+03  0.55412233781E+03  0.58510874693E+03  0.12500000000E+03 0.  0.
</event>
<event>
 4    0  0.2168146E-002  0.3786213E+03  0.7546771E-02  0.1051445E+00
         21   -1    0    0  502  501  0.00000000000E+00  0.00000000000E+00  0.24046302683E+03  0.24046302683E+03  0.00000000000E+00 0.  1.
         21   -1    0    0  501  502 -0.00000000000E+00 -0.00000000000E+00 -0.59615855308E+03  0.59615855308E+03  0.00000000000E+00 0. -1.
         25    1    1    2    0    0 -0.35598310503E+03  0.15398368525E+02 -0.20846579485E+03  0.43132826066E+03  0.12500000000E+03 0.  0.
         25    1    1    2    0    0  0.35598310503E+03 -0.15398368525E+02 -0.14722973140E+03  0.40529331925E+03  0.12500000000E+03 0.  0.
</event>
<event>
 4    0  0.2168146E-002  0.1854874E+03  0.7546771E-02  0.1162596E+00
         21   -1    0    0  502  501  0.00000000000E+00  0.00000000000E+00  0.14856556340E+03  0.14856556340E+03  0.00000000000E+00 0. -1.
         21   -1    0    0  501  502 -0.00000000000E+00 -0.00000000000E+00 -0.23158504150E+03  0.23158504150E+03  0.00000000000E+00 0. -1.
         25    1    1    2    0    0 -0.57881626283E+02 -0.12241243793E+03 -0.19881418026E+02  0.18535198516E+03  0.12500000000E+03 0.  0.
         25    1    1    2    0    0  0.57881626283E+02  0.12241243793E+03 -0.63138060073E+02  0.19479861973E+03  0.12500000000E+03 0.  0.
</event>
<event>
 4    0  0.2168146E-002  0.1420090E+03  0.7546771E-02  0.1210651E+00
         21   -1    0    0  502  501  0.00000000000E+00  0.00000000000E+00  0.36228013633E+02  0.36228013633E+02  0.00000000000E+00 0. -1.
         21   -1    0    0  501  502 -0.00000000000E+00 -0.00000000000E+00 -0.55665616013E+03  0.55665616013E+03  0.00000000000E+00 0. -1.
         25    1    1    2    0    0 -0.11562118086E+00  0.57302802709E+02 -0.18617669783E+03  0.23145277571E+03  0.12500000000E+03 0.  0.
         25    1    1    2    0    0  0.11562118086E+00 -0.57302802709E+02 -0.33425144867E+03  0.36143139806E+03  0.12500000000E+03 0.  0.
</event>
<event>
 4    0  0.2168146E-002  0.2173990E+03  0.7546771E-02  0.1135837E+00
         21   -1    0    0  502  501  0.00000000000E+00  0.00000000000E+00  0.67634265795E+02  0.67634265795E+02  0.00000000000E+00 0.  1.
         21   -1    0    0  501  502 -0.00000000000E+00 -0.00000000000E+00 -0.69879239075E+03  0.69879239075E+03  0.00000000000E+00 0.  1.
         25    1    1    2    0    0 -0.54219441462E+02 -0.16935635443E+03 -0.32262722282E+03  0.38901754141E+03  0.12500000000E+03 0.  0.
         25    1    1    2    0    0  0.54219441462E+02  0.16935635443E+03 -0.30853090214E+03  0.37740911514E+03  0.12500000000E+03 0.  0.
</event>
<event>
 4    0  0.2168146E-002  0.2184855E+03  0.7546771E-02  0.1135017E+00
         21   -1    0    0  502  501  0.00000000000E+00  0.00000000000E+00  0.15951257667E+03  0.15951257667E+03  0.00000000000E+00 0. -1.
         21   -1    0    0  501  502 -0.00000000000E+00 -0.00000000000E+00 -0.29926115639E+03  0.29926115639E+03  0.00000000000E+00 0. -1.
         25    1    1    2    0    0 -0.17411842306E+03 -0.22786165489E+02 -0.32393129390E+02  0.21796960664E+03  0.12500000000E+03 0.  0.
         25    1    1    2    0    0  0.17411842306E+03  0.22786165489E+02 -0.10735545033E+03  0.24080412642E+03  0.12500000000E+03 0.  0.
</event>
<event>
 4    0  0.2168146E-002  0.1517422E+03  0.7546771E-02  0.1198348E+00
         21   -1    0    0  502  501  0.00000000000E+00  0.00000000000E+00  0.10010507355E+03  0.10010507355E+03  0.00000000000E+00 0.  1.
         21   -1    0    0  501  502 -0.00000000000E+00 -0.00000000000E+00 -0.23001515790E+03  0.23001515790E+03  0.00000000000E+00 0.  1.
         25    1    1    2    0    0 -0.90049051365E+01 -0.85100904052E+02 -0.74526904099E+02  0.16882686878E+03  0.12500000000E+03 0.  0.
         25    1    1    2    0    0  0.90049051365E+01  0.85100904052E+02 -0.55383180248E+02  0.16129336267E+03  0.12500000000E+03 0.  0.
</event>
<event>
 4    0  0.2168146E-002  0.3171377E+03  0.7546771E-02  0.1076974E+00
         21   -1    0    0  502  501  0.00000000000E+00  0.00000000000E+00  0.26385840925E+03  0.26385840925E+03  0.00000000000E+00 0.  1.
         21   -1    0    0  501  502 -0.00000000000E+00 -0.00000000000E+00 -0.38117536459E+03  0.38117536459E+03  0.00000000000E+00 0.  1.
         25    1    1    2    0    0  0.23235025082E+03 -0.16257586647E+03 -0.12713386660E+03  0.33497100091E+03  0.12500000000E+03 0.  0.
         25    1    1    2    0    0 -0.23235025082E+03  0.16257586647E+03  0.98169112628E+01  0.31006277293E+03  0.12500000000E+03 0.  0.
</event>
<event>
 4    0  0.2168146E-002  0.2028478E+03  0.7546771E-02  0.1147358E+00
         21   -1    0    0  502  501  0.00000000000E+00  0.00000000000E+00  0.12613041153E+04  0.12613041153E+04  0.00000000000E+00 0.  1.
         21   -1    0    0  501  502 -0.00000000000E+00 -0.00000000000E+00 -0.32622781277E+02  0.32622781277E+02  0.00000000000E+00 0.  1.
         25    1    1    2    0    0 -0.17788358128E+02 -0.28627495909E+02  0.11124012873E+04  0.11199096318E+04  0.12500000000E+03 0.  0.
         25    1    1    2    0    0  0.17788358128E+02  0.28627495909E+02  0.11628004673E+03  0.17401726487E+03  0.12500000000E+03 0.  0.
</event>
<event>
 4    0  0.2168146E-002  0.5089422E+03  0.7546771E-02  0.1011471E+00
         21   -1    0    0  502  501  0.00000000000E+00  0.00000000000E+00  0.40491716592E+03  0.40491716592E+03  0.00000000000E+00 0.  1.
         21   -1    0    0  501  502 -0.00000000000E+00 -0.00000000000E+00 -0.63969174716E+03  0.63969174716E+03  0.00000000000E+00 0.  1.
         25    1    1    2    0    0 -0.24554720604E+03  0.10176649313E+03 -0.54392842763E+03  0.61816905770E+03  0.12500000000E+03 0.  0.
         25    1    1    2    0    0  0.24554720604E+03 -0.10176649313E+03  0.30915384638E+03  0.42643985537E+03  0.12500000000E+03 0.  0.
</event>
<event>
 4    0  0.2168146E-002  0.2466980E+03  0.7546771E-02  0.1115410E+00
         21   -1    0    0  502  501  0.00000000000E+00  0.00000000000E+00  0.12501407205E+04  0.12501407205E+04  0.00000000000E+00 0. -1.
         21   -1    0    0  501  502 -0.00000000000E+00 -0.00000000000E+00 -0.48682439870E+02  0.48682439870E+02  0.00000000000E+00 0.  1.
         25    1    1    2    0    0  0.15222417926E+03  0.41722741200E+01  0.20987714271E+03  0.28785938174E+03  0.12500000000E+03 0.  0.
         25    1    1    2    0    0 -0.15222417926E+03 -0.41722741200E+01  0.99158113794E+03  0.10109637787E+04  0.12500000000E+03 0.  0.
</event>
<event>
 4    0  0.2168146E-002  0.3620405E+03  0.7546771E-02  0.1057779E+00
         21   -1    0    0  502  501  0.00000000000E+00  0.00000000000E+00  0.41204860535E+03  0.41204860535E+03  0.00000000000E+00 0. -1.
         21   -1    0    0  501  502 -0.00000000000E+00 -0.00000000000E+00 -0.31810165536E+03  0.31810165536E+03  0.00000000000E+00 0. -1.
         25    1    1    2    0    0 -0.26761746415E+03  0.20932693796E+03  0.50388508383E+02  0.36551453576E+03  0.12500000000E+03 0.  0.
         25    1    1    2    0    0  0.26761746415E+03 -0.20932693796E+03  0.43558441613E+02  0.36463572495E+03  0.12500000000E+03 0.  0.
</event>
<event>
 4    0  0.2168146E-002  0.1710516E+03  0.7546771E-02  0.1176756E+00
         21   -1    0    0  502  501  0.00000000000E+00  0.00000000000E+00  0.65967758898E+03  0.65967758898E+03  0.00000000000E+00 0. -1.
         21   -1    0    0  501  502 -0.00000000000E+00 -0.00000000000E+00 -0.44352969777E+02  0.44352969777E+02  0.00000000000E+00 0. -1.
         25    1    1    2    0    0  0.10426143037E+03 -0.33349403579E+02  0.39128266098E+03  0.42509969345E+03  0.12500000000E+03 0.  0.
         25    1    1    2    0    0 -0.10426143037E+03  0.33349403579E+02  0.22404195822E+03  0.27893086532E+03  0.12500000000E+03 0.  0.
</event>
<event>
 4    0  0.2168146E-002  0.3171303E+03  0.7546771E-02  0.1076978E+00
         21   -1    0    0  502  501  0.00000000000E+00  0.00000000000E+00  0.56387231839E+03  0.56387231839E+03  0.00000000000E+00 0. -1.
         21   -1    0    0  501  502 -0.00000000000E+00 -0.00000000000E+00 -0.17835884669E+03  0.17835884669E+03  0.00000000000E+00 0. -1.
         25    1    1    2    0    0 -0.38900463067E+02  0.22242163831E+02 -0.14425883992E+03  0.19607032609E+03  0.12500000000E+03 0.  0.
         25    1    1    2    0    0  0.38900463067E+02 -0.22242163831E+02  0.52977231163E+03  0.54616083899E+03  0.12500000000E+03 0.  0.
</event>
<event>
 4    0  0.2168146E-002  0.1916890E+03  0.7546771E-02  0.1156947E+00
         21   -1    0    0  502  501  0.00000000000E+00  0.00000000000E+00  0.74271562226E+02  0.74271562226E+02  0.00000000000E+00 0.  1.
         21   -1    0    0  501  502 -0.00000000000E+00 -0.00000000000E+00 -0.49473429442E+03  0.49473429442E+03  0.00000000000E+00 0.  1.
         25    1    1    2    0    0 -0.14867169107E+00  0.12022610470E+03 -0.33140299656E+03  0.37404182184E+03  0.12500000000E+03 0.  0.
         25    1    1    2    0    0  0.14867169107E+00 -0.12022610470E+03 -0.89059735625E+02  0.19496403480E+03  0.12500000000E+03 0.  0.
</event>
<event>
 4    0  0.2168146E-002  0.1910164E+03  0.7546771E-02  0.1157548E+00
         21   -1    0    0  502  501  0.00000000000E+00  0.00000000000E+00  0.20080273305E+03  0.20080273305E+03  0.00000000000E+00 0.  1.
         21   -1    0    0  501  502 -0.00000000000E+00 -0.00000000000E+00 -0.18170696140E+03  0.18170696140E+03  0.00000000000E+00 0.  1.
         25    1    1    2    0    0  0.67146213368E+02  0.11918039242E+03 -0.36874581163E+02  0.18893732994E+03  0.12500000000E+03 0.  0.
         25    1    1    2    0    0 -0.67146213368E+02 -0.11918039242E+03  0.55970352808E+02  0.19357236451E+03  0.12500000000E+03 0.  0.
</event>
<event>
 4    0  0.2168146E-002  0.2242336E+03  0.7546771E-02  0.1130766E+00
         21   -1    0    0  502  501  0.00000000000E+00  0.00000000000E+00  0.24841193967E+04  0.24841193967E+04  0.00000000000E+00 0. -1.
         21   -1    0    0  501  502 -0.00000000000E+00 -0.00000000000E+00 -0.20240855137E+02  0.20240855137E+02  0.00000000000E+00 0. -1.
         25    1    1    2    0    0  0.17164981707E+03 -0.31720842756E+02  0.15932300696E+04  0.16076308427E+04  0.12500000000E+03 0.  0.
         25    1    1    2    0    0 -0.17164981707E+03  0.31720842756E+02  0.87064847193E+03  0.89672940915E+03  0.12500000000E+03 0.  0.
</event>
<event>
 4    0  0.2168146E-002  0.2589436E+03  0.7546771E-02  0.1107780E+00
         21   -1    0    0  502  501  0.00000000000E+00  0.00000000000E+00  0.21367059092E+03  0.21367059092E+03  0.00000000000E+00 0. -1.
         21   -1    0    0  501  502 -0.00000000000E+00 -0.00000000000E+00 -0.31380913695E+03  0.31380913695E+03  0.00000000000E+00 0. -1.
         25    1    1    2    0    0  0.93438190071E+02 -0.62903102024E+02  0.15039935952E+03  0.22568221674E+03  0.12500000000E+03 0.  0.
         25    1    1    2    0    0 -0.93438190071E+02  0.62903102024E+02 -0.25053790555E+03  0.30179751113E+03  0.12500000000E+03 0.  0.
</event>
<event>
 4    0  0.2168146E-002  0.2305256E+03  0.7546771E-02  0.1126270E+00
         21   -1    0    0  502  501  0.00000000000E+00  0.00000000000E+00  0.70518563481E+02  0.70518563481E+02  0.00000000000E+00 0. -1.
         21   -1    0    0  501  502 -0.00000000000E+00 -0.00000000000E+00 -0.75358983693E+03  0.75358983693E+03  0.00000000000E+00 0. -1.
         25    1    1    2    0    0  0.18192563507E+03  0.66467704098E+02 -0.33889626694E+03  0.40986652966E+03  0.12500000000E+03 0.  0.
         25    1    1    2    0    0 -0.18192563507E+03 -0.66467704098E+02 -0.34417500650E+03  0.41424187075E+03  0.12500000000E+03 0.  0.
</event>
<event>
 4    0  0.2168146E-002  0.4015437E+03  0.7546771E-02  0.1043246E+00
         21   -1    0    0  502  501  0.00000000000E+00  0.00000000000E+00  0.94764573826E+03  0.94764573826E+03  0.00000000000E+00 0.  1.
         21   -1    0    0  501  502 -0.00000000000E+00 -0.00000000000E+00 -0.17014517774E+03  0.17014517774E+03  0.00000000000E+00 0. -1.
         25    1    1    2    0    0  0.63251157453E+02  0.37202136269E+03  0.30986997657E+03  0.50402877457E+03  0.12500000000E+03 0.  0.
         25    1    1    2    0    0 -0.63251157453E+02 -0.37202136269E+03  0.46763058395E+03  0.61376214144E+03  0.12500000000E+03 0.  0.
</event>
<event>
 4    0  0.2168146E-002  0.1865572E+03  0.7546771E-02  0.1161604E+00
         21   -1    0    0  502  501  0.00000000000E+00  0.00000000000E+00  0.91006927472E+02  0.91006927472E+02  0.00000000000E+00 0. -1.
         21   -1    0    0  501  502 -0.00000000000E+00 -0.00000000000E+00 -0.38242794791E+03  0.38242794791E+03  0.00000000000E+00 0. -1.
         25    1    1    2    0    0  0.11861022445E+03 -0.71408761385E+02 -0.14150290455E+03  0.23412746217E+03  0.12500000000E+03 0.  0.
         25    1    1    2    0    0 -0.11861022445E+03  0.71408761385E+02 -0.14991811589E+03  0.23930741322E+03  0.12500000000E+03 0.  0.
</event>
<event>
 4    0  0.2168146E-002  0.1307401E+03  0.7546771E-02  0.1226362E+00
         21   -1    0    0  502  501  0.00000000000E+00  0.00000000000E+00  0.12325156843E+03  0.12325156843E+03  0.00000000000E+00 0.  1.
         21   -1    0    0  501  502 -0.00000000000E+00 -0.00000000000E+00 -0.13868352451E+03  0.13868352451E+03  0.00000000000E+00 0.  1.
         25    1    1    2    0    0  0.25552090173E+02  0.23696519134E+02 -0.23666233188E+02  0.13190725880E+03  0.12500000000E+03 0.  0.
         25    1    1    2    0    0 -0.25552090173E+02 -0.23696519134E+02  0.82342771073E+01  0.13002783414E+03  0.12500000000E+03 0.  0.
</event>
<event>
 4    0  0.2168146E-002  0.3099818E+03  0.7546771E-02  0.1080355E+00
         21   -1    0    0  502  501  0.00000000000E+00  0.00000000000E+00  0.44314405229E+03  0.44314405229E+03  0.00000000000E+00 0. -1.
         21   -1    0    0  501  502 -0.00000000000E+00 -0.00000000000E+00 -0.21683400277E+03  0.21683400277E+03  0.00000000000E+00 0. -1.
         25    1    1    2    0    0 -0.20330617561E+03  0.19780415277E+03  0.11523423002E+03  0.33070199828E+03  0.12500000000E+03 0.  0.
         25    1    1    2    0    0  0.20330617561E+03 -0.19780415277E+03  0.11107581949E+03  0.32927605678E+03  0.12500000000E+03 0.  0.
</event>
<event>
 4    0  0.2168146E-002  0.1502440E+03  0.7546771E-02  0.1200173E+00
         21   -1    0    0  502  501  0.00000000000E+00  0.00000000000E+00  0.10188704986E+04  0.10188704986E+04  0.00000000000E+00 0. -1.
         21   -1    0    0  501  502 -0.00000000000E+00 -0.00000000000E+00 -0.22155192105E+02  0.22155192105E+02  0.00000000000E+00 0. -1.
         25    1    1    2    0    0 -0.95999073713E+01 -0.66335697305E+02  0.32667720010E+03  0.35613982651E+03  0.12500000000E+03 0.  0.
         25    1    1    2    0    0  0.95999073713E+01  0.66335697305E+02  0.67003810642E+03  0.68488586422E+03  0.12500000000E+03 0.  0.
</event>
<event>
 4    0  0.2168146E-002  0.1771350E+03  0.7546771E-02  0.1170605E+00
         21   -1    0    0  502  501  0.00000000000E+00  0.00000000000E+00  0.20541179358E+02  0.20541179358E+02  0.00000000000E+00 0. -1.
         21   -1    0    0  501  502 -0.00000000000E+00 -0.00000000000E+00 -0.15275078327E+04  0.15275078327E+04  0.00000000000E+00 0. -1.
         25    1    1    2    0    0  0.73272888261E+02  0.10181631428E+03 -0.73582289681E+03  0.75683275132E+03  0.12500000000E+03 0.  0.
         25    1    1    2    0    0 -0.73272888261E+02 -0.10181631428E+03 -0.77114375651E+03  0.79121626071E+03  0.12500000000E+03 0.  0.
</event>
<event>
 4    0  0.2168146E-002  0.2698428E+03  0.7546771E-02  0.1101370E+00
         21   -1    0    0  502  501  0.00000000000E+00  0.00000000000E+00  0.10301664638E+04  0.10301664638E+04  0.00000000000E+00 0. -1.
         21   -1    0    0  501  502 -0.00000000000E+00 -0.00000000000E+00 -0.70682899408E+02  0.70682899408E+02  0.00000000000E+00 0. -1.
         25    1    1    2    0    0 -0.79324230699E+02  0.15319599233E+03  0.81756576400E+03  0.84486692686E+03  0.12500000000E+03 0.  0.
         25    1    1    2    0    0  0.79324230699E+02 -0.15319599233E+03  0.14191780036E+03  0.25598243631E+03  0.12500000000E+03 0.  0.
</event>
<event>
 4    0  0.2168146E-002  0.2205471E+03  0.7546771E-02  0.1133476E+00
         21   -1    0    0  502  501  0.00000000000E+00  0.00000000000E+00  0.26689410599E+02  0.26689410599E+02  0.00000000000E+00 0.  1.
         21   -1    0    0  501  502 -0.00000000000E+00 -0.00000000000E+00 -0.18224840457E+04  0.18224840457E+04  0.00000000000E+00 0.  1.
         25    1    1    2    0    0  0.66894638218E+02 -0.16654160352E+03 -0.77895088160E+03  0.80907383734E+03  0.12500000000E+03 0.  0.
         25    1    1    2    0    0 -0.66894638218E+02  0.16654160352E+03 -0.10168437535E+04  0.10400996190E+04  0.12500000000E+03 0.  0.
</event>
<event>
 4    0  0.2168146E-002  0.3836588E+03  0.7546771E-02  0.1049590E+00
         21   -1    0    0  502  501  0.00000000000E+00  0.00000000000E+00  0.14283384339E+04  0.14283384339E+04  0.00000000000E+00 0.  1.
         21   -1    0    0  501  502 -0.00000000000E+00 -0.00000000000E+00 -0.10305267839E+03  0.10305267839E+03  0.00000000000E+00 0.  1.
         25    1    1    2    0    0  0.30443161765E+02  0.34163624190E+03  0.42711647007E+03  0.56186794435E+03  0.12500000000E+03 0.  0.
         25    1    1    2    0    0 -0.30443161765E+02 -0.34163624190E+03  0.89816928548E+03  0.96952316798E+03  0.12500000000E+03 0.  0.
</event>
<event>
 4    0  0.2168146E-002  0.1809188E+03  0.7546771E-02  0.1166917E+00
         21   -1    0    0  502  501  0.00000000000E+00  0.00000000000E+00  0.89853660499E+02  0.89853660499E+02  0.00000000000E+00 0.  1.
         21   -1    0    0  501  502 -0.00000000000E+00 -0.00000000000E+00 -0.36427704312E+03  0.36427704312E+03  0.00000000000E+00 0.  1.
         25    1    1    2    0    0 -0.12194625049E+03 -0.48029719923E+01 -0.19624883368E+03  0.26274048273E+03  0.12500000000E+03 0.  0.
         25    1    1    2    0    0  0.12194625049E+03  0.48029719923E+01 -0.78174548941E+02  0.19139022088E+03  0.12500000000E+03 0.  0.
</event>
<event>
 4    0  0.2168146E-002  0.1951988E+03  0.7546771E-02  0.1153854E+00
         21   -1    0    0  502  501  0.00000000000E+00  0.00000000000E+00  0.44783344441E+02  0.44783344441E+02  0.00000000000E+00 0.  1.
         21   -1    0    0  501  502 -0.00000000000E+00 -0.00000000000E+00 -0.85081972703E+03  0.85081972703E+03  0.00000000000E+00 0.  1.
         25    1    1    2    0    0 -0.70925327466E+02  0.13162742233E+03 -0.37774449846E+03  0.42505539228E+03  0.12500000000E+03 0.  0.
         25    1    1    2    0    0  0.70925327466E+02 -0.13162742233E+03 -0.42829188412E+03  0.47054767919E+03  0.12500000000E+03 0.  0.
</event>
<event>
 4    0  0.2168146E-002  0.2192655E+03  0.7546771E-02  0.1134432E+00
         21   -1    0    0  502  501  0.00000000000E+00  0.00000000000E+00  0.32089723444E+03  0.32089723444E+03  0.00000000000E+00 0.  1.
         21   -1    0    0  501  502 -0.00000000000E+00 -0.00000000000E+00 -0.14982161536E+03  0.14982161536E+03  0.00000000000E+00 0.  1.
         25    1    1    2    0    0  0.10372478862E+03  0.10776561456E+03  0.19330670066E+03  0.27452639213E+03  0.12500000000E+03 0.  0.
         25    1    1    2    0    0 -0.10372478862E+03 -0.10776561456E+03 -0.22231081582E+02  0.19619245766E+03  0.12500000000E+03 0.  0.
</event>
<event>
 4    0  0.2168146E-002  0.2102559E+03  0.7546771E-02  0.1141364E+00
         21   -1    0    0  502  501  0.00000000000E+00  0.00000000000E+00  0.12631669953E+04  0.12631669953E+04  0.00000000000E+00 0.  1.
         21   -1    0    0  501  502 -0.00000000000E+00 -0.00000000000E+00 -0.34997371174E+02  0.34997371174E+02  0.00000000000E+00 0.  1.
         25    1    1    2    0    0  0.13684111572E+03  0.79682654889E+02  0.79692147774E+03  0.82206061707E+03  0.12500000000E+03 0.  0.
         25    1    1    2    0    0 -0.13684111572E+03 -0.79682654889E+02  0.43124814640E+03  0.47610374943E+03  0.12500000000E+03 0.  0.
</event>
<event>
 4    0  0.2168146E-002  0.2718602E+03  0.7546771E-02  0.1100220E+00
         21   -1    0    0  502  501  0.00000000000E+00  0.00000000000E+00  0.19206288293E+03  0.19206288293E+03  0.00000000000E+00 0.  1.
         21   -1    0    0  501  502 -0.00000000000E+00 -0.00000000000E+00 -0.38481122075E+03  0.38481122075E+03  0.00000000000E+00 0.  1.
         25    1    1    2    0    0  0.15260057248E+03 -0.13972059496E+03 -0.22835449208E+03  0.33253504091E+03  0.12500000000E+03 0.  0.
         25    1    1    2    0    0 -0.15260057248E+03  0.13972059496E+03  0.35606154259E+02  0.24433906278E+03  0.12500000000E+03 0.  0.
</event>
<event>
 4    0  0.2168146E-002  0.2131241E+03  0.7546771E-02  0.1139116E+00
         21   -1    0    0  502  501  0.00000000000E+00  0.00000000000E+00  0.20206770194E+03  0.20206770194E+03  0.00000000000E+00 0.  1.
         21   -1    0    0  501  502 -0.00000000000E+00 -0.00000000000E+00 -0.22478541720E+03  0.22478541720E+03  0.00000000000E+00 0.  1.
         25    1    1    2    0    0 -0.11142687151E+03  0.85903596654E+02 -0.11150828070E+03  0.21875665082E+03  0.12500000000E+03 0.  0.
         25    1    1    2    0    0  0.11142687151E+03 -0.85903596654E+02  0.88790565438E+02  0.20809646831E+03  0.12500000000E+03 0.  0.
</event>
<event>
 4    0  0.2168146E-002  0.2112976E+03  0.7546771E-02  0.1140543E+00
         21   -1    0    0  502  501  0.00000000000E+00  0.00000000000E+00  0.37357542079E+02  0.37357542079E+02  0.00000000000E+00 0.  1.
         21   -1    0    0  501  502 -0.00000000000E+00 -0.00000000000E+00 -0.11951185312E+04  0.11951185312E+04  0.00000000000E+00 0.  1.
         25    1    1    2    0    0 -0.74453432357E+02 -0.14751502658E+03 -0.69975279386E+03  0.72978282329E+03  0.12500000000E+03 0.  0.
         25    1    1    2    0    0  0.74453432357E+02  0.14751502658E+03 -0.45800819528E+03  0.50269325000E+03  0.12500000000E+03 0.  0.
</event>
<event>
 4    0  0.2168146E-002  0.1824129E+03  0.7546771E-02  0.1165488E+00
         21   -1    0    0  502  501  0.00000000000E+00  0.00000000000E+00  0.49126418307E+03  0.49126418307E+03  0.00000000000E+00 0. -1.
         21   -1    0    0  501  502 -0.00000000000E+00 -0.00000000000E+00 -0.67732314565E+02  0.67732314565E+02  0.00000000000E+00 0. -1.
         25    1    1    2    0    0 -0.10860332856E+03 -0.34052746950E+02  0.10677542114E+03  0.19995065168E+03  0.12500000000E+03 0.  0.
         25    1    1    2    0    0  0.10860332856E+03  0.34052746950E+02  0.31675644736E+03  0.35904584595E+03  0.12500000000E+03 0.  0.
</event>
<event>
 4    0  0.2168146E-002  0.2989924E+03  0.7546771E-02  0.1085745E+00
         21   -1    0    0  502  501  0.00000000000E+00  0.00000000000E+00  0.20566207658E+03  0.20566207658E+03  0.00000000000E+00 0.  1.
         21   -1    0    0  501  502 -0.00000000000E+00 -0.00000000000E+00 -0.43467636780E+03  0.43467636780E+03  0.00000000000E+00 0. -1.
         25    1    1    2    0    0 -0.15081606423E+03 -0.22245187248E+03 -0.72469517981E+02  0.30513464543E+03  0.12500000000E+03 0.  0.
         25    1    1    2    0    0  0.15081606423E+03  0.22245187248E+03 -0.15654477324E+03  0.33520379895E+03  0.12500000000E+03 0.  0.
</event>
<event>
 4    0  0.2168146E-002  0.2481055E+03  0.7546771E-02  0.1114508E+00
         21   -1    0    0  502  501  0.00000000000E+00  0.00000000000E+00  0.25506632786E+03  0.25506632786E+03  0.00000000000E+00 0. -1.
         21   -1    0    0  501  502 -0.00000000000E+00 -0.00000000000E+00 -0.24133454444E+03  0.24133454444E+03  0.00000000000E+00 0. -1.
         25    1    1    2    0    0  0.19068824692E+03  0.97815935680E+02  0.57030136186E+01  0.24816826781E+03  0.12500000000E+03 0.  0.
         25    1    1    2    0    0 -0.19068824692E+03 -0.97815935680E+02  0.80287698065E+01  0.24823260448E+03  0.12500000000E+03 0.  0.
</event>
<event>
 4    0  0.2168146E-002  0.1974601E+03  0.7546771E-02  0.1151900E+00
         21   -1    0    0  502  501  0.00000000000E+00  0.00000000000E+00  0.50283167665E+02  0.50283167665E+02  0.00000000000E+00 0.  1.
         21   -1    0    0  501  502 -0.00000000000E+00 -0.00000000000E+00 -0.77541849218E+03  0.77541849218E+03  0.00000000000E+00 0.  1.
         25    1    1    2    0    0 -0.15243591138E+03  0.11345521281E+02 -0.36201401123E+03  0.41236461082E+03  0.12500000000E+03 0.  0.
         25    1    1    2    0    0  0.15243591138E+03 -0.11345521281E+02 -0.36312131328E+03  0.41333704902E+03  0.12500000000E+03 0.  0.
</event>
<event>
 4    0  0.2168146E-002  0.1930466E+03  0.7546771E-02  0.1155742E+00
         21   -1    0    0  502  501  0.00000000000E+00  0.00000000000E+00  0.53944854400E+03  0.53944854400E+03  0.00000000000E+00 0.  1.
         21   -1    0    0  501  502 -0.00000000000E+00 -0.00000000000E+00 -0.69083520756E+02  0.69083520756E+02  0.00000000000E+00 0.  1.
         25    1    1    2    0    0 -0.59241382836E+02 -0.12930533932E+03  0.17594460939E+03  0.25847807990E+03  0.12500000000E+03 0.  0.
         25    1    1    2    0    0  0.59241382836E+02  0.12930533932E+03  0.29442041386E+03  0.35005398486E+03  0.12500000000E+03 0.  0.
</event>
<event>
 4    0  0.2168146E-002  0.2431729E+03  0.7546771E-02  0.1117697E+00
         21   -1    0    0  502  501  0.00000000000E+00  0.00000000000E+00  0.11392315517E+03  0.11392315517E+03  0.00000000000E+00 0. -1.
         21   -1    0    0  501  502 -0.00000000000E+00 -0.00000000000E+00 -0.51906102444E+03  0.51906102444E+03  0.00000000000E+00 0. -1.
         25    1    1    2    0    0 -0.13148365625E+03 -0.94131546063E+02 -0.37404938896E+03  0.42624716446E+03  0.12500000000E+03 0.  0.
         25    1    1    2    0    0  0.13148365625E+03  0.94131546063E+02 -0.31088480307E+02  0.20673701515E+03  0.12500000000E+03 0.  0.
</event>
<event>
 4    0  0.2168146E-002  0.1898119E+03  0.7546771E-02  0.1158631E+00
         21   -1    0    0  502  501  0.00000000000E+00  0.00000000000E+00  0.17221089387E+02  0.17221089387E+02  0.00000000000E+00 0. -1.
         21   -1    0    0  501  502 -0.00000000000E+00 -0.00000000000E+00 -0.20921193046E+04  0.20921193046E+04  0.00000000000E+00 0. -1.
         25    1    1    2    0    0  0.29898274774E+02  0.13951578699E+03 -0.10747274690E+04  0.10913398619E+04  0.12500000000E+03 0.  0.
         25    1    1    2    0    0 -0.29898274774E+02 -0.13951578699E+03 -0.10001707463E+04  0.10180005321E+04  0.12500000000E+03 0.  0.
</event>
<event>
 4    0  0.2168146E-002  0.2644300E+03  0.7546771E-02  0.1104510E+00
         21   -1    0    0  502  501  0.00000000000E+00  0.00000000000E+00  0.16827926389E+03  0.16827926389E+03  0.00000000000E+00 0. -1.
         21   -1    0    0  501  502 -0.00000000000E+00 -0.00000000000E+00 -0.41551895694E+03  0.41551895694E+03  0.00000000000E+00 0. -1.
         25    1    1    2    0    0  0.23026274198E+03  0.34196792698E+02 -0.13508497400E+03  0.29675461441E+03  0.12500000000E+03 0.  0.
         25    1    1    2    0    0 -0.23026274198E+03 -0.34196792698E+02 -0.11215471905E+03  0.28704360641E+03  0.12500000000E+03 0.  0.
</event>
<event>
 4    0  0.2168146E-002  0.2348025E+03  0.7546771E-02  0.1123305E+00
         21   -1    0    0  502  501  0.00000000000E+00  0.00000000000E+00  0.28257184897E+03  0.28257184897E+03  0.00000000000E+00 0. -1.
         21   -1    0    0  501  502 -0.00000000000E+00 -0.00000000000E+00 -0.19510859867E+03  0.19510859867E+03  0.00000000000E+00 0. -1.
         25    1    1    2    0    0 -0.84551118877E+02 -0.53319232372E+02 -0.13102308850E+03  0.20684265026E+03  0.12500000000E+03 0.  0.
         25    1    1    2    0    0  0.84551118877E+02  0.53319232372E+02  0.21848633880E+03  0.27083779738E+03  0.12500000000E+03 0.  0.
</event>
<event>
 4    0  0.2168146E-002  0.2201203E+03  0.7546771E-02  0.1133793E+00
         21   -1    0    0  502  501  0.00000000000E+00  0.00000000000E+00  0.63465320982E+03  0.63465320982E+03  0.00000000000E+00 0.  1.
         21   -1    0    0  501  502 -0.00000000000E+00 -0.00000000000E+00 -0.76345534646E+02  0.76345534646E+02  0.00000000000E+00 0.  1.
         25    1    1    2    0    0 -0.76958437088E+02  0.82388056421E+02  0.50084860741E+02  0.17562427553E+03  0.12500000000E+03 0.  0.
         25    1    1    2    0    0  0.76958437088E+02 -0.82388056421E+02  0.50822281444E+03  0.53537446894E+03  0.12500000000E+03 0.  0.
</event>
<event>
 4    0  0.2168146E-002  0.2111291E+03  0.7546771E-02  0.1140675E+00
         21   -1    0    0  502  501  0.00000000000E+00  0.00000000000E+00  0.85468671019E+03  0.85468671019E+03  0.00000000000E+00 0.  1.
         21   -1    0    0  501  502 -0.00000000000E+00 -0.00000000000E+00 -0.52154203928E+02  0.52154203928E+02  0.00000000000E+00 0. -1.
         25    1    1    2    0    0 -0.11752952280E+03  0.39966501188E+01  0.13717856339E+03  0.21970917185E+03  0.12500000000E+03 0.  0.
         25    1    1    2    0    0  0.11752952280E+03 -0.39966501188E+01  0.66535394287E+03  0.68713174227E+03  0.12500000000E+03 0.  0.
</event>
<event>
 4    0  0.2168146E-002  0.2711096E+03  0.7546771E-02  0.1100646E+00
         21   -1    0    0  502  501  0.00000000000E+00  0.00000000000E+00  0.65152388628E+03  0.65152388628E+03  0.00000000000E+00 0. -1.
         21   -1    0    0  501  502 -0.00000000000E+00 -0.00000000000E+00 -0.11281306370E+03  0.11281306370E+03  0.00000000000E+00 0. -1.
         25    1    1    2    0    0  0.22681530911E+03 -0.73872733122E+02  0.22538348840E+03  0.35117671049E+03  0.12500000000E+03 0.  0.
         25    1    1    2    0    0 -0.22681530911E+03  0.73872733122E+02  0.31332733418E+03  0.41316023949E+03  0.12500000000E+03 0.  0.
</event>
<event>
 4    0  0.2168146E-002  0.1985106E+03  0.7546771E-02  0.1151002E+00
         21   -1    0    0  502  501  0.00000000000E+00  0.00000000000E+00  0.21716292001E+03  0.21716292001E+03  0.00000000000E+00 0. -1.
         21   -1    0    0  501  502 -0.00000000000E+00 -0.00000000000E+00 -0.18146030152E+03  0.18146030152E+03  0.00000000000E+00 0. -1.
         25    1    1    2    0    0 -0.72017800384E+02  0.13623474746E+03  0.23789475711E+02  0.19984346159E+03  0.12500000000E+03 0.  0.
         25    1    1    2    0    0  0.72017800384E+02 -0.13623474746E+03  0.11913142777E+02  0.19877975993E+03  0.12500000000E+03 0.  0.
</event>
<event>
 4    0  0.2168146E-002  0.1691315E+03  0.7546771E-02  0.1178757E+00
         21   -1    0    0  502  501  0.00000000000E+00  0.00000000000E+00  0.17063096821E+03  0.17063096821E+03  0.00000000000E+00 0. -1.
         21   -1    0    0  501  502 -0.00000000000E+00 -0.00000000000E+00 -0.16764516770E+03  0.16764516770E+03  0.00000000000E+00 0. -1.
         25    1    1    2    0    0 -0.76612568722E+02 -0.52945600749E+02 -0.64142993789E+02  0.16855873154E+03  0.12500000000E+03 0.  0.
         25    1    1    2    0    0  0.76612568722E+02  0.52945600749E+02  0.67128794293E+02  0.16971740438E+03  0.12500000000E+03 0.  0.
</event>
<event>
 4    0  0.2168146E-002  0.2984340E+03  0.7546771E-02  0.1086026E+00
         21   -1    0    0  502  501  0.00000000000E+00  0.00000000000E+00  0.19386766218E+03  0.19386766218E+03  0.00000000000E+00 0.  1.
         21   -1    0    0  501  502 -0.00000000000E+00 -0.00000000000E+00 -0.45940009862E+03  0.45940009862E+03  0.00000000000E+00 0.  1.
         25    1    1    2    0    0 -0.51409540904E+02  0.24191505073E+03 -0.25401307986E+03  0.37591684906E+03  0.12500000000E+03 0.  0.
         25    1    1    2    0    0  0.51409540904E+02 -0.24191505073E+03 -0.11519356571E+02  0.27735091174E+03  0.12500000000E+03 0.  0.
</event>
<event>
 4    0  0.2168146E-002  0.2069490E+03  0.7546771E-02  0.1144005E+00
         21   -1    0    0  502  501  0.00000000000E+00  0.00000000000E+00  0.36511295544E+02  0.36511295544E+02  0.00000000000E+00 0.  1.
         21   -1    0    0  501  502 -0.00000000000E+00 -0.00000000000E+00 -0.11730039882E+04  0.11730039882E+04  0.00000000000E+00 0.  1.
         25    1    1    2    0    0  0.11667301559E+03 -0.10894046006E+03 -0.44697177812E+03  0.49080483580E+03  0.12500000000E+03 0.  0.
         25    1    1    2    0    0 -0.11667301559E+03  0.10894046006E+03 -0.68952091451E+03  0.71871044792E+03  0.12500000000E+03 0.  0.
</event>
<event>
 4    0  0.2168146E-002  0.2083592E+03  0.7546771E-02  0.1142872E+00
         21   -1    0    0  502  501  0.00000000000E+00  0.00000000000E+00  0.11020489957E+03  0.11020489957E+03  0.00000000000E+00 0.  1.
         21   -1    0    0  501  502 -0.00000000000E+00 -0.00000000000E+00 -0.39393493298E+03  0.39393493298E+03  0.00000000000E+00 0.  1.
         25    1    1    2    0    0 -0.16006048332E+03  0.15467180097E+02 -0.88717455147E+02  0.22215845433E+03  0.12500000000E+03 0.  0.
         25    1    1    2    0    0  0.16006048332E+03 -0.15467180097E+02 -0.19501257827E+03  0.28198137822E+03  0.12500000000E+03 0.  0.
</event>
<event>
 4    0  0.2168146E-002  0.2391559E+03  0.7546771E-02  0.1120356E+00
         21   -1    0    0  502  501  0.00000000000E+00  0.00000000000E+00  0.58390922858E+02  0.58390922858E+02  0.00000000000E+00 0.  1.
         21   -1    0    0  501  502 -0.00000000000E+00 -0.00000000000E+00 -0.97952789291E+03  0.97952789291E+03  0.00000000000E+00 0.  1.
         25    1    1    2    0    0  0.37411299095E+02  0.12919608684E+03 -0.79307098939E+03  0.81405026157E+03  0.12500000000E+03 0.  0.
         25    1    1    2    0    0 -0.37411299095E+02 -0.12919608684E+03 -0.12806598066E+03  0.22386855420E+03  0.12500000000E+03 0.  0.
</event>
<event>
 4    0  0.2168146E-002  0.1966595E+03  0.7546771E-02  0.1152588E+00
         21   -1    0    0  502  501  0.00000000000E+00  0.00000000000E+00  0.82410238255E+03  0.82410238255E+03  0.00000000000E+00 0.  1.
         21   -1    0    0  501  502 -0.00000000000E+00 -0.00000000000E+00 -0.46929792718E+02  0.46929792718E+02  0.00000000000E+00 0.  1.
         25    1    1    2    0    0  0.47417526328E+02  0.10461568699E+03  0.16871746502E+03  0.23933960552E+03  0.12500000000E+03 0.  0.
         25    1    1    2    0    0 -0.47417526328E+02 -0.10461568699E+03  0.60845512481E+03  0.63169256975E+03  0.12500000000E+03 0.  0.
</event>
<event>
 4    0  0.2168146E-002  0.2105027E+03  0.7546771E-02  0.1141169E+00
         21   -1    0    0  502  501  0.00000000000E+00  0.00000000000E+00  0.44680291071E+02  0.44680291071E+02  0.00000000000E+00 0.  1.
         21   -1    0    0  501  502 -0.00000000000E+00 -0.00000000000E+00 -0.99174315874E+03  0.99174315874E+03  0.00000000000E+00 0.  1.
         25    1    1    2    0    0  0.78855101472E+01 -0.13110012865E+03 -0.73680345326E+03  0.75878439213E+03  0.12500000000E+03 0.  0.
         25    1    1    2    0    0 -0.78855101472E+01  0.13110012865E+03 -0.21025941441E+03  0.27763905768E+03  0.12500000000E+03 0.  0.
</event>
<event>
 4    0  0.2168146E-002  0.2338070E+03  0.7546771E-02  0.1123989E+00
         21   -1    0    0  502  501  0.00000000000E+00  0.00000000000E+00  0.38153627786E+03  0.38153627786E+03  0.00000000000E+00 0.  1.
         21   -1    0    0  501  502 -0.00000000000E+00 -0.00000000000E+00 -0.14327794899E+03  0.14327794899E+03  0.00000000000E+00 0.  1.
         25    1    1    2    0    0 -0.15077637719E+03  0.12678959746E+03  0.10204854525E+03  0.25465275088E+03  0.12500000000E+03 0.  0.
         25    1    1    2    0    0  0.15077637719E+03 -0.12678959746E+03  0.13620978361E+03  0.27016147596E+03  0.12500000000E+03 0.  0.
</event>
<event>
 4    0  0.2168146E-002  0.2188023E+03  0.7546771E-02  0.1134779E+00
         21   -1    0    0  502  501  0.00000000000E+00  0.00000000000E+00  0.12884370641E+03  0.12884370641E+03  0.00000000000E+00 0.  1.
         21   -1    0    0  501  502 -0.00000000000E+00 -0.00000000000E+00 -0.37156989200E+03  0.37156989200E+03  0.00000000000E+00 0.  1.
         25    1    1    2    0    0  0.38862232920E+02  0.91253802232E+02  0.49830183470E+02  0.16716930566E+03  0.12500000000E+03 0.  0.
         25    1    1    2    0    0 -0.38862232920E+02 -0.91253802232E+02 -0.29255636906E+03  0.33324429275E+03  0.12500000000E+03 0.  0.
</event>
<event>
 4    0  0.2168146E-002  0.2038290E+03  0.7546771E-02  0.1146548E+00
         21   -1    0    0  502  501  0.00000000000E+00  0.00000000000E+00  0.11697963535E+03  0.11697963535E+03  0.00000000000E+00 0. -1.
         21   -1    0    0  501  502 -0.00000000000E+00 -0.00000000000E+00 -0.35515806143E+03  0.35515806143E+03  0.00000000000E+00 0. -1.
         25    1    1    2    0    0 -0.51890970127E+02  0.73784696198E+02 -0.27354080811E+03  0.31398475739E+03  0.12500000000E+03 0.  0.
         25    1    1    2    0    0  0.51890970127E+02 -0.73784696198E+02  0.35362382036E+02  0.15815293939E+03  0.12500000000E+03 0.  0.
</event>
<event>
 4    0  0.2168146E-002  0.4165838E+03  0.7546771E-02  0.1038184E+00
         21   -1    0    0  502  501  0.00000000000E+00  0.00000000000E+00  0.22287511423E+03  0.22287511423E+03  0.00000000000E+00 0. -1.
         21   -1    0    0  501  502 -0.00000000000E+00 -0.00000000000E+00 -0.77865169078E+03  0.77865169078E+03  0.00000000000E+00 0. -1.
         25    1    1    2    0    0  0.12404577976E+03 -0.99636466969E+01 -0.73154945701E+03  0.75251328080E+03  0.12500000000E+03 0.  0.
         25    1    1    2    0    0 -0.12404577976E+03  0.99636466969E+01  0.17577288046E+03  0.24901352420E+03  0.12500000000E+03 0.  0.
</event>
<event>
 4    0  0.2168146E-002  0.1726383E+03  0.7546771E-02  0.1175124E+00
         21   -1    0    0  502  501  0.00000000000E+00  0.00000000000E+00  0.33549249496E+03  0.33549249496E+03  0.00000000000E+00 0.  1.
         21   -1    0    0  501  502 -0.00000000000E+00 -0.00000000000E+00 -0.88836542747E+02  0.88836542747E+02  0.00000000000E+00 0.  1.
         25    1    1    2    0    0 -0.27561818355E+02 -0.10737405689E+03  0.69898141594E+02  0.18110657670E+03  0.12500000000E+03 0.  0.
         25    1    1    2    0    0  0.27561818355E+02  0.10737405689E+03  0.17675781062E+03  0.24322246101E+03  0.12500000000E+03 0.  0.
</event>
<event>
 4    0  0.2168146E-002  0.2424747E+03  0.7546771E-02  0.1118155E+00
         21   -1    0    0  502  501  0.00000000000E+00  0.00000000000E+00  0.76496088365E+03  0.76496088365E+03  0.00000000000E+00 0. -1.
         21   -1    0    0  501  502 -0.00000000000E+00 -0.00000000000E+00 -0.76858783430E+02  0.76858783430E+02  0.00000000000E+00 0. -1.
         25    1    1    2    0    0  0.16081904598E+02 -0.12389432022E+03  0.63223282280E+03  0.65646917100E+03  0.12500000000E+03 0.  0.
         25    1    1    2    0    0 -0.16081904598E+02  0.12389432022E+03  0.55869277417E+02  0.18535049608E+03  0.12500000000E+03 0.  0.
</event>
<event>
 4    0  0.2168146E-002  0.1847870E+03  0.7546771E-02  0.1163249E+00
         21   -1    0    0  502  501  0.00000000000E+00  0.00000000000E+00  0.73228416706E+03  0.73228416706E+03  0.00000000000E+00 0. -1.
         21   -1    0    0  501  502 -0.00000000000E+00 -0.00000000000E+00 -0.46629760027E+02  0.46629760027E+02  0.00000000000E+00 0. -1.
         25    1    1    2    0    0 -0.47771299784E+02  0.92009535698E+02  0.52864747958E+03  0.55302894084E+03  0.12500000000E+03 0.  0.
         25    1    1    2    0    0  0.47771299784E+02 -0.92009535698E+02  0.15700692745E+03  0.22588498624E+03  0.12500000000E+03 0.  0.
</event>
<event>
 4    0  0.2168146E-002  0.1915396E+03  0.7546771E-02  0.1157080E+00
         21   -1    0    0  502  501  0.00000000000E+00  0.00000000000E+00  0.87756776039E+03  0.87756776039E+03  0.00000000000E+00 0. -1.
         21   -1    0    0  501  502 -0.00000000000E+00 -0.00000000000E+00 -0.41805788843E+02  0.41805788843E+02  0.00000000000E+00 0. -1.
         25    1    1    2    0    0 -0.10188763323E+01 -0.74876777919E+02  0.11952431005E+03  0.18846387100E+03  0.12500000000E+03 0.  0.
         25    1    1    2    0    0  0.10188763323E+01  0.74876777919E+02  0.71623766150E+03  0.73090967823E+03  0.12500000000E+03 0.  0.
</event>
<event>
 4    0  0.2168146E-002  0.2135436E+03  0.7546771E-02  0.1138790E+00
         21   -1    0    0  502  501  0.00000000000E+00  0.00000000000E+00  0.43260617189E+03  0.43260617189E+03  0.00000000000E+00 0.  1.
         21   -1    0    0  501  502 -0.00000000000E+00 -0.00000000000E+00 -0.10540967165E+03  0.10540967165E+03  0.00000000000E+00 0.  1.
         25    1    1    2    0    0  0.14753678970E+03  0.43744084368E+02  0.26354855483E+03  0.32979310178E+03  0.12500000000E+03 0.  0.
         25    1    1    2    0    0 -0.14753678970E+03 -0.43744084368E+02  0.63647945408E+02  0.20822274176E+03  0.12500000000E+03 0.  0.
</event>
<event>
 4    0  0.2168146E-002  0.1950694E+03  0.7546771E-02  0.1153967E+00
         21   -1    0    0  502  501  0.00000000000E+00  0.00000000000E+00  0.30943397593E+03  0.30943397593E+03  0.00000000000E+00 0.  1.
         21   -1    0    0  501  502 -0.00000000000E+00 -0.00000000000E+00 -0.12297315007E+03  0.12297315007E+03  0.00000000000E+00 0.  1.
         25    1    1    2    0    0  0.14696880875E+03  0.17380322290E+02  0.11862968927E+03  0.22715613468E+03  0.12500000000E+03 0.  0.
         25    1    1    2    0    0 -0.14696880875E+03 -0.17380322290E+02  0.67831136592E+02  0.20525099132E+03  0.12500000000E+03 0.  0.
</event>
<event>
 4    0  0.2168146E-002  0.2659586E+03  0.7546771E-02  0.1103615E+00
         21   -1    0    0  502  501  0.00000000000E+00  0.00000000000E+00  0.10925728447E+03  0.10925728447E+03  0.00000000000E+00 0. -1.
         21   -1    0    0  501  502 -0.00000000000E+00 -0.00000000000E+00 -0.64740754945E+03  0.64740754945E+03  0.00000000000E+00 0. -1.
         25    1    1    2    0    0  0.20305458588E+02 -0.15129745388E+03 -0.52277039665E+03  0.55876392047E+03  0.12500000000E+03 0.  0.
         25    1    1    2    0    0 -0.20305458588E+02  0.15129745388E+03 -0.15379868328E+02  0.19790091346E+03  0.12500000000E+03 0.  0.
</event>
<event>
 4    0  0.2168146E-002  0.2878711E+03  0.7546771E-02  0.1091466E+00
         21   -1    0    0  502  501  0.00000000000E+00  0.00000000000E+00  0.65031051707E+03  0.65031051707E+03  0.00000000000E+00 0.  1.
         21   -1    0    0  501  502 -0.00000000000E+00 -0.00000000000E+00 -0.12743104107E+03  0.12743104107E+03  0.00000000000E+00 0.  1.
         25    1    1    2    0    0 -0.20653764441E+03  0.87379576974E+02  0.43731901317E+03  0.50711528109E+03  0.12500000000E+03 0.  0.
         25    1    1    2    0    0  0.20653764441E+03 -0.87379576974E+02  0.85560462832E+02  0.27062627705E+03  0.12500000000E+03 0.  0.
</event>
<event>
 4    0  0.2168146E-002  0.2119242E+03  0.7546771E-02  0.1140051E+00
         21   -1    0    0  502  501  0.00000000000E+00  0.00000000000E+00  0.13513499792E+03  0.13513499792E+03  0.00000000000E+00 0.  1.
         21   -1    0    0  501  502 -0.00000000000E+00 -0.00000000000E+00 -0.33234824300E+03  0.33234824300E+03  0.00000000000E+00 0.  1.
         25    1    1    2    0    0  0.57064553020E+00  0.81688894878E+02  0.67252406343E+02  0.16377205910E+03  0.12500000000E+03 0.  0.
         25    1    1    2    0    0 -0.57064553020E+00 -0.81688894878E+02 -0.26446565142E+03  0.30371118182E+03  0.12500000000E+03 0.  0.
</event>
<event>
 4    0  0.2168146E-002  0.2477720E+03  0.7546771E-02  0.1114721E+00
         21   -1    0    0  502  501  0.00000000000E+00  0.00000000000E+00  0.64514342032E+03  0.64514342032E+03  0.00000000000E+00 0. -1.
         21   -1    0    0  501  502 -0.00000000000E+00 -0.00000000000E+00 -0.95158633612E+02  0.95158633612E+02  0.00000000000E+00 0. -1.
         25    1    1    2    0    0 -0.15615790168E+03 -0.91429689333E+02  0.10452014217E+03  0.24350387773E+03  0.12500000000E+03 0.  0.
         25    1    1    2    0    0  0.15615790168E+03  0.91429689333E+02  0.44546464453E+03  0.49679817620E+03  0.12500000000E+03 0.  0.
</event>
<event>
 4    0  0.2168146E-002  0.2710512E+03  0.7546771E-02  0.1100680E+00
         21   -1    0    0  502  501  0.00000000000E+00  0.00000000000E+00  0.18203639243E+03  0.18203639243E+03  0.00000000000E+00 0.  1.
         21   -1    0    0  501  502 -0.00000000000E+00 -0.00000000000E+00 -0.40359362556E+03  0.40359362556E+03  0.00000000000E+00 0.  1.
         25    1    1    2    0    0  0.49185795720E+01  0.17770467180E+03 -0.28577490167E+03  0.35902010700E+03  0.12500000000E+03 0.  0.
         25    1    1    2    0    0 -0.49185795720E+01 -0.17770467180E+03  0.64217668536E+02  0.22660991099E+03  0.12500000000E+03 0.  0.
</event>
<event>
 4    0  0.2168146E-002  0.2338390E+03  0.7546771E-02  0.1123966E+00
         21   -1    0    0  502  501  0.00000000000E+00  0.00000000000E+00  0.20052175746E+03  0.20052175746E+03  0.00000000000E+00 0.  1.
         21   -1    0    0  501  502 -0.00000000000E+00 -0.00000000000E+00 -0.27269206038E+03  0.27269206038E+03  0.00000000000E+00 0.  1.
         25    1    1    2    0    0 -0.97512618035E+02  0.16449785811E+03  0.14379387684E+02  0.22891051262E+03  0.12500000000E+03 0.  0.
         25    1    1    2    0    0  0.97512618035E+02 -0.16449785811E+03 -0.86549690602E+02  0.24430330522E+03  0.12500000000E+03 0.  0.
</event>
<event>
 4    0  0.2168146E-002  0.4125607E+03  0.7546771E-02  0.1039515E+00
         21   -1    0    0  502  501  0.00000000000E+00  0.00000000000E+00  0.33482872740E+03  0.33482872740E+03  0.00000000000E+00 0.  1.
         21   -1    0    0  501  502 -0.00000000000E+00 -0.00000000000E+00 -0.50833853581E+03  0.50833853581E+03  0.00000000000E+00 0.  1.
         25    1    1    2    0    0  0.15185287084E+03  0.20663084054E+03  0.21779979182E+03  0.35891133719E+03  0.12500000000E+03 0.  0.
         25    1    1    2    0    0 -0.15185287084E+03 -0.20663084054E+03 -0.39130960023E+03  0.48425592601E+03  0.12500000000E+03 0.  0.
</event>
<event>
 4    0  0.2168146E-002  0.1946045E+03  0.7546771E-02  0.1154373E+00
         21   -1    0    0  502  501  0.00000000000E+00  0.00000000000E+00  0.20293465490E+03  0.20293465490E+03  0.00000000000E+00 0.  1.
         21   -1    0    0  501  502 -0.00000000000E+00 -0.00000000000E+00 -0.18661619815E+03  0.18661619815E+03  0.00000000000E+00 0.  1.
         25    1    1    2    0    0  0.11551865414E+02 -0.70095550646E+02  0.13941964160E+03  0.20027398303E+03  0.12500000000E+03 0.  0.
         25    1    1    2    0    0 -0.11551865414E+02  0.70095550646E+02 -0.12310118485E+03  0.18927687003E+03  0.12500000000E+03 0.  0.
</event>
<event>
 4    0  0.2168146E-002  0.3810733E+03  0.7546771E-02  0.1050538E+00
         21   -1    0    0  502  501  0.00000000000E+00  0.00000000000E+00  0.10002454288E+04  0.10002454288E+04  0.00000000000E+00 0.  1.
         21   -1    0    0  501  502 -0.00000000000E+00 -0.00000000000E+00 -0.14518120278E+03  0.14518120278E+03  0.00000000000E+00 0.  1.
         25    1    1    2    0    0 -0.25504968016E+03 -0.20637583123E+01  0.45733823185E+02  0.28769981062E+03  0.12500000000E+03 0.  0.
         25    1    1    2    0    0  0.25504968016E+03  0.20637583123E+01  0.80933040288E+03  0.85772682101E+03  0.12500000000E+03 0.  0.
</event>
<event>
 4    0  0.2168146E-002  0.1747501E+03  0.7546771E-02  0.1172983E+00
         21   -1    0    0  502  501  0.00000000000E+00  0.00000000000E+00  0.11373914618E+04  0.11373914618E+04  0.00000000000E+00 0. -1.
         21   -1    0    0  501  502 -0.00000000000E+00 -0.00000000000E+00 -0.26848806210E+02  0.26848806210E+02  0.00000000000E+00 0. -1.
         25    1    1    2    0    0  0.98288759633E+02 -0.72295761381E+02  0.57200871425E+03  0.59808555121E+03  0.12500000000E+03 0.  0.
         25    1    1    2    0    0 -0.98288759633E+02  0.72295761381E+02  0.53853394133E+03  0.56615471679E+03  0.12500000000E+03 0.  0.
</event>
<event>
 4    0  0.2168146E-002  0.1624927E+03  0.7546771E-02  0.1185911E+00
         21   -1    0    0  502  501  0.00000000000E+00  0.00000000000E+00  0.44419467072E+02  0.44419467072E+02  0.00000000000E+00 0.  1.
         21   -1    0    0  501  502 -0.00000000000E+00 -0.00000000000E+00 -0.59442101354E+03  0.59442101354E+03  0.00000000000E+00 0.  1.
         25    1    1    2    0    0 -0.43489993236E+02 -0.42433483374E+02 -0.10951663824E+03  0.17694878941E+03  0.12500000000E+03 0.  0.
         25    1    1    2    0    0  0.43489993236E+02  0.42433483374E+02 -0.44048490823E+03  0.46189169120E+03  0.12500000000E+03 0.  0.
</event>
<event>
 4    0  0.2168146E-002  0.1862395E+03  0.7546771E-02  0.1161897E+00
         21   -1    0    0  502  501  0.00000000000E+00  0.00000000000E+00  0.11763863973E+04  0.11763863973E+04  0.00000000000E+00 0. -1.
         21   -1    0    0  501  502 -0.00000000000E+00 -0.00000000000E+00 -0.29484486733E+02  0.29484486733E+02  0.00000000000E+00 0. -1.
         25    1    1    2    0    0  0.52174542234E+01  0.17150413759E+02  0.13028151035E+03  0.18143767651E+03  0.12500000000E+03 0.  0.
         25    1    1    2    0    0 -0.52174542234E+01 -0.17150413759E+02  0.10166204002E+04  0.10244332075E+04  0.12500000000E+03 0.  0.
</event>
<event>
 4    0  0.2168146E-002  0.1630056E+03  0.7546771E-02  0.1185345E+00
         21   -1    0    0  502  501  0.00000000000E+00  0.00000000000E+00  0.11374603214E+03  0.11374603214E+03  0.00000000000E+00 0. -1.
         21   -1    0    0  501  502 -0.00000000000E+00 -0.00000000000E+00 -0.23359794613E+03  0.23359794613E+03  0.00000000000E+00 0. -1.
         25    1    1    2    0    0  0.97695136314E+02 -0.21099344976E+02 -0.26978023144E+02  0.16230322163E+03  0.12500000000E+03 0.  0.
         25    1    1    2    0    0 -0.97695136314E+02  0.21099344976E+02 -0.92873890843E+02  0.18504075664E+03  0.12500000000E+03 0.  0.
</event>
<event>
 4    0  0.2168146E-002  0.2019759E+03  0.7546771E-02  0.1148083E+00
         21   -1    0    0  502  501  0.00000000000E+00  0.00000000000E+00  0.29562118119E+03  0.29562118119E+03  0.00000000000E+00 0.  1.
         21   -1    0    0  501  502 -0.00000000000E+00 -0.00000000000E+00 -0.13799505556E+03  0.13799505556E+03  0.00000000000E+00 0.  1.
         25    1    1    2    0    0  0.69347598278E+02  0.14234322230E+03  0.89470878571E+02  0.22068239720E+03  0.12500000000E+03 0.  0.
         25    1    1    2    0    0 -0.69347598278E+02 -0.14234322230E+03  0.68155247063E+02  0.21293383955E+03  0.12500000000E+03 0.  0.
</event>
<event>
 4    0  0.2168146E-002  0.2528303E+03  0.7546771E-02  0.1111529E+00
         21   -1    0    0  502  501  0.00000000000E+00  0.00000000000E+00  0.44440675574E+02  0.44440675574E+02  0.00000000000E+00 0. -1.
         21   -1    0    0  501  502 -0.00000000000E+00 -0.00000000000E+00 -0.14383931072E+04  0.14383931072E+04  0.00000000000E+00 0. -1.
         25    1    1    2    0    0 -0.13020519706E+03  0.11994670288E+03 -0.10788457315E+04  0.11003970725E+04  0.12500000000E+03 0.  0.
         25    1    1    2    0    0  0.13020519706E+03 -0.11994670288E+03 -0.31510670014E+03  0.38243671025E+03  0.12500000000E+03 0.  0.
</event>
<event>
 4    0  0.2168146E-002  0.2649369E+03  0.7546771E-02  0.1104213E+00
         21   -1    0    0  502  501  0.00000000000E+00  0.00000000000E+00  0.41549832954E+03  0.41549832954E+03  0.00000000000E+00 0. -1.
         21   -1    0    0  501  502 -0.00000000000E+00 -0.00000000000E+00 -0.16893347095E+03  0.16893347095E+03  0.00000000000E+00 0. -1.
         25    1    1    2    0    0 -0.48917803045E+02 -0.22066417026E+03  0.58208042286E+02  0.26476178666E+03  0.12500000000E+03 0.  0.
         25    1    1    2    0    0  0.48917803045E+02  0.22066417026E+03  0.18835681631E+03  0.31967001383E+03  0.12500000000E+03 0.  0.
</event>
<event>
 4    0  0.2168146E-002  0.2047138E+03  0.7546771E-02  0.1145822E+00
         21   -1    0    0  502  501  0.00000000000E+00  0.00000000000E+00  0.19354049020E+03  0.19354049020E+03  0.00000000000E+00 0. -1.
         21   -1    0    0  501  502 -0.00000000000E+00 -0.00000000000E+00 -0.21653218218E+03  0.21653218218E+03  0.00000000000E+00 0. -1.
         25    1    1    2    0    0 -0.13056179366E+03 -0.66538841565E+02 -0.80951660049E+02  0.20893054029E+03  0.12500000000E+03 0.  0.
         25    1    1    2    0    0  0.13056179366E+03  0.66538841565E+02  0.57959968065E+02  0.20114213209E+03  0.12500000000E+03 0.  0.
</event>
<event>
 4    0  0.2168146E-002  0.3003190E+03  0.7546771E-02  0.1085081E+00
         21   -1    0    0  502  501  0.00000000000E+00  0.00000000000E+00  0.15168153611E+03  0.15168153611E+03  0.00000000000E+00 0. -1.
         21   -1    0    0  501  502 -0.00000000000E+00 -0.00000000000E+00 -0.59461095416E+03  0.59461095416E+03  0.00000000000E+00 0. -1.
         25    1    1    2    0    0  0.11067630420E+03 -0.82101138175E+02  0.71450884509E+02  0.19929894656E+03  0.12500000000E+03 0.  0.
         25    1    1    2    0    0 -0.11067630420E+03  0.82101138175E+02 -0.51438030256E+03  0.54699354371E+03  0.12500000000E+03 0.  0.
</event>
<event>
 4    0  0.2168146E-002  0.1952039E+03  0.7546771E-02  0.1153850E+00
         21   -1    0    0  502  501  0.00000000000E+00  0.00000000000E+00  0.22157959269E+03  0.22157959269E+03  0.00000000000E+00 0.  1.
         21   -1    0    0  501  502 -0.00000000000E+00 -0.00000000000E+00 -0.17196782207E+03  0.17196782207E+03  0.00000000000E+00 0.  1.
         25    1    1    2    0    0 -0.39246704432E+02  0.10809939498E+02 -0.12065425414E+03  0.17843656476E+03  0.12500000000E+03 0.  0.
         25    1    1    2    0    0  0.39246704432E+02 -0.10809939498E+02  0.17026602476E+03  0.21511085000E+03  0.12500000000E+03 0.  0.
</event>
<event>
 4    0  0.2168146E-002  0.1930958E+03  0.7546771E-02  0.1155698E+00
         21   -1    0    0  502  501  0.00000000000E+00  0.00000000000E+00  0.39824071525E+04  0.39824071525E+04  0.00000000000E+00 0.  1.
         21   -1    0    0  501  502 -0.00000000000E+00 -0.00000000000E+00 -0.93626712696E+01  0.93626712696E+01  0.00000000000E+00 0.  1.
         25    1    1    2    0    0 -0.30131673614E+02 -0.18312921262E+02  0.50957132830E+03  0.52586235791E+03  0.12500000000E+03 0.  0.
         25    1    1    2    0    0  0.30131673614E+02  0.18312921262E+02  0.34634731530E+04  0.34659074659E+04  0.12500000000E+03 0.  0.
</event>
<event>
 4    0  0.2168146E-002  0.1820171E+03  0.7546771E-02  0.1165865E+00
         21   -1    0    0  502  501  0.00000000000E+00  0.00000000000E+00  0.13723764848E+03  0.13723764848E+03  0.00000000000E+00 0.  1.
         21   -1    0    0  501  502 -0.00000000000E+00 -0.00000000000E+00 -0.24140764584E+03  0.24140764584E+03  0.00000000000E+00 0.  1.
         25    1    1    2    0    0 -0.11122788154E+03  0.50866530133E+02  0.39989274570E+00  0.17488340526E+03  0.12500000000E+03 0.  0.
         25    1    1    2    0    0  0.11122788154E+03 -0.50866530133E+02 -0.10456989010E+03  0.20376188907E+03  0.12500000000E+03 0.  0.
</event>
<event>
 4    0  0.2168146E-002  0.2004636E+03  0.7546771E-02  0.1149348E+00
         21   -1    0    0  502  501  0.00000000000E+00  0.00000000000E+00  0.63561654605E+03  0.63561654605E+03  0.00000000000E+00 0.  1.
         21   -1    0    0  501  502 -0.00000000000E+00 -0.00000000000E+00 -0.63223086507E+02  0.63223086507E+02  0.00000000000E+00 0.  1.
         25    1    1    2    0    0  0.12832712145E+03 -0.54959765469E+02  0.41033648061E+03  0.45109805280E+03  0.12500000000E+03 0.  0.
         25    1    1    2    0    0 -0.12832712145E+03  0.54959765469E+02  0.16205697893E+03  0.24774157976E+03  0.12500000000E+03 0.  0.
</event>
<event>
 4    0  0.2168146E-002  0.1671706E+03  0.7546771E-02  0.1180831E+00
         21   -1    0    0  502  501  0.00000000000E+00  0.00000000000E+00  0.59185245544E+03  0.59185245544E+03  0.00000000000E+00 0.  1.
         21   -1    0    0  501  502 -0.00000000000E+00 -0.00000000000E+00 -0.47217855966E+02  0.47217855966E+02  0.00000000000E+00 0.  1.
         25    1    1    2    0    0  0.25836574808E+02 -0.45163297605E+02  0.45973268695E+03  0.47925608551E+03  0.12500000000E+03 0.  0.
         25    1    1    2    0    0 -0.25836574808E+02  0.45163297605E+02  0.84901912524E+02  0.15981422590E+03  0.12500000000E+03 0.  0.
</event>
<event>
 4    0  0.2168146E-002  0.2327792E+03  0.7546771E-02  0.1124699E+00
         21   -1    0    0  502  501  0.00000000000E+00  0.00000000000E+00  0.11875563798E+04  0.11875563798E+04  0.00000000000E+00 0.  1.
         21   -1    0    0  501  502 -0.00000000000E+00 -0.00000000000E+00 -0.45628293261E+02  0.45628293261E+02  0.00000000000E+00 0.  1.
         25    1    1    2    0    0 -0.40177492532E+02 -0.18414230015E+03  0.71697562682E+03  0.75179895388E+03  0.12500000000E+03 0.  0.
         25    1    1    2    0    0  0.40177492532E+02  0.18414230015E+03  0.42495245976E+03  0.48138571921E+03  0.12500000000E+03 0.  0.
</event>
<event>
 4    0  0.2168146E-002  0.2765949E+03  0.7546771E-02  0.1097563E+00
         21   -1    0    0  502  501  0.00000000000E+00  0.00000000000E+00  0.40869701559E+03  0.40869701559E+03  0.00000000000E+00 0.  1.
         21   -1    0    0  501  502 -0.00000000000E+00 -0.00000000000E+00 -0.18719182437E+03  0.18719182437E+03  0.00000000000E+00 0.  1.
         25    1    1    2    0    0 -0.18392276724E+03  0.90485650618E+02  0.25870218522E+03  0.35294058695E+03  0.12500000000E+03 0.  0.
         25    1    1    2    0    0  0.18392276724E+03 -0.90485650618E+02 -0.37196993992E+02  0.24294825301E+03  0.12500000000E+03 0.  0.
</event>
<event>
 4    0  0.2168146E-002  0.2664640E+03  0.7546771E-02  0.1103321E+00
         21   -1    0    0  502  501  0.00000000000E+00  0.00000000000E+00  0.58216833988E+02  0.58216833988E+02  0.00000000000E+00 0.  1.
         21   -1    0    0  501  502 -0.00000000000E+00 -0.00000000000E+00 -0.12196307797E+04  0.12196307797E+04  0.00000000000E+00 0.  1.
         25    1    1    2    0    0 -0.15331155487E+03 -0.12643631325E+03 -0.88293723069E+03  0.91361574390E+03  0.12500000000E+03 0.  0.
         25    1    1    2    0    0  0.15331155487E+03  0.12643631325E+03 -0.27847671505E+03  0.36423186982E+03  0.12500000000E+03 0.  0.
</event>
<event>
 4    0  0.2168146E-002  0.6404778E+03  0.7546771E-02  0.9824813E-01
         21   -1    0    0  502  501  0.00000000000E+00  0.00000000000E+00  0.16955579086E+04  0.16955579086E+04  0.00000000000E+00 0.  1.
         21   -1    0    0  501  502 -0.00000000000E+00 -0.00000000000E+00 -0.24193322423E+03  0.24193322423E+03  0.00000000000E+00 0.  1.
         25    1    1    2    0    0 -0.21222022479E+03  0.28970842239E+03 -0.52721069476E+02  0.38389178811E+03  0.12500000000E+03 0.  0.
         25    1    1    2    0    0  0.21222022479E+03 -0.28970842239E+03  0.15063457538E+04  0.15535993447E+04  0.12500000000E+03 0.  0.
</event>
<event>
 4    0  0.2168146E-002  0.3103790E+03  0.7546771E-02  0.1080164E+00
         21   -1    0    0  502  501  0.00000000000E+00  0.00000000000E+00  0.16367220575E+03  0.16367220575E+03  0.00000000000E+00 0.  1.
         21   -1    0    0  501  502 -0.00000000000E+00 -0.00000000000E+00 -0.58858569560E+03  0.58858569560E+03  0.00000000000E+00 0.  1.
         25    1    1    2    0    0 -0.25560306388E+03  0.91310324676E+02 -0.31413286648E+03  0.43356079096E+03  0.12500000000E+03 0.  0.
         25    1    1    2    0    0  0.25560306388E+03 -0.91310324676E+02 -0.11078062337E+03  0.31869711039E+03  0.12500000000E+03 0.  0.
</event>
<event>
 4    0  0.2168146E-002  0.2150479E+03  0.7546771E-02  0.1137630E+00
         21   -1    0    0  502  501  0.00000000000E+00  0.00000000000E+00  0.20774555650E+03  0.20774555650E+03  0.00000000000E+00 0.  1.
         21   -1    0    0  501  502 -0.00000000000E+00 -0.00000000000E+00 -0.22260685585E+03  0.22260685585E+03  0.00000000000E+00 0.  1.
         25    1    1    2    0    0 -0.58915162980E+02  0.30102104750E+02 -0.16952563780E+03  0.22077380961E+03  0.12500000000E+03 0.  0.
         25    1    1    2    0    0  0.58915162980E+02 -0.30102104750E+02  0.15466433845E+03  0.20957860274E+03  0.12500000000E+03 0.  0.
</event>
<event>
 4    0  0.2168146E-002  0.1610484E+03  0.7546771E-02  0.1187518E+00
         21   -1    0    0  502  501  0.00000000000E+00  0.00000000000E+00  0.26627401948E+02  0.26627401948E+02  0.00000000000E+00 0. -1.
         21   -1    0    0  501  502 -0.00000000000E+00 -0.00000000000E+00 -0.97405655790E+03  0.97405655790E+03  0.00000000000E+00 0. -1.
         25    1    1    2    0    0  0.24161860919E+02  0.64457966249E+01 -0.16794918281E+03  0.21084893128E+03  0.12500000000E+03 0.  0.
         25    1    1    2    0    0 -0.24161860919E+02 -0.64457966249E+01 -0.77947997314E+03  0.78983502857E+03  0.12500000000E+03 0.  0.
</event>
<event>
 4    0  0.2168146E-002  0.2475592E+03  0.7546771E-02  0.1114857E+00
         21   -1    0    0  502  501  0.00000000000E+00  0.00000000000E+00  0.24339104074E+03  0.24339104074E+03  0.00000000000E+00 0.  1.
         21   -1    0    0  501  502 -0.00000000000E+00 -0.00000000000E+00 -0.25179876603E+03  0.25179876603E+03  0.00000000000E+00 0.  1.
         25    1    1    2    0    0 -0.13736269932E+03  0.56714466816E+02  0.14936149839E+03  0.24498754889E+03  0.12500000000E+03 0.  0.
         25    1    1    2    0    0  0.13736269932E+03 -0.56714466816E+02 -0.15776922367E+03  0.25020225788E+03  0.12500000000E+03 0.  0.
</event>
<event>
 4    0  0.2168146E-002  0.2593612E+03  0.7546771E-02  0.1107528E+00
         21   -1    0    0  502  501  0.00000000000E+00  0.00000000000E+00  0.54262720376E+03  0.54262720376E+03  0.00000000000E+00 0.  1.
         21   -1    0    0  501  502 -0.00000000000E+00 -0.00000000000E+00 -0.12396768147E+03  0.12396768147E+03  0.00000000000E+00 0.  1.
         25    1    1    2    0    0  0.12809712809E+03 -0.14771898077E+03  0.35816214855E+03  0.42677265161E+03  0.12500000000E+03 0.  0.
         25    1    1    2    0    0 -0.12809712809E+03  0.14771898077E+03  0.60497373738E+02  0.23982223361E+03  0.12500000000E+03 0.  0.
</event>
<event>
 4    0  0.2168146E-002  0.1745393E+03  0.7546771E-02  0.1173195E+00
         21   -1    0    0  502  501  0.00000000000E+00  0.00000000000E+00  0.97965211248E+03  0.97965211248E+03  0.00000000000E+00 0.  1.
         21   -1    0    0  501  502 -0.00000000000E+00 -0.00000000000E+00 -0.31096715186E+02  0.31096715186E+02  0.00000000000E+00 0.  1.
         25    1    1    2    0    0 -0.63728880322E+02 -0.97539681426E+02  0.57720376889E+03  0.60196723371E+03  0.12500000000E+03 0.  0.
         25    1    1    2    0    0  0.63728880322E+02  0.97539681426E+02  0.37135162841E+03  0.40878159396E+03  0.12500000000E+03 0.  0.
</event>
<event>
 4    0  0.2168146E-002  0.2566535E+03  0.7546771E-02  0.1109171E+00
         21   -1    0    0  502  501  0.00000000000E+00  0.00000000000E+00  0.23293570315E+03  0.23293570315E+03  0.00000000000E+00 0.  1.
         21   -1    0    0  501  502 -0.00000000000E+00 -0.00000000000E+00 -0.28278630323E+03  0.28278630323E+03  0.00000000000E+00 0.  1.
         25    1    1    2    0    0 -0.18648189240E+03  0.93634947623E+02  0.57331901385E+02  0.24990987681E+03  0.12500000000E+03 0.  0.
         25    1    1    2    0    0  0.18648189240E+03 -0.93634947623E+02 -0.10718250147E+03  0.26581212958E+03  0.12500000000E+03 0.  0.
</event>
<event>
 4    0  0.2168146E-002  0.2245729E+03  0.7546771E-02  0.1130519E+00
         21   -1    0    0  502  501  0.00000000000E+00  0.00000000000E+00  0.10973066320E+04  0.10973066320E+04  0.00000000000E+00 0.  1.
         21   -1    0    0  501  502 -0.00000000000E+00 -0.00000000000E+00 -0.45960718310E+02  0.45960718310E+02  0.00000000000E+00 0.  1.
         25    1    1    2    0    0  0.34242755586E+02  0.84718601543E+02  0.11163468075E+03  0.19088506936E+03  0.12500000000E+03 0.  0.
         25    1    1    2    0    0 -0.34242755586E+02 -0.84718601543E+02  0.93971123293E+03  0.95238228095E+03  0.12500000000E+03 0.  0.
</event>
<event>
 4    0  0.2168146E-002  0.2146210E+03  0.7546771E-02  0.1137958E+00
         21   -1    0    0  502  501  0.00000000000E+00  0.00000000000E+00  0.60080176467E+02  0.60080176467E+02  0.00000000000E+00 0. -1.
         21   -1    0    0  501  502 -0.00000000000E+00 -0.00000000000E+00 -0.76667819153E+03  0.76667819153E+03  0.00000000000E+00 0. -1.
         25    1    1    2    0    0 -0.17063925847E+03  0.36302316531E+02 -0.35090389192E+03  0.41133217244E+03  0.12500000000E+03 0.  0.
         25    1    1    2    0    0  0.17063925847E+03 -0.36302316531E+02 -0.35569412315E+03  0.41542619556E+03  0.12500000000E+03 0.  0.
</event>
<event>
 4    0  0.2168146E-002  0.1977625E+03  0.7546771E-02  0.1151641E+00
         21   -1    0    0  502  501  0.00000000000E+00  0.00000000000E+00  0.11301354202E+04  0.11301354202E+04  0.00000000000E+00 0. -1.
         21   -1    0    0  501  502 -0.00000000000E+00 -0.00000000000E+00 -0.34606490479E+02  0.34606490479E+02  0.00000000000E+00 0. -1.
         25    1    1    2    0    0  0.13701122210E+03 -0.68578527800E+02  0.53848427943E+03  0.57364223053E+03  0.12500000000E+03 0.  0.
         25    1    1    2    0    0 -0.13701122210E+03  0.68578527800E+02  0.55704465031E+03  0.59109968017E+03  0.12500000000E+03 0.  0.
</event>
<event>
 4    0  0.2168146E-002  0.2099584E+03  0.7546771E-02  0.1141599E+00
         21   -1    0    0  502  501  0.00000000000E+00  0.00000000000E+00  0.73877990081E+03  0.73877990081E+03  0.00000000000E+00 0.  1.
         21   -1    0    0  501  502 -0.00000000000E+00 -0.00000000000E+00 -0.59669388407E+02  0.59669388407E+02  0.00000000000E+00 0.  1.
         25    1    1    2    0    0  0.15769452313E+03  0.40509018638E+02  0.42349934426E+03  0.47062218159E+03  0.12500000000E+03 0.  0.
         25    1    1    2    0    0 -0.15769452313E+03 -0.40509018638E+02  0.25561116815E+03  0.32782710763E+03  0.12500000000E+03 0.  0.
</event>
<event>
 4    0  0.2168146E-002  0.1621280E+03  0.7546771E-02  0.1186315E+00
         21   -1    0    0  502  501  0.00000000000E+00  0.00000000000E+00  0.65911210448E+02  0.65911210448E+02  0.00000000000E+00 0. -1.
         21   -1    0    0  501  502 -0.00000000000E+00 -0.00000000000E+00 -0.39880152064E+03  0.39880152064E+03  0.00000000000E+00 0. -1.
         25    1    1    2    0    0 -0.20321267221E+02  0.10102984818E+03 -0.15732377302E+03  0.22582239411E+03  0.12500000000E+03 0.  0.
         25    1    1    2    0    0  0.20321267221E+02 -0.10102984818E+03 -0.17556653717E+03  0.23889033697E+03  0.12500000000E+03 0.  0.
</event>
<event>
 4    0  0.2168146E-002  0.1797653E+03  0.7546771E-02  0.1168030E+00
         21   -1    0    0  502  501  0.00000000000E+00  0.00000000000E+00  0.49015977278E+03  0.49015977278E+03  0.00000000000E+00 0.  1.
         21   -1    0    0  501  502 -0.00000000000E+00 -0.00000000000E+00 -0.65928603632E+02  0.65928603632E+02  0.00000000000E+00 0.  1.
         25    1    1    2    0    0  0.11346251977E+03 -0.21205546361E+02  0.30186632555E+03  0.34651363189E+03  0.12500000000E+03 0.  0.
         25    1    1    2    0    0 -0.11346251977E+03  0.21205546361E+02  0.12236484360E+03  0.20957474452E+03  0.12500000000E+03 0.  0.
</event>
<event>
 4    0  0.2168146E-002  0.2204663E+03  0.7546771E-02  0.1133536E+00
         21   -1    0    0  502  501  0.00000000000E+00  0.00000000000E+00  0.27540504529E+04  0.27540504529E+04  0.00000000000E+00 0.  1.
         21   -1    0    0  501  502 -0.00000000000E+00 -0.00000000000E+00 -0.17648687933E+02  0.17648687933E+02  0.00000000000E+00 0.  1.
         25    1    1    2    0    0  0.20298365015E+02 -0.12144475483E+03  0.22073168665E+04  0.22142794768E+04  0.12500000000E+03 0.  0.
         25    1    1    2    0    0 -0.20298365015E+02  0.12144475483E+03  0.52908489844E+03  0.55741966404E+03  0.12500000000E+03 0.  0.
</event>
<event>
 4    0  0.2168146E-002  0.2085660E+03  0.7546771E-02  0.1142707E+00
         21   -1    0    0  502  501  0.00000000000E+00  0.00000000000E+00  0.13520805593E+03  0.13520805593E+03  0.00000000000E+00 0.  1.
         21   -1    0    0  501  502 -0.00000000000E+00 -0.00000000000E+00 -0.32172462598E+03  0.32172462598E+03  0.00000000000E+00 0.  1.
         25    1    1    2    0    0 -0.48216078233E+02  0.15269583334E+03 -0.41483792059E+02  0.20733237259E+03  0.12500000000E+03 0.  0.
         25    1    1    2    0    0  0.48216078233E+02 -0.15269583334E+03 -0.14503277798E+03  0.24960030932E+03  0.12500000000E+03 0.  0.
</event>
<event>
 4    0  0.2168146E-002  0.2827875E+03  0.7546771E-02  0.1094176E+00
         21   -1    0    0  502  501  0.00000000000E+00  0.00000000000E+00  0.13626597750E+04  0.13626597750E+04  0.00000000000E+00 0. -1.
         21   -1    0    0  501  502 -0.00000000000E+00 -0.00000000000E+00 -0.58685786915E+02  0.58685786915E+02  0.00000000000E+00 0. -1.
         25    1    1    2    0    0  0.19836133103E+03  0.15625466308E+03  0.71256381304E+03  0.76624730018E+03  0.12500000000E+03 0.  0.
         25    1    1    2    0    0 -0.19836133103E+03 -0.15625466308E+03  0.59141017505E+03  0.65509826174E+03  0.12500000000E+03 0.  0.
</event>
<event>
 4    0  0.2168146E-002  0.2265083E+03  0.7546771E-02  0.1129122E+00
         21   -1    0    0  502  501  0.00000000000E+00  0.00000000000E+00  0.10654511027E+03  0.10654511027E+03  0.00000000000E+00 0. -1.
         21   -1    0    0  501  502 -0.00000000000E+00 -0.00000000000E+00 -0.48154254598E+03  0.48154254598E+03  0.00000000000E+00 0. -1.
         25    1    1    2    0    0  0.92934482277E+02  0.93657495198E+02 -0.12019182671E+02  0.18214830539E+03  0.12500000000E+03 0.  0.
         25    1    1    2    0    0 -0.92934482277E+02 -0.93657495198E+02 -0.36297825304E+03  0.40593935087E+03  0.12500000000E+03 0.  0.
</event>
<event>
 4    0  0.2168146E-002  0.1816808E+03  0.7546771E-02  0.1166186E+00
         21   -1    0    0  502  501  0.00000000000E+00  0.00000000000E+00  0.96463749161E+02  0.96463749161E+02  0.00000000000E+00 0.  1.
         21   -1    0    0  501  502 -0.00000000000E+00 -0.00000000000E+00 -0.34217944287E+03  0.34217944287E+03  0.00000000000E+00 0.  1.
         25    1    1    2    0    0  0.11142626221E+03 -0.48298434377E+02 -0.18481765125E+03  0.25402975197E+03  0.12500000000E+03 0.  0.
         25    1    1    2    0    0 -0.11142626221E+03  0.48298434377E+02 -0.60898042458E+02  0.18461344006E+03  0.12500000000E+03 0.  0.
</event>
<event>
 4    0  0.2168146E-002  0.1679984E+03  0.7546771E-02  0.1179951E+00
         21   -1    0    0  502  501  0.00000000000E+00  0.00000000000E+00  0.56793999635E+02  0.56793999635E+02  0.00000000000E+00 0. -1.
         21   -1    0    0  501  502 -0.00000000000E+00 -0.00000000000E+00 -0.49694456051E+03  0.49694456051E+03  0.00000000000E+00 0. -1.
         25    1    1    2    0    0 -0.69539281268E+02 -0.77868044082E+02 -0.28801250961E+03  0.33087059347E+03  0.12500000000E+03 0.  0.
         25    1    1    2    0    0  0.69539281268E+02  0.77868044082E+02 -0.15213805126E+03  0.22286796668E+03  0.12500000000E+03 0.  0.
</event>
<event>
 4    0  0.2168146E-002  0.2114862E+03  0.7546771E-02  0.1140394E+00
         21   -1    0    0  502  501  0.00000000000E+00  0.00000000000E+00  0.66119178941E+03  0.66119178941E+03  0.00000000000E+00 0. -1.
         21   -1    0    0  501  502 -0.00000000000E+00 -0.00000000000E+00 -0.67645119837E+02  0.67645119837E+02  0.00000000000E+00 0. -1.
         25    1    1    2    0    0 -0.11156680026E+03  0.63919368689E+02  0.10359377003E+03  0.20709781699E+03  0.12500000000E+03 0.  0.
         25    1    1    2    0    0  0.11156680026E+03 -0.63919368689E+02  0.48995289955E+03  0.52173909226E+03  0.12500000000E+03 0.  0.
</event>
<event>
 4    0  0.2168146E-002  0.2351799E+03  0.7546771E-02  0.1123046E+00
         21   -1    0    0  502  501  0.00000000000E+00  0.00000000000E+00  0.13131974595E+03  0.13131974595E+03  0.00000000000E+00 0. -1.
         21   -1    0    0  501  502 -0.00000000000E+00 -0.00000000000E+00 -0.42118238488E+03  0.42118238488E+03  0.00000000000E+00 0. -1.
         25    1    1    2    0    0 -0.15929640731E+03 -0.87658073073E+02 -0.24054190637E+03  0.32641184396E+03  0.12500000000E+03 0.  0.
         25    1    1    2    0    0  0.15929640731E+03  0.87658073073E+02 -0.49320732553E+02  0.22609028687E+03  0.12500000000E+03 0.  0.
</event>
<event>
 4    0  0.2168146E-002  0.3364299E+03  0.7546771E-02  0.1068327E+00
         21   -1    0    0  502  501  0.00000000000E+00  0.00000000000E+00  0.52238371488E+03  0.52238371488E+03  0.00000000000E+00 0.  1.
         21   -1    0    0  501  502 -0.00000000000E+00 -0.00000000000E+00 -0.21667041530E+03  0.21667041530E+03  0.00000000000E+00 0.  1.
         25    1    1    2    0    0  0.93507675912E-01 -0.24071950885E+02  0.49491022026E+03  0.51101917154E+03  0.12500000000E+03 0.  0.
         25    1    1    2    0    0 -0.93507675912E-01  0.24071950885E+02 -0.18919692068E+03  0.22803495863E+03  0.12500000000E+03 0.  0.
</event>
<event>
 4    0  0.2168146E-002  0.1902082E+03  0.7546771E-02  0.1158274E+00
         21   -1    0    0  502  501  0.00000000000E+00  0.00000000000E+00  0.20184805107E+02  0.20184805107E+02  0.00000000000E+00 0.  1.
         21   -1    0    0  501  502 -0.00000000000E+00 -0.00000000000E+00 -0.17923959653E+04  0.17923959653E+04  0.00000000000E+00 0.  1.
         25    1    1    2    0    0  0.76627438669E+02  0.11010722920E+03 -0.64508394620E+03  0.67063676004E+03  0.12500000000E+03 0.  0.
         25    1    1    2    0    0 -0.76627438669E+02 -0.11010722920E+03 -0.11271272140E+04  0.11419440104E+04  0.12500000000E+03 0.  0.
</event>
<event>
 4    0  0.2168146E-002  0.2364593E+03  0.7546771E-02  0.1122174E+00
         21   -1    0    0  502  501  0.00000000000E+00  0.00000000000E+00  0.25401172624E+03  0.25401172624E+03  0.00000000000E+00 0. -1.
         21   -1    0    0  501  502 -0.00000000000E+00 -0.00000000000E+00 -0.22011984560E+03  0.22011984560E+03  0.00000000000E+00 0. -1.
         25    1    1    2    0    0  0.11404842943E+03 -0.13842805470E+03  0.10728058557E+03  0.24352308848E+03  0.12500000000E+03 0.  0.
         25    1    1    2    0    0 -0.11404842943E+03  0.13842805470E+03 -0.73388704930E+02  0.23060848336E+03  0.12500000000E+03 0.  0.
</event>
<event>
 4    0  0.2168146E-002  0.1562485E+03  0.7546771E-02  0.1192998E+00
         21   -1    0    0  502  501  0.00000000000E+00  0.00000000000E+00  0.14639456488E+03  0.14639456488E+03  0.00000000000E+00 0.  1.
         21   -1    0    0  501  502 -0.00000000000E+00 -0.00000000000E+00 -0.16676571440E+03  0.16676571440E+03  0.00000000000E+00 0.  1.
         25    1    1    2    0    0 -0.76570048708E+02  0.53060513882E+02 -0.20705651614E+02  0.15726447311E+03  0.12500000000E+03 0.  0.
         25    1    1    2    0    0  0.76570048708E+02 -0.53060513882E+02  0.33450209382E+00  0.15589580618E+03  0.12500000000E+03 0.  0.
</event>
<event>
 4    0  0.2168146E-002  0.2263065E+03  0.7546771E-02  0.1129267E+00
         21   -1    0    0  502  501  0.00000000000E+00  0.00000000000E+00  0.53129751986E+03  0.53129751986E+03  0.00000000000E+00 0.  1.
         21   -1    0    0  501  502 -0.00000000000E+00 -0.00000000000E+00 -0.96395418144E+02  0.96395418144E+02  0.00000000000E+00 0.  1.
         25    1    1    2    0    0 -0.18063773598E+03  0.17271490155E+02  0.28899471823E+03  0.36341607449E+03  0.12500000000E+03 0.  0.
         25    1    1    2    0    0  0.18063773598E+03 -0.17271490155E+02  0.14590738349E+03  0.26427686352E+03  0.12500000000E+03 0.  0.
</event>
<event>
 4    0  0.2168146E-002  0.2019172E+03  0.7546771E-02  0.1148132E+00
         21   -1    0    0  502  501  0.00000000000E+00  0.00000000000E+00  0.38414171886E+02  0.38414171886E+02  0.00000000000E+00 0. -1.
         21   -1    0    0  501  502 -0.00000000000E+00 -0.00000000000E+00 -0.10613410930E+04  0.10613410930E+04  0.00000000000E+00 0. -1.
         25    1    1    2    0    0  0.12399336953E+03 -0.27605361420E+02 -0.76994777472E+03  0.79030436381E+03  0.12500000000E+03 0.  0.
         25    1    1    2    0    0 -0.12399336953E+03  0.27605361420E+02 -0.25297914642E+03  0.30945090110E+03  0.12500000000E+03 0.  0.
</event>
<event>
 4    0  0.2168146E-002  0.1967117E+03  0.7546771E-02  0.1152543E+00
         21   -1    0    0  502  501  0.00000000000E+00  0.00000000000E+00  0.21459559141E+03  0.21459559141E+03  0.00000000000E+00 0. -1.
         21   -1    0    0  501  502 -0.00000000000E+00 -0.00000000000E+00 -0.18031813186E+03  0.18031813186E+03  0.00000000000E+00 0. -1.
         25    1    1    2    0    0  0.41588512928E+02 -0.10012422702E+03  0.12391845802E+03  0.20672505770E+03  0.12500000000E+03 0.  0.
         25    1    1    2    0    0 -0.41588512928E+02  0.10012422702E+03 -0.89640998461E+02  0.18818866557E+03  0.12500000000E+03 0.  0.
</event>
<event>
 4    0  0.2168146E-002  0.1845294E+03  0.7546771E-02  0.1163490E+00
         21   -1    0    0  502  501  0.00000000000E+00  0.00000000000E+00  0.13314637986E+03  0.13314637986E+03  0.00000000000E+00 0.  1.
         21   -1    0    0  501  502 -0.00000000000E+00 -0.00000000000E+00 -0.25574182504E+03  0.25574182504E+03  0.00000000000E+00 0.  1.
         25    1    1    2    0    0 -0.62870480365E+02 -0.11305079929E+03 -0.10465351535E+03  0.20811184204E+03  0.12500000000E+03 0.  0.
         25    1    1    2    0    0  0.62870480365E+02  0.11305079929E+03 -0.17941929829E+02  0.18077636286E+03  0.12500000000E+03 0.  0.
</event>
<event>
 4    0  0.2168146E-002  0.3076356E+03  0.7546771E-02  0.1081485E+00
         21   -1    0    0  502  501  0.00000000000E+00  0.00000000000E+00  0.61912010509E+03  0.61912010509E+03  0.00000000000E+00 0.  1.
         21   -1    0    0  501  502 -0.00000000000E+00 -0.00000000000E+00 -0.15286156405E+03  0.15286156405E+03  0.00000000000E+00 0.  1.
         25    1    1    2    0    0  0.16619545616E+03  0.86078146418E+02  0.49627067326E+03  0.54492197430E+03  0.12500000000E+03 0.  0.
         25    1    1    2    0    0 -0.16619545616E+03 -0.86078146418E+02 -0.30012132221E+02  0.22705969484E+03  0.12500000000E+03 0.  0.
</event>
<event>
 4    0  0.2168146E-002  0.2120015E+03  0.7546771E-02  0.1139991E+00
         21   -1    0    0  502  501  0.00000000000E+00  0.00000000000E+00  0.96078815964E+02  0.96078815964E+02  0.00000000000E+00 0. -1.
         21   -1    0    0  501  502 -0.00000000000E+00 -0.00000000000E+00 -0.46778913787E+03  0.46778913787E+03  0.00000000000E+00 0. -1.
         25    1    1    2    0    0 -0.13322405418E+03 -0.69359963816E+02 -0.76513052496E+02  0.20985399781E+03  0.12500000000E+03 0.  0.
         25    1    1    2    0    0  0.13322405418E+03  0.69359963816E+02 -0.29519726941E+03  0.35401395603E+03  0.12500000000E+03 0.  0.
</event>
<event>
 4    0  0.2168146E-002  0.2196989E+03  0.7546771E-02  0.1134108E+00
         21   -1    0    0  502  501  0.00000000000E+00  0.00000000000E+00  0.53078658809E+02  0.53078658809E+02  0.00000000000E+00 0. -1.
         21   -1    0    0  501  502 -0.00000000000E+00 -0.00000000000E+00 -0.90935972523E+03  0.90935972523E+03  0.00000000000E+00 0. -1.
         25    1    1    2    0    0  0.26908647928E+02 -0.61071148801E+02 -0.79589136846E+03  0.80840697111E+03  0.12500000000E+03 0.  0.
         25    1    1    2    0    0 -0.26908647928E+02  0.61071148801E+02 -0.60389697960E+02  0.15403141293E+03  0.12500000000E+03 0.  0.
</event>
<event>
 4    0  0.2168146E-002  0.1780615E+03  0.7546771E-02  0.1169692E+00
         21   -1    0    0  502  501  0.00000000000E+00  0.00000000000E+00  0.28379260399E+03  0.28379260399E+03  0.00000000000E+00 0. -1.
         21   -1    0    0  501  502 -0.00000000000E+00 -0.00000000000E+00 -0.11172205137E+03  0.11172205137E+03  0.00000000000E+00 0. -1.
         25    1    1    2    0    0  0.85545584755E+02  0.93041472862E+02  0.97476696069E+02  0.20273497237E+03  0.12500000000E+03 0.  0.
         25    1    1    2    0    0 -0.85545584755E+02 -0.93041472862E+02  0.74593856549E+02  0.19277968300E+03  0.12500000000E+03 0.  0.
</event>
<event>
 4    0  0.2168146E-002  0.2295367E+03  0.7546771E-02  0.1126966E+00
         21   -1    0    0  502  501  0.00000000000E+00  0.00000000000E+00  0.81316156710E+03  0.81316156710E+03  0.00000000000E+00 0. -1.
         21   -1    0    0  501  502 -0.00000000000E+00 -0.00000000000E+00 -0.64792915597E+02  0.64792915597E+02  0.00000000000E+00 0. -1.
         25    1    1    2    0    0  0.15212205053E+03  0.70902758514E+02  0.19382722677E+03  0.28524079873E+03  0.12500000000E+03 0.  0.
         25    1    1    2    0    0 -0.15212205053E+03 -0.70902758514E+02  0.55454142473E+03  0.59271368397E+03  0.12500000000E+03 0.  0.
</event>
<event>
 4    0  0.2168146E-002  0.4867069E+03  0.7546771E-02  0.1017308E+00
         21   -1    0    0  502  501  0.00000000000E+00  0.00000000000E+00  0.15446594914E+04  0.15446594914E+04  0.00000000000E+00 0.  1.
         21   -1    0    0  501  502 -0.00000000000E+00 -0.00000000000E+00 -0.15335651969E+03  0.15335651969E+03  0.00000000000E+00 0.  1.
         25    1    1    2    0    0 -0.17206236654E+03 -0.34718417183E+03  0.23046311345E+03  0.46784672043E+03  0.12500000000E+03 0.  0.
         25    1    1    2    0    0  0.17206236654E+03  0.34718417183E+03  0.11608398583E+04  0.12301692907E+04  0.12500000000E+03 0.  0.
</event>
<event>
 4    0  0.2168146E-002  0.2299962E+03  0.7546771E-02  0.1126642E+00
         21   -1    0    0  502  501  0.00000000000E+00  0.00000000000E+00  0.54159922863E+03  0.54159922863E+03  0.00000000000E+00 0.  1.
         21   -1    0    0  501  502 -0.00000000000E+00 -0.00000000000E+00 -0.97670504273E+02  0.97670504273E+02  0.00000000000E+00 0.  1.
         25    1    1    2    0    0 -0.15270668045E+03 -0.70630930171E+02  0.90377152886E+02  0.22825662820E+03  0.12500000000E+03 0.  0.
         25    1    1    2    0    0  0.15270668045E+03  0.70630930171E+02  0.35355157147E+03  0.41101310471E+03  0.12500000000E+03 0.  0.
</event>
<event>
 4    0  0.2168146E-002  0.1855115E+03  0.7546771E-02  0.1162573E+00
         21   -1    0    0  502  501  0.00000000000E+00  0.00000000000E+00  0.95858147672E+03  0.95858147672E+03  0.00000000000E+00 0. -1.
         21   -1    0    0  501  502 -0.00000000000E+00 -0.00000000000E+00 -0.35901509330E+02  0.35901509330E+02  0.00000000000E+00 0. -1.
         25    1    1    2    0    0 -0.97809044299E+02 -0.69443372192E+02  0.63914705212E+03  0.66221065026E+03  0.12500000000E+03 0.  0.
         25    1    1    2    0    0  0.97809044299E+02  0.69443372192E+02  0.28353291527E+03  0.33227233579E+03  0.12500000000E+03 0.  0.
</event>
<event>
 4    0  0.2168146E-002  0.2825437E+03  0.7546771E-02  0.1094308E+00
         21   -1    0    0  502  501  0.00000000000E+00  0.00000000000E+00  0.29771500835E+02  0.29771500835E+02  0.00000000000E+00 0.  1.
         21   -1    0    0  501  502 -0.00000000000E+00 -0.00000000000E+00 -0.26814546016E+04  0.26814546016E+04  0.00000000000E+00 0.  1.
         25    1    1    2    0    0 -0.13826973951E+03  0.20665609963E+03 -0.10917427639E+04  0.11266554606E+04  0.12500000000E+03 0.  0.
         25    1    1    2    0    0  0.13826973951E+03 -0.20665609963E+03 -0.15599403368E+04  0.15845706418E+04  0.12500000000E+03 0.  0.
</event>
<event>
 4    0  0.2168146E-002  0.1932846E+03  0.7546771E-02  0.1155532E+00
         21   -1    0    0  502  501  0.00000000000E+00  0.00000000000E+00  0.14406421722E+03  0.14406421722E+03  0.00000000000E+00 0.  1.
         21   -1    0    0  501  502 -0.00000000000E+00 -0.00000000000E+00 -0.25932152911E+03  0.25932152911E+03  0.00000000000E+00 0.  1.
         25    1    1    2    0    0 -0.44462695171E+02  0.13405213941E+03 -0.13516220073E+02  0.18908885622E+03  0.12500000000E+03 0.  0.
         25    1    1    2    0    0  0.44462695171E+02 -0.13405213941E+03 -0.10174109182E+03  0.21429689010E+03  0.12500000000E+03 0.  0.
</event>
<event>
 4    0  0.2168146E-002  0.2607968E+03  0.7546771E-02  0.1106665E+00
         21   -1    0    0  502  501  0.00000000000E+00  0.00000000000E+00  0.16798874414E+03  0.16798874414E+03  0.00000000000E+00 0.  1.
         21   -1    0    0  501  502 -0.00000000000E+00 -0.00000000000E+00 -0.40487808336E+03  0.40487808336E+03  0.00000000000E+00 0.  1.
         25    1    1    2    0    0  0.10826943661E+03 -0.17683375850E+03 -0.11974513511E+02  0.24240634897E+03  0.12500000000E+03 0.  0.
         25    1    1    2    0    0 -0.10826943661E+03  0.17683375850E+03 -0.22491482571E+03  0.33046047853E+03  0.12500000000E+03 0.  0.
</event>
<event>
 4    0  0.2168146E-002  0.1730779E+03  0.7546771E-02  0.1174676E+00
         21   -1    0    0  502  501  0.00000000000E+00  0.00000000000E+00  0.90666898703E+02  0.90666898703E+02  0.00000000000E+00 0.  1.
         21   -1    0    0  501  502 -0.00000000000E+00 -0.00000000000E+00 -0.33039564891E+03  0.33039564891E+03  0.00000000000E+00 0.  1.
         25    1    1    2    0    0 -0.81332168887E+02 -0.80158100620E+02 -0.76163639299E+02  0.18565059316E+03  0.12500000000E+03 0.  0.
         25    1    1    2    0    0  0.81332168887E+02  0.80158100620E+02 -0.16356511091E+03  0.23541195445E+03  0.12500000000E+03 0.  0.
</event>
<event>
 4    0  0.2168146E-002  0.1545824E+03  0.7546771E-02  0.1194953E+00
         21   -1    0    0  502  501  0.00000000000E+00  0.00000000000E+00  0.66044352665E+03  0.66044352665E+03  0.00000000000E+00 0.  1.
         21   -1    0    0  501  502 -0.00000000000E+00 -0.00000000000E+00 -0.36181301122E+02  0.36181301122E+02  0.00000000000E+00 0.  1.
         25    1    1    2    0    0  0.55169025248E+02 -0.31399438617E+01  0.14937817979E+03  0.20246560496E+03  0.12500000000E+03 0.  0.
         25    1    1    2    0    0 -0.55169025248E+02  0.31399438617E+01  0.47488404574E+03  0.49415922282E+03  0.12500000000E+03 0.  0.
</event>
<event>
 4    0  0.2168146E-002  0.1640866E+03  0.7546771E-02  0.1184159E+00
         21   -1    0    0  502  501  0.00000000000E+00  0.00000000000E+00  0.50820526945E+03  0.50820526945E+03  0.00000000000E+00 0.  1.
         21   -1    0    0  501  502 -0.00000000000E+00 -0.00000000000E+00 -0.52979396162E+02  0.52979396162E+02  0.00000000000E+00 0.  1.
         25    1    1    2    0    0 -0.30102148565E+02  0.10052960523E+03  0.19863985612E+03  0.25708973787E+03  0.12500000000E+03 0.  0.
         25    1    1    2    0    0  0.30102148565E+02 -0.10052960523E+03  0.25658601716E+03  0.30409492774E+03  0.12500000000E+03 0.  0.
</event>
<event>
 4    0  0.2168146E-002  0.2116188E+03  0.7546771E-02  0.1140290E+00
         21   -1    0    0  502  501  0.00000000000E+00  0.00000000000E+00  0.75413662651E+03  0.75413662651E+03  0.00000000000E+00 0. -1.
         21   -1    0    0  501  502 -0.00000000000E+00 -0.00000000000E+00 -0.59382511427E+02  0.59382511427E+02  0.00000000000E+00 0. -1.
         25    1    1    2    0    0 -0.15496369250E+03 -0.39047190844E+02  0.23174356670E+03  0.30800732104E+03  0.12500000000E+03 0.  0.
         25    1    1    2    0    0  0.15496369250E+03  0.39047190844E+02  0.46301054838E+03  0.50551181690E+03  0.12500000000E+03 0.  0.
</event>
<event>
 4    0  0.2168146E-002  0.1800363E+03  0.7546771E-02  0.1167768E+00
         21   -1    0    0  502  501  0.00000000000E+00  0.00000000000E+00  0.67335135877E+02  0.67335135877E+02  0.00000000000E+00 0.  1.
         21   -1    0    0  501  502 -0.00000000000E+00 -0.00000000000E+00 -0.48136945900E+03  0.48136945900E+03  0.00000000000E+00 0.  1.
         25    1    1    2    0    0  0.78579495306E+02 -0.91950365228E+02 -0.27781525980E+03  0.32777419869E+03  0.12500000000E+03 0.  0.
         25    1    1    2    0    0 -0.78579495306E+02  0.91950365228E+02 -0.13621906333E+03  0.22093039619E+03  0.12500000000E+03 0.  0.
</event>
<event>
 4    0  0.2168146E-002  0.1888366E+03  0.7546771E-02  0.1159515E+00
         21   -1    0    0  502  501  0.00000000000E+00  0.00000000000E+00  0.28030769151E+02  0.28030769151E+02  0.00000000000E+00 0. -1.
         21   -1    0    0  501  502 -0.00000000000E+00 -0.00000000000E+00 -0.12721471196E+04  0.12721471196E+04  0.00000000000E+00 0. -1.
         25    1    1    2    0    0 -0.13458176244E+03 -0.39382703514E+02 -0.55574774859E+03  0.58663771459E+03  0.12500000000E+03 0.  0.
         25    1    1    2    0    0  0.13458176244E+03  0.39382703514E+02 -0.68836860190E+03  0.71354017420E+03  0.12500000000E+03 0.  0.
</event>
<event>
 4    0  0.2168146E-002  0.2434182E+03  0.7546771E-02  0.1117536E+00
         21   -1    0    0  502  501  0.00000000000E+00  0.00000000000E+00  0.10912692437E+03  0.10912692437E+03  0.00000000000E+00 0.  1.
         21   -1    0    0  501  502 -0.00000000000E+00 -0.00000000000E+00 -0.54296790805E+03  0.54296790805E+03  0.00000000000E+00 0.  1.
         25    1    1    2    0    0 -0.90795913972E+02  0.11516525732E+03 -0.17704117977E+02  0.19350806257E+03  0.12500000000E+03 0.  0.
         25    1    1    2    0    0  0.90795913972E+02 -0.11516525732E+03 -0.41613686570E+03  0.45858676985E+03  0.12500000000E+03 0.  0.
</event>
<event>
 4    0  0.2168146E-002  0.1597899E+03  0.7546771E-02  0.1188934E+00
         21   -1    0    0  502  501  0.00000000000E+00  0.00000000000E+00  0.22363323513E+03  0.22363323513E+03  0.00000000000E+00 0. -1.
         21   -1    0    0  501  502 -0.00000000000E+00 -0.00000000000E+00 -0.11417264549E+03  0.11417264549E+03  0.00000000000E+00 0. -1.
         25    1    1    2    0    0 -0.78381312635E+02 -0.48814592939E+02  0.94015818630E+02  0.18163278561E+03  0.12500000000E+03 0.  0.
         25    1    1    2    0    0  0.78381312635E+02  0.48814592939E+02  0.15444771014E+02  0.15617309501E+03  0.12500000000E+03 0.  0.
</event>
<event>
 4    0  0.2168146E-002  0.2050577E+03  0.7546771E-02  0.1145541E+00
         21   -1    0    0  502  501  0.00000000000E+00  0.00000000000E+00  0.34742474396E+03  0.34742474396E+03  0.00000000000E+00 0.  1.
         21   -1    0    0  501  502 -0.00000000000E+00 -0.00000000000E+00 -0.12102959935E+03  0.12102959935E+03  0.00000000000E+00 0.  1.
         25    1    1    2    0    0  0.94786198240E+02  0.12188490626E+03  0.17125402907E+03  0.26228476171E+03  0.12500000000E+03 0.  0.
         25    1    1    2    0    0 -0.94786198240E+02 -0.12188490626E+03  0.55141115544E+02  0.20616958160E+03  0.12500000000E+03 0.  0.
</event>
<event>
 4    0  0.2168146E-002  0.3216796E+03  0.7546771E-02  0.1074879E+00
         21   -1    0    0  502  501  0.00000000000E+00  0.00000000000E+00  0.62564423761E+03  0.62564423761E+03  0.00000000000E+00 0. -1.
         21   -1    0    0  501  502 -0.00000000000E+00 -0.00000000000E+00 -0.16539397790E+03  0.16539397790E+03  0.00000000000E+00 0. -1.
         25    1    1    2    0    0  0.86369593890E+02 -0.10639393422E+03 -0.93021296208E+02  0.20750262055E+03  0.12500000000E+03 0.  0.
         25    1    1    2    0    0 -0.86369593890E+02  0.10639393422E+03  0.55327155592E+03  0.58353559495E+03  0.12500000000E+03 0.  0.
</event>
<event>
 4    0  0.2168146E-002  0.3490413E+03  0.7546771E-02  0.1063009E+00
         21   -1    0    0  502  501  0.00000000000E+00  0.00000000000E+00  0.45441362949E+03  0.45441362949E+03  0.00000000000E+00 0.  1.
         21   -1    0    0  501  502 -0.00000000000E+00 -0.00000000000E+00 -0.26810337042E+03  0.26810337042E+03  0.00000000000E+00 0. -1.
         25    1    1    2    0    0 -0.12336530009E+03 -0.26489530608E+03  0.24248376140E+03  0.39976479959E+03  0.12500000000E+03 0.  0.
         25    1    1    2    0    0  0.12336530009E+03  0.26489530608E+03 -0.56173502333E+02  0.32275220032E+03  0.12500000000E+03 0.  0.
</event>
<event>
 4    0  0.2168146E-002  0.3399582E+03  0.7546771E-02  0.1066814E+00
         21   -1    0    0  502  501  0.00000000000E+00  0.00000000000E+00  0.46137295692E+03  0.46137295692E+03  0.00000000000E+00 0. -1.
         21   -1    0    0  501  502 -0.00000000000E+00 -0.00000000000E+00 -0.25049491165E+03  0.25049491165E+03  0.00000000000E+00 0. -1.
         25    1    1    2    0    0 -0.62089921247E+01 -0.31112187313E+03  0.16383841066E+03  0.37323370203E+03  0.12500000000E+03 0.  0.
         25    1    1    2    0    0  0.62089921247E+01  0.31112187313E+03  0.47039634609E+02  0.33863416654E+03  0.12500000000E+03 0.  0.
</event>
<event>
 4    0  0.2168146E-002  0.2233396E+03  0.7546771E-02  0.1131417E+00
         21   -1    0    0  502  501  0.00000000000E+00  0.00000000000E+00  0.68799349646E+03  0.68799349646E+03  0.00000000000E+00 0.  1.
         21   -1    0    0  501  502 -0.00000000000E+00 -0.00000000000E+00 -0.72501522339E+02  0.72501522339E+02  0.00000000000E+00 0.  1.
         25    1    1    2    0    0 -0.58653719686E+02  0.16098476568E+03  0.18857673350E+03  0.28380017271E+03  0.12500000000E+03 0.  0.
         25    1    1    2    0    0  0.58653719686E+02 -0.16098476568E+03  0.42691524063E+03  0.47669484609E+03  0.12500000000E+03 0.  0.
</event>
<event>
 4    0  0.2168146E-002  0.2103232E+03  0.7546771E-02  0.1141310E+00
         21   -1    0    0  502  501  0.00000000000E+00  0.00000000000E+00  0.29876699488E+03  0.29876699488E+03  0.00000000000E+00 0. -1.
         21   -1    0    0  501  502 -0.00000000000E+00 -0.00000000000E+00 -0.14806138240E+03  0.14806138240E+03  0.00000000000E+00 0. -1.
         25    1    1    2    0    0  0.13887063134E+03 -0.12275900674E+02 -0.26395935274E+02  0.18909652399E+03  0.12500000000E+03 0.  0.
         25    1    1    2    0    0 -0.13887063134E+03  0.12275900674E+02  0.17710154776E+03  0.25773185330E+03  0.12500000000E+03 0.  0.
</event>
<event>
 4    0  0.2168146E-002  0.1880811E+03  0.7546771E-02  0.1160204E+00
         21   -1    0    0  502  501  0.00000000000E+00  0.00000000000E+00  0.40671325137E+02  0.40671325137E+02  0.00000000000E+00 0.  1.
         21   -1    0    0  501  502 -0.00000000000E+00 -0.00000000000E+00 -0.86976476435E+03  0.86976476435E+03  0.00000000000E+00 0.  1.
         25    1    1    2    0    0  0.12613041475E+03  0.58467978067E+01 -0.56387177914E+03  0.59120169983E+03  0.12500000000E+03 0.  0.
         25    1    1    2    0    0 -0.12613041475E+03 -0.58467978067E+01 -0.26522166007E+03  0.31923438966E+03  0.12500000000E+03 0.  0.
</event>
<event>
 4    0  0.2168146E-002  0.1754817E+03  0.7546771E-02  0.1172249E+00
         21   -1    0    0  502  501  0.00000000000E+00  0.00000000000E+00  0.26895497105E+03  0.26895497105E+03  0.00000000000E+00 0. -1.
         21   -1    0    0  501  502 -0.00000000000E+00 -0.00000000000E+00 -0.11449435664E+03  0.11449435664E+03  0.00000000000E+00 0. -1.
         25    1    1    2    0    0 -0.86497753093E+02 -0.85627182328E+02  0.97814327184E+02  0.20001629495E+03  0.12500000000E+03 0.  0.
         25    1    1    2    0    0  0.86497753093E+02  0.85627182328E+02  0.56646287220E+02  0.18343303274E+03  0.12500000000E+03 0.  0.
</event>
<event>
 4    0  0.2168146E-002  0.2062894E+03  0.7546771E-02  0.1144539E+00
         21   -1    0    0  502  501  0.00000000000E+00  0.00000000000E+00  0.44515309350E+02  0.44515309350E+02  0.00000000000E+00 0.  1.
         21   -1    0    0  501  502 -0.00000000000E+00 -0.00000000000E+00 -0.95597037222E+03  0.95597037222E+03  0.00000000000E+00 0.  1.
         25    1    1    2    0    0  0.20453621969E+01 -0.94485689327E+02 -0.13039822758E+03  0.20386374555E+03  0.12500000000E+03 0.  0.
         25    1    1    2    0    0 -0.20453621969E+01  0.94485689327E+02 -0.78105683529E+03  0.79662193602E+03  0.12500000000E+03 0.  0.
</event>
<event>
 4    0  0.2168146E-002  0.2415799E+03  0.7546771E-02  0.1118745E+00
         21   -1    0    0  502  501  0.00000000000E+00  0.00000000000E+00  0.89039909579E+02  0.89039909579E+02  0.00000000000E+00 0.  1.
         21   -1    0    0  501  502 -0.00000000000E+00 -0.00000000000E+00 -0.65544617866E+03  0.65544617866E+03  0.00000000000E+00 0.  1.
         25    1    1    2    0    0  0.11531879256E+03  0.66615717657E+02 -0.39571373385E+02  0.18688759014E+03  0.12500000000E+03 0.  0.
         25    1    1    2    0    0 -0.11531879256E+03 -0.66615717657E+02 -0.52683489570E+03  0.55759849810E+03  0.12500000000E+03 0.  0.
</event>
<event>
 4    0  0.2168146E-002  0.5837237E+03  0.7546771E-02  0.9939762E-01
         21   -1    0    0  502  501  0.00000000000E+00  0.00000000000E+00  0.62769687749E+03  0.62769687749E+03  0.00000000000E+00 0. -1.
         21   -1    0    0  501  502 -0.00000000000E+00 -0.00000000000E+00 -0.54283099145E+03  0.54283099145E+03  0.00000000000E+00 0. -1.
         25    1    1    2    0    0 -0.14125563090E+03  0.64412140481E+02  0.59252099420E+03  0.62514654735E+03  0.12500000000E+03 0.  0.
         25    1    1    2    0    0  0.14125563090E+03 -0.64412140481E+02 -0.50765510815E+03  0.54538132159E+03  0.12500000000E+03 0.  0.
</event>
<event>
 4    0  0.2168146E-002  0.1964723E+03  0.7546771E-02  0.1152750E+00
         21   -1    0    0  502  501  0.00000000000E+00  0.00000000000E+00  0.26887480478E+03  0.26887480478E+03  0.00000000000E+00 0. -1.
         21   -1    0    0  501  502 -0.00000000000E+00 -0.00000000000E+00 -0.14356624922E+03  0.14356624922E+03  0.00000000000E+00 0.  1.
         25    1    1    2    0    0 -0.75690052042E+02  0.11838765743E+03  0.12232316180E+03  0.22434923072E+03  0.12500000000E+03 0.  0.
         25    1    1    2    0    0  0.75690052042E+02 -0.11838765743E+03  0.29853937522E+01  0.18809182328E+03  0.12500000000E+03 0.  0.
</event>
<event>
 4    0  0.2168146E-002  0.1841939E+03  0.7546771E-02  0.1163805E+00
         21   -1    0    0  502  501  0.00000000000E+00  0.00000000000E+00  0.47894807549E+03  0.47894807549E+03  0.00000000000E+00 0.  1.
         21   -1    0    0  501  502 -0.00000000000E+00 -0.00000000000E+00 -0.70837312755E+02  0.70837312755E+02  0.00000000000E+00 0.  1.
         25    1    1    2    0    0  0.46845635493E+02 -0.11823465577E+03  0.27290782938E+03  0.32600250110E+03  0.12500000000E+03 0.  0.
         25    1    1    2    0    0 -0.46845635493E+02  0.11823465577E+03  0.13520293336E+03  0.22378288714E+03  0.12500000000E+03 0.  0.
</event>
<event>
 4    0  0.2168146E-002  0.1912990E+03  0.7546771E-02  0.1157295E+00
         21   -1    0    0  502  501  0.00000000000E+00  0.00000000000E+00  0.10359487032E+04  0.10359487032E+04  0.00000000000E+00 0.  1.
         21   -1    0    0  501  502 -0.00000000000E+00 -0.00000000000E+00 -0.35325411555E+02  0.35325411555E+02  0.00000000000E+00 0.  1.
         25    1    1    2    0    0 -0.12466778757E+03 -0.68449330899E+02  0.42399196636E+03  0.46435068181E+03  0.12500000000E+03 0.  0.
         25    1    1    2    0    0  0.12466778757E+03  0.68449330899E+02  0.57663132530E+03  0.60692343296E+03  0.12500000000E+03 0.  0.
</event>
<event>
 4    0  0.2168146E-002  0.2275318E+03  0.7546771E-02  0.1128389E+00
         21   -1    0    0  502  501  0.00000000000E+00  0.00000000000E+00  0.20197292701E+03  0.20197292701E+03  0.00000000000E+00 0. -1.
         21   -1    0    0  501  502 -0.00000000000E+00 -0.00000000000E+00 -0.25632503755E+03  0.25632503755E+03  0.00000000000E+00 0. -1.
         25    1    1    2    0    0 -0.48564110859E+02 -0.12474012501E+03 -0.16314357637E+03  0.24527412860E+03  0.12500000000E+03 0.  0.
         25    1    1    2    0    0  0.48564110859E+02  0.12474012501E+03  0.10879146583E+03  0.21302383596E+03  0.12500000000E+03 0.  0.
</event>
<event>
 4    0  0.2168146E-002  0.1536050E+03  0.7546771E-02  0.1196112E+00
         21   -1    0    0  502  501  0.00000000000E+00  0.00000000000E+00  0.75619495100E+02  0.75619495100E+02  0.00000000000E+00 0.  1.
         21   -1    0    0  501  502 -0.00000000000E+00 -0.00000000000E+00 -0.31201594372E+03  0.31201594372E+03  0.00000000000E+00 0.  1.
         25    1    1    2    0    0  0.65906528857E+02  0.42150337428E+02 -0.17245777880E+03  0.22690748546E+03  0.12500000000E+03 0.  0.
         25    1    1    2    0    0 -0.65906528857E+02 -0.42150337428E+02 -0.63938669819E+02  0.16072795335E+03  0.12500000000E+03 0.  0.
</event>
<event>
 4    0  0.2168146E-002  0.2455187E+03  0.7546771E-02  0.1116170E+00
         21   -1    0    0  502  501  0.00000000000E+00  0.00000000000E+00  0.39429436352E+02  0.39429436352E+02  0.00000000000E+00 0.  1.
         21   -1    0    0  501  502 -0.00000000000E+00 -0.00000000000E+00 -0.15287930791E+04  0.15287930791E+04  0.00000000000E+00 0.  1.
         25    1    1    2    0    0  0.41842597310E+02  0.16843763446E+03 -0.11296828308E+04  0.11497522942E+04  0.12500000000E+03 0.  0.
         25    1    1    2    0    0 -0.41842597310E+02 -0.16843763446E+03 -0.35968081195E+03  0.41847022132E+03  0.12500000000E+03 0.  0.
</event>
<event>
 4    0  0.2168146E-002  0.3092814E+03  0.7546771E-02  0.1080691E+00
         21   -1    0    0  502  501  0.00000000000E+00  0.00000000000E+00  0.69879294424E+02  0.69879294424E+02  0.00000000000E+00 0.  1.
         21   -1    0    0  501  502 -0.00000000000E+00 -0.00000000000E+00 -0.13688598889E+04  0.13688598889E+04  0.00000000000E+00 0. -1.
         25    1    1    2    0    0  0.24968298964E+03  0.31757815637E+01 -0.95874645353E+03  0.99858472002E+03  0.12500000000E+03 0.  0.
         25    1    1    2    0    0 -0.24968298964E+03 -0.31757815637E+01 -0.34023414097E+03  0.44015446333E+03  0.12500000000E+03 0.  0.
</event>
<event>
 4    0  0.2168146E-002  0.2186803E+03  0.7546771E-02  0.1134871E+00
         21   -1    0    0  502  501  0.00000000000E+00  0.00000000000E+00  0.44282551156E+03  0.44282551156E+03  0.00000000000E+00 0. -1.
         21   -1    0    0  501  502 -0.00000000000E+00 -0.00000000000E+00 -0.10799080171E+03  0.10799080171E+03  0.00000000000E+00 0. -1.
         25    1    1    2    0    0 -0.98764995510E+02  0.17074306618E+02 -0.20019166937E+02  0.16146771606E+03  0.12500000000E+03 0.  0.
         25    1    1    2    0    0  0.98764995510E+02 -0.17074306618E+02  0.35485387678E+03  0.38934859721E+03  0.12500000000E+03 0.  0.
</event>
<event>
 4    0  0.2168146E-002  0.2187467E+03  0.7546771E-02  0.1134821E+00
         21   -1    0    0  502  501  0.00000000000E+00  0.00000000000E+00  0.29428769092E+03  0.29428769092E+03  0.00000000000E+00 0.  1.
         21   -1    0    0  501  502 -0.00000000000E+00 -0.00000000000E+00 -0.16259639595E+03  0.16259639595E+03  0.00000000000E+00 0.  1.
         25    1    1    2    0    0  0.45351822393E+01  0.58663408822E+02  0.24295960498E+03  0.27949299287E+03  0.12500000000E+03 0.  0.
         25    1    1    2    0    0 -0.45351822393E+01 -0.58663408822E+02 -0.11126831001E+03  0.17739109399E+03  0.12500000000E+03 0.  0.
</event>
<event>
 4    0  0.2168146E-002  0.1639438E+03  0.7546771E-02  0.1184315E+00
         21   -1    0    0  502  501  0.00000000000E+00  0.00000000000E+00  0.10146718193E+04  0.10146718193E+04  0.00000000000E+00 0.  1.
         21   -1    0    0  501  502 -0.00000000000E+00 -0.00000000000E+00 -0.26488928376E+02  0.26488928376E+02  0.00000000000E+00 0.  1.
         25    1    1    2    0    0 -0.65532024063E+02  0.62210692415E+02  0.67054406815E+03  0.68805447732E+03  0.12500000000E+03 0.  0.
         25    1    1    2    0    0  0.65532024063E+02 -0.62210692415E+02  0.31763882274E+03  0.35310627032E+03  0.12500000000E+03 0.  0.
</event>
<event>
 4    0  0.2168146E-002  0.1941742E+03  0.7546771E-02  0.1154749E+00
         21   -1    0    0  502  501  0.00000000000E+00  0.00000000000E+00  0.56541343548E+03  0.56541343548E+03  0.00000000000E+00 0.  1.
         21   -1    0    0  501  502 -0.00000000000E+00 -0.00000000000E+00 -0.66683286357E+02  0.66683286357E+02  0.00000000000E+00 0.  1.
         25    1    1    2    0    0  0.96095352125E+02 -0.70271603287E+02  0.10463919895E+03  0.20185830893E+03  0.12500000000E+03 0.  0.
         25    1    1    2    0    0 -0.96095352125E+02  0.70271603287E+02  0.39409095017E+03  0.43023841290E+03  0.12500000000E+03 0.  0.
</event>
<event>
 4    0  0.2168146E-002  0.2285645E+03  0.7546771E-02  0.1127654E+00
         21   -1    0    0  502  501  0.00000000000E+00  0.00000000000E+00  0.99631130368E+02  0.99631130368E+02  0.00000000000E+00 0.  1.
         21   -1    0    0  501  502 -0.00000000000E+00 -0.00000000000E+00 -0.52435170850E+03  0.52435170850E+03  0.00000000000E+00 0.  1.
         25    1    1    2    0    0  0.14213828712E+03 -0.69337138593E+02 -0.35941255795E+03  0.41208411552E+03  0.12500000000E+03 0.  0.
         25    1    1    2    0    0 -0.14213828712E+03  0.69337138593E+02 -0.65308020179E+02  0.21189872334E+03  0.12500000000E+03 0.  0.
</event>
<event>
 4    0  0.2168146E-002  0.2960911E+03  0.7546771E-02  0.1087211E+00
         21   -1    0    0  502  501  0.00000000000E+00  0.00000000000E+00  0.80290483352E+02  0.80290483352E+02  0.00000000000E+00 0.  1.
         21   -1    0    0  501  502 -0.00000000000E+00 -0.00000000000E+00 -0.10919094515E+04  0.10919094515E+04  0.00000000000E+00 0.  1.
         25    1    1    2    0    0  0.15595107796E+03  0.10446101115E+03 -0.88559781941E+03  0.91386067828E+03  0.12500000000E+03 0.  0.
         25    1    1    2    0    0 -0.15595107796E+03 -0.10446101115E+03 -0.12602114878E+03  0.25833925661E+03  0.12500000000E+03 0.  0.
</event>
<event>
 4    0  0.2168146E-002  0.1661776E+03  0.7546771E-02  0.1181894E+00
         21   -1    0    0  502  501  0.00000000000E+00  0.00000000000E+00  0.10004569099E+03  0.10004569099E+03  0.00000000000E+00 0. -1.
         21   -1    0    0  501  502 -0.00000000000E+00 -0.00000000000E+00 -0.27602396979E+03  0.27602396979E+03  0.00000000000E+00 0. -1.
         25    1    1    2    0    0  0.81191624403E+02 -0.72078097857E+02 -0.10409810474E+03  0.19557286999E+03  0.12500000000E+03 0.  0.
         25    1    1    2    0    0 -0.81191624403E+02  0.72078097857E+02 -0.71880174063E+02  0.18049679079E+03  0.12500000000E+03 0.  0.
</event>
<event>
 4    0  0.2168146E-002  0.1777619E+03  0.7546771E-02  0.1169987E+00
         21   -1    0    0  502  501  0.00000000000E+00  0.00000000000E+00  0.13479444057E+03  0.13479444057E+03  0.00000000000E+00 0.  1.
         21   -1    0    0  501  502 -0.00000000000E+00 -0.00000000000E+00 -0.23442576936E+03  0.23442576936E+03  0.00000000000E+00 0.  1.
         25    1    1    2    0    0 -0.11349201621E+03  0.43471821187E+02 -0.85851922451E+02  0.19433422130E+03  0.12500000000E+03 0.  0.
         25    1    1    2    0    0  0.11349201621E+03 -0.43471821187E+02 -0.13779406343E+02  0.17488598863E+03  0.12500000000E+03 0.  0.
</event>
<event>
 4    0  0.2168146E-002  0.1526640E+03  0.7546771E-02  0.1197237E+00
         21   -1    0    0  502  501  0.00000000000E+00  0.00000000000E+00  0.15603450207E+03  0.15603450207E+03  0.00000000000E+00 0. -1.
         21   -1    0    0  501  502 -0.00000000000E+00 -0.00000000000E+00 -0.14936628899E+03  0.14936628899E+03  0.00000000000E+00 0. -1.
         25    1    1    2    0    0 -0.31226079737E+02 -0.73631194284E+02 -0.32516785266E+02  0.15191761633E+03  0.12500000000E+03 0.  0.
         25    1    1    2    0    0  0.31226079737E+02  0.73631194284E+02  0.39184998344E+02  0.15348317472E+03  0.12500000000E+03 0.  0.
</event>
<event>
 4    0  0.2168146E-002  0.1890251E+03  0.7546771E-02  0.1159344E+00
         21   -1    0    0  502  501  0.00000000000E+00  0.00000000000E+00  0.40945772177E+03  0.40945772177E+03  0.00000000000E+00 0.  1.
         21   -1    0    0  501  502 -0.00000000000E+00 -0.00000000000E+00 -0.87262970844E+02  0.87262970844E+02  0.00000000000E+00 0.  1.
         25    1    1    2    0    0  0.96967493267E+02 -0.10200088583E+03  0.13839227313E+03  0.23363282458E+03  0.12500000000E+03 0.  0.
         25    1    1    2    0    0 -0.96967493267E+02  0.10200088583E+03  0.18380247780E+03  0.26308786803E+03  0.12500000000E+03 0.  0.
</event>
<event>
 4    0  0.2168146E-002  0.1560646E+03  0.7546771E-02  0.1193213E+00
         21   -1    0    0  502  501  0.00000000000E+00  0.00000000000E+00  0.10246423775E+03  0.10246423775E+03  0.00000000000E+00 0. -1.
         21   -1    0    0  501  502 -0.00000000000E+00 -0.00000000000E+00 -0.23770404385E+03  0.23770404385E+03  0.00000000000E+00 0. -1.
         25    1    1    2    0    0  0.29627250027E+02  0.75580053188E+02 -0.17191837984E+02  0.15003558804E+03  0.12500000000E+03 0.  0.
         25    1    1    2    0    0 -0.29627250027E+02 -0.75580053188E+02 -0.11804796812E+03  0.19013269356E+03  0.12500000000E+03 0.  0.
</event>
<event>
 4    0  0.2168146E-002  0.2225126E+03  0.7546771E-02  0.1132024E+00
         21   -1    0    0  502  501  0.00000000000E+00  0.00000000000E+00  0.16225163762E+03  0.16225163762E+03  0.00000000000E+00 0. -1.
         21   -1    0    0  501  502 -0.00000000000E+00 -0.00000000000E+00 -0.30515471097E+03  0.30515471097E+03  0.00000000000E+00 0. -1.
         25    1    1    2    0    0  0.29285185550E+02 -0.80002649968E+02  0.99938617721E+02  0.18130298786E+03  0.12500000000E+03 0.  0.
         25    1    1    2    0    0 -0.29285185550E+02  0.80002649968E+02 -0.24284169107E+03  0.28610336072E+03  0.12500000000E+03 0.  0.
</event>
<event>
 4    0  0.2168146E-002  0.1510064E+03  0.7546771E-02  0.1199242E+00
         21   -1    0    0  502  501  0.00000000000E+00  0.00000000000E+00  0.10517585620E+03  0.10517585620E+03  0.00000000000E+00 0. -1.
         21   -1    0    0  501  502 -0.00000000000E+00 -0.00000000000E+00 -0.21680764504E+03  0.21680764504E+03  0.00000000000E+00 0. -1.
         25    1    1    2    0    0 -0.46766984701E+02  0.23328699671E+02 -0.12690776125E+03  0.18563932490E+03  0.12500000000E+03 0.  0.
         25    1    1    2    0    0  0.46766984701E+02 -0.23328699671E+02  0.15275972408E+02  0.13634417633E+03  0.12500000000E+03 0.  0.
</event>
<event>
 4    0  0.2168146E-002  0.2484987E+03  0.7546771E-02  0.1114257E+00
         21   -1    0    0  502  501  0.00000000000E+00  0.00000000000E+00  0.49866895171E+02  0.49866895171E+02  0.00000000000E+00 0. -1.
         21   -1    0    0  501  502 -0.00000000000E+00 -0.00000000000E+00 -0.12383284604E+04  0.12383284604E+04  0.00000000000E+00 0. -1.
         25    1    1    2    0    0 -0.12652355546E+03  0.13709016417E+03 -0.31840144020E+03  0.38962340833E+03  0.12500000000E+03 0.  0.
         25    1    1    2    0    0  0.12652355546E+03 -0.13709016417E+03 -0.87006012508E+03  0.89857194729E+03  0.12500000000E+03 0.  0.
</event>
<event>
 4    0  0.2168146E-002  0.2437464E+03  0.7546771E-02  0.1117322E+00
         21   -1    0    0  502  501  0.00000000000E+00  0.00000000000E+00  0.60654471804E+03  0.60654471804E+03  0.00000000000E+00 0.  1.
         21   -1    0    0  501  502 -0.00000000000E+00 -0.00000000000E+00 -0.97952089961E+02  0.97952089961E+02  0.00000000000E+00 0.  1.
         25    1    1    2    0    0  0.63914748084E+02 -0.16062561059E+03  0.42468619612E+03  0.47525682212E+03  0.12500000000E+03 0.  0.
         25    1    1    2    0    0 -0.63914748084E+02  0.16062561059E+03  0.83906431959E+02  0.22923998588E+03  0.12500000000E+03 0.  0.
</event>
<event>
 4    0  0.2168146E-002  0.2820227E+03  0.7546771E-02  0.1094589E+00
         21   -1    0    0  502  501  0.00000000000E+00  0.00000000000E+00  0.10539161378E+04  0.10539161378E+04  0.00000000000E+00 0.  1.
         21   -1    0    0  501  502 -0.00000000000E+00 -0.00000000000E+00 -0.75467886964E+02  0.75467886964E+02  0.00000000000E+00 0.  1.
         25    1    1    2    0    0  0.72740204984E+02 -0.21734284221E+02  0.63921080581E+01  0.14638775761E+03  0.12500000000E+03 0.  0.
         25    1    1    2    0    0 -0.72740204984E+02  0.21734284221E+02  0.97205614274E+03  0.98299626712E+03  0.12500000000E+03 0.  0.
</event>
<event>
 4    0  0.2168146E-002  0.2402632E+03  0.7546771E-02  0.1119618E+00
         21   -1    0    0  502  501  0.00000000000E+00  0.00000000000E+00  0.35289609934E+03  0.35289609934E+03  0.00000000000E+00 0.  1.
         21   -1    0    0  501  502 -0.00000000000E+00 -0.00000000000E+00 -0.16357905637E+03  0.16357905637E+03  0.00000000000E+00 0.  1.
         25    1    1    2    0    0  0.12885400228E+03  0.73726686030E+02  0.24689683307E+03  0.31404143726E+03  0.12500000000E+03 0.  0.
         25    1    1    2    0    0 -0.12885400228E+03 -0.73726686030E+02 -0.57579790104E+02  0.20243371845E+03  0.12500000000E+03 0.  0.
</event>
<event>
 4    0  0.2168146E-002  0.1811820E+03  0.7546771E-02  0.1166664E+00
         21   -1    0    0  502  501  0.00000000000E+00  0.00000000000E+00  0.15917976282E+03  0.15917976282E+03  0.00000000000E+00 0.  1.
         21   -1    0    0  501  502 -0.00000000000E+00 -0.00000000000E+00 -0.20622539287E+03  0.20622539287E+03  0.00000000000E+00 0.  1.
         25    1    1    2    0    0 -0.82550323384E+02 -0.83354342755E+02 -0.82661470961E+02  0.19031663387E+03  0.12500000000E+03 0.  0.
         25    1    1    2    0    0  0.82550323384E+02  0.83354342755E+02  0.35615840916E+02  0.17508852181E+03  0.12500000000E+03 0.  0.
</event>
<event>
 4    0  0.2168146E-002  0.2570654E+03  0.7546771E-02  0.1108919E+00
         21   -1    0    0  502  501  0.00000000000E+00  0.00000000000E+00  0.18350663679E+03  0.18350663679E+03  0.00000000000E+00 0.  1.
         21   -1    0    0  501  502 -0.00000000000E+00 -0.00000000000E+00 -0.36011026266E+03  0.36011026266E+03  0.00000000000E+00 0.  1.
         25    1    1    2    0    0  0.10713001860E+02  0.10751339345E+03  0.11992855947E+03  0.20416110687E+03  0.12500000000E+03 0.  0.
         25    1    1    2    0    0 -0.10713001860E+02 -0.10751339345E+03 -0.29653218534E+03  0.33945579259E+03  0.12500000000E+03 0.  0.
</event>
<event>
 4    0  0.2168146E-002  0.2233996E+03  0.7546771E-02  0.1131374E+00
         21   -1    0    0  502  501  0.00000000000E+00  0.00000000000E+00  0.30790365858E+03  0.30790365858E+03  0.00000000000E+00 0.  1.
         21   -1    0    0  501  502 -0.00000000000E+00 -0.00000000000E+00 -0.16208766968E+03  0.16208766968E+03  0.00000000000E+00 0.  1.
         25    1    1    2    0    0 -0.86593186185E+02  0.15368963167E+03  0.13743438310E+02  0.21663971213E+03  0.12500000000E+03 0.  0.
         25    1    1    2    0    0  0.86593186185E+02 -0.15368963167E+03  0.13207255059E+03  0.25335161613E+03  0.12500000000E+03 0.  0.
</event>
<event>
 4    0  0.2168146E-002  0.1937047E+03  0.7546771E-02  0.1155162E+00
         21   -1    0    0  502  501  0.00000000000E+00  0.00000000000E+00  0.97528811297E+03  0.97528811297E+03  0.00000000000E+00 0.  1.
         21   -1    0    0  501  502 -0.00000000000E+00 -0.00000000000E+00 -0.38472218390E+02  0.38472218390E+02  0.00000000000E+00 0.  1.
         25    1    1    2    0    0 -0.37060626724E+02  0.14226759155E+03  0.51242410175E+03  0.54755549281E+03  0.12500000000E+03 0.  0.
         25    1    1    2    0    0  0.37060626724E+02 -0.14226759155E+03  0.42439179283E+03  0.46620483854E+03  0.12500000000E+03 0.  0.
</event>
<event>
 4    0  0.2168146E-002  0.2113792E+03  0.7546771E-02  0.1140478E+00
         21   -1    0    0  502  501  0.00000000000E+00  0.00000000000E+00  0.16475507572E+03  0.16475507572E+03  0.00000000000E+00 0. -1.
         21   -1    0    0  501  502 -0.00000000000E+00 -0.00000000000E+00 -0.27119738383E+03  0.27119738383E+03  0.00000000000E+00 0. -1.
         25    1    1    2    0    0 -0.86124255959E+02  0.12641792267E+03  0.24341081885E+02  0.19903860656E+03  0.12500000000E+03 0.  0.
         25    1    1    2    0    0  0.86124255959E+02 -0.12641792267E+03 -0.13078339000E+03  0.23691385298E+03  0.12500000000E+03 0.  0.
</event>
<event>
 4    0  0.2168146E-002  0.1886782E+03  0.7546771E-02  0.1159659E+00
         21   -1    0    0  502  501  0.00000000000E+00  0.00000000000E+00  0.27290816082E+02  0.27290816082E+02  0.00000000000E+00 0. -1.
         21   -1    0    0  501  502 -0.00000000000E+00 -0.00000000000E+00 -0.13044485671E+04  0.13044485671E+04  0.00000000000E+00 0. -1.
         25    1    1    2    0    0  0.84169898622E+02  0.79376598543E+02 -0.35210469284E+03  0.39113671645E+03  0.12500000000E+03 0.  0.
         25    1    1    2    0    0 -0.84169898622E+02 -0.79376598543E+02 -0.92505305813E+03  0.94060266670E+03  0.12500000000E+03 0.  0.
</event>
<event>
 4    0  0.2168146E-002  0.2281159E+03  0.7546771E-02  0.1127973E+00
         21   -1    0    0  502  501  0.00000000000E+00  0.00000000000E+00  0.13011885740E+03  0.13011885740E+03  0.00000000000E+00 0.  1.
         21   -1    0    0  501  502 -0.00000000000E+00 -0.00000000000E+00 -0.39991778155E+03  0.39991778155E+03  0.00000000000E+00 0.  1.
         25    1    1    2    0    0  0.91629460204E+02  0.87933192333E+02  0.30560671366E+02  0.18079590406E+03  0.12500000000E+03 0.  0.
         25    1    1    2    0    0 -0.91629460204E+02 -0.87933192333E+02 -0.30035959551E+03  0.34924073489E+03  0.12500000000E+03 0.  0.
</event>
<event>
 4    0  0.2168146E-002  0.2106389E+03  0.7546771E-02  0.1141061E+00
         21   -1    0    0  502  501  0.00000000000E+00  0.00000000000E+00  0.32140477388E+02  0.32140477388E+02  0.00000000000E+00 0. -1.
         21   -1    0    0  501  502 -0.00000000000E+00 -0.00000000000E+00 -0.13804627337E+04  0.13804627337E+04  0.00000000000E+00 0. -1.
         25    1    1    2    0    0 -0.14569772410E+03  0.85651362305E+02 -0.71911679602E+03  0.74921155156E+03  0.12500000000E+03 0.  0.
         25    1    1    2    0    0  0.14569772410E+03 -0.85651362305E+02 -0.62920546033E+03  0.66339165957E+03  0.12500000000E+03 0.  0.
</event>
<event>
 4    0  0.2168146E-002  0.2028493E+03  0.7546771E-02  0.1147357E+00
         21   -1    0    0  502  501  0.00000000000E+00  0.00000000000E+00  0.92078294558E+03  0.92078294558E+03  0.00000000000E+00 0. -1.
         21   -1    0    0  501  502 -0.00000000000E+00 -0.00000000000E+00 -0.44687880689E+02  0.44687880689E+02  0.00000000000E+00 0. -1.
         25    1    1    2    0    0  0.77223404732E+00 -0.34056666348E+02  0.66601646482E+02  0.14567509115E+03  0.12500000000E+03 0.  0.
         25    1    1    2    0    0 -0.77223404732E+00  0.34056666348E+02  0.80949341841E+03  0.81979573512E+03  0.12500000000E+03 0.  0.
</event>
<event>
 4    0  0.2168146E-002  0.2069668E+03  0.7546771E-02  0.1143991E+00
         21   -1    0    0  502  501  0.00000000000E+00  0.00000000000E+00  0.61313508096E+02  0.61313508096E+02  0.00000000000E+00 0.  1.
         21   -1    0    0  501  502 -0.00000000000E+00 -0.00000000000E+00 -0.69862700361E+03  0.69862700361E+03  0.00000000000E+00 0.  1.
         25    1    1    2    0    0 -0.71700963921E+01 -0.16171934235E+03 -0.37687868016E+03  0.42879726624E+03  0.12500000000E+03 0.  0.
         25    1    1    2    0    0  0.71700963921E+01  0.16171934235E+03 -0.26043481536E+03  0.33114324547E+03  0.12500000000E+03 0.  0.
</event>
<event>
 4    0  0.2168146E-002  0.2815843E+03  0.7546771E-02  0.1094827E+00
         21   -1    0    0  502  501  0.00000000000E+00  0.00000000000E+00  0.33537025656E+02  0.33537025656E+02  0.00000000000E+00 0. -1.
         21   -1    0    0  501  502 -0.00000000000E+00 -0.00000000000E+00 -0.23642447475E+04  0.23642447475E+04  0.00000000000E+00 0. -1.
         25    1    1    2    0    0  0.99154582083E+02 -0.21804465222E+03 -0.82769052951E+03  0.87067313853E+03  0.12500000000E+03 0.  0.
         25    1    1    2    0    0 -0.99154582083E+02  0.21804465222E+03 -0.15030171923E+04  0.15271086346E+04  0.12500000000E+03 0.  0.
</event>
<event>
 4    0  0.2168146E-002  0.2169197E+03  0.7546771E-02  0.1136201E+00
         21   -1    0    0  502  501  0.00000000000E+00  0.00000000000E+00  0.13369047396E+03  0.13369047396E+03  0.00000000000E+00 0. -1.
         21   -1    0    0  501  502 -0.00000000000E+00 -0.00000000000E+00 -0.35196343465E+03  0.35196343465E+03  0.00000000000E+00 0. -1.
         25    1    1    2    0    0  0.10163296340E+03 -0.14227959986E+03 -0.14189618078E+03  0.25755051913E+03  0.12500000000E+03 0.  0.
         25    1    1    2    0    0 -0.10163296340E+03  0.14227959986E+03 -0.76376779913E+02  0.22810338948E+03  0.12500000000E+03 0.  0.
</event>
<event>
 4    0  0.2168146E-002  0.2938621E+03  0.7546771E-02  0.1088350E+00
         21   -1    0    0  502  501  0.00000000000E+00  0.00000000000E+00  0.88312930106E+03  0.88312930106E+03  0.00000000000E+00 0. -1.
         21   -1    0    0  501  502 -0.00000000000E+00 -0.00000000000E+00 -0.97782888165E+02  0.97782888165E+02  0.00000000000E+00 0.  1.
         25    1    1    2    0    0 -0.14113680360E+03  0.22132519127E+03  0.32136376943E+03  0.43336371552E+03  0.12500000000E+03 0.  0.
         25    1    1    2    0    0  0.14113680360E+03 -0.22132519127E+03  0.46398264347E+03  0.54754847371E+03  0.12500000000E+03 0.  0.
</event>
<event>
 4    0  0.2168146E-002  0.2435669E+03  0.7546771E-02  0.1117439E+00
         21   -1    0    0  502  501  0.00000000000E+00  0.00000000000E+00  0.79033367606E+02  0.79033367606E+02  0.00000000000E+00 0.  1.
         21   -1    0    0  501  502 -0.00000000000E+00 -0.00000000000E+00 -0.75063040648E+03  0.75063040648E+03  0.00000000000E+00 0.  1.
         25    1    1    2    0    0  0.15081647522E+02  0.65145589328E+02  0.15310082352E+01  0.14177005286E+03  0.12500000000E+03 0.  0.
         25    1    1    2    0    0 -0.15081647522E+02 -0.65145589328E+02 -0.67312804711E+03  0.68789372123E+03  0.12500000000E+03 0.  0.
</event>
<event>
 4    0  0.2168146E-002  0.2715880E+03  0.7546771E-02  0.1100374E+00
         21   -1    0    0  502  501  0.00000000000E+00  0.00000000000E+00  0.82453829452E+02  0.82453829452E+02  0.00000000000E+00 0. -1.
         21   -1    0    0  501  502 -0.00000000000E+00 -0.00000000000E+00 -0.89456178405E+03  0.89456178405E+03  0.00000000000E+00 0. -1.
         25    1    1    2    0    0  0.91706076193E+02 -0.13187448574E+03 -0.82615475462E+02  0.21966156055E+03  0.12500000000E+03 0.  0.
         25    1    1    2    0    0 -0.91706076193E+02  0.13187448574E+03 -0.72949247914E+03  0.75735405295E+03  0.12500000000E+03 0.  0.
</event>
<event>
 4    0  0.2168146E-002  0.2101833E+03  0.7546771E-02  0.1141421E+00
         21   -1    0    0  502  501  0.00000000000E+00  0.00000000000E+00  0.15127477966E+03  0.15127477966E+03  0.00000000000E+00 0.  1.
         21   -1    0    0  501  502 -0.00000000000E+00 -0.00000000000E+00 -0.29203164641E+03  0.29203164641E+03  0.00000000000E+00 0.  1.
         25    1    1    2    0    0 -0.92200376212E+01  0.69889887582E+01 -0.24815472641E+03  0.27810002391E+03  0.12500000000E+03 0.  0.
         25    1    1    2    0    0  0.92200376212E+01 -0.69889887582E+01  0.10739785966E+03  0.16520640216E+03  0.12500000000E+03 0.  0.
</event>
<event>
 4    0  0.2168146E-002  0.1576560E+03  0.7546771E-02  0.1191369E+00
         21   -1    0    0  502  501  0.00000000000E+00  0.00000000000E+00  0.48992377838E+03  0.48992377838E+03  0.00000000000E+00 0. -1.
         21   -1    0    0  501  502 -0.00000000000E+00 -0.00000000000E+00 -0.50733254316E+02  0.50733254316E+02  0.00000000000E+00 0. -1.
         25    1    1    2    0    0 -0.61064224307E+02  0.21524673939E+02  0.34130413554E+03  0.36919596966E+03  0.12500000000E+03 0.  0.
         25    1    1    2    0    0  0.61064224307E+02 -0.21524673939E+02  0.97886388526E+02  0.17146106303E+03  0.12500000000E+03 0.  0.
</event>
<event>
 4    0  0.2168146E-002  0.2343151E+03  0.7546771E-02  0.1123639E+00
         21   -1    0    0  502  501  0.00000000000E+00  0.00000000000E+00  0.25958713349E+03  0.25958713349E+03  0.00000000000E+00 0. -1.
         21   -1    0    0  501  502 -0.00000000000E+00 -0.00000000000E+00 -0.21150333513E+03  0.21150333513E+03  0.00000000000E+00 0. -1.
         25    1    1    2    0    0  0.10486183183E+03  0.14187937657E+03  0.11480871028E+03  0.24480972454E+03  0.12500000000E+03 0.  0.
         25    1    1    2    0    0 -0.10486183183E+03 -0.14187937657E+03 -0.66724911916E+02  0.22628074408E+03  0.12500000000E+03 0.  0.
</event>
<event>
 4    0  0.2168146E-002  0.1995985E+03  0.7546771E-02  0.1150078E+00
         21   -1    0    0  502  501  0.00000000000E+00  0.00000000000E+00  0.27498058455E+02  0.27498058455E+02  0.00000000000E+00 0. -1.
         21   -1    0    0  501  502 -0.00000000000E+00 -0.00000000000E+00 -0.14488130845E+04  0.14488130845E+04  0.00000000000E+00 0. -1.
         25    1    1    2    0    0 -0.18714857061E+02 -0.15077532360E+03 -0.58628003478E+03  0.61841145143E+03  0.12500000000E+03 0.  0.
         25    1    1    2    0    0  0.18714857061E+02  0.15077532360E+03 -0.83503499130E+03  0.85789969156E+03  0.12500000000E+03 0.  0.
</event>
<event>
 4    0  0.2168146E-002  0.2578030E+03  0.7546771E-02  0.1108470E+00
         21   -1    0    0  502  501  0.00000000000E+00  0.00000000000E+00  0.13013739681E+04  0.13013739681E+04  0.00000000000E+00 0. -1.
         21   -1    0    0  501  502 -0.00000000000E+00 -0.00000000000E+00 -0.51070949037E+02  0.51070949037E+02  0.00000000000E+00 0. -1.
         25    1    1    2    0    0 -0.79705191963E+02 -0.10185921297E+03  0.14071457106E+03  0.22837208105E+03  0.12500000000E+03 0.  0.
         25    1    1    2    0    0  0.79705191963E+02  0.10185921297E+03  0.11095884480E+04  0.11240728361E+04  0.12500000000E+03 0.  0.
</event>
<event>
 4    0  0.2168146E-002  0.2433992E+03  0.7546771E-02  0.1117549E+00
         21   -1    0    0  502  501  0.00000000000E+00  0.00000000000E+00  0.21900601125E+03  0.21900601125E+03  0.00000000000E+00 0. -1.
         21   -1    0    0  501  502 -0.00000000000E+00 -0.00000000000E+00 -0.27050942620E+03  0.27050942620E+03  0.00000000000E+00 0. -1.
         25    1    1    2    0    0  0.10361401699E+03 -0.11600139719E+03 -0.16590680223E+03  0.25950386451E+03  0.12500000000E+03 0.  0.
         25    1    1    2    0    0 -0.10361401699E+03  0.11600139719E+03  0.11440338727E+03  0.23001157294E+03  0.12500000000E+03 0.  0.
</event>
<event>
 4    0  0.2168146E-002  0.2619185E+03  0.7546771E-02  0.1105996E+00
         21   -1    0    0  502  501  0.00000000000E+00  0.00000000000E+00  0.66017663606E+02  0.66017663606E+02  0.00000000000E+00 0. -1.
         21   -1    0    0  501  502 -0.00000000000E+00 -0.00000000000E+00 -0.10391355657E+04  0.10391355657E+04  0.00000000000E+00 0. -1.
         25    1    1    2    0    0  0.17224875448E+03  0.40666365912E+02 -0.79700383840E+03  0.82593190104E+03  0.12500000000E+03 0.  0.
         25    1    1    2    0    0 -0.17224875448E+03 -0.40666365912E+02 -0.17611406373E+03  0.27922132830E+03  0.12500000000E+03 0.  0.
</event>
<event>
 4    0  0.2168146E-002  0.1966785E+03  0.7546771E-02  0.1152572E+00
         21   -1    0    0  502  501  0.00000000000E+00  0.00000000000E+00  0.27349288035E+03  0.27349288035E+03  0.00000000000E+00 0.  1.
         21   -1    0    0  501  502 -0.00000000000E+00 -0.00000000000E+00 -0.14143853599E+03  0.14143853599E+03  0.00000000000E+00 0.  1.
         25    1    1    2    0    0 -0.12389071433E+03 -0.21093953898E+02  0.15592815834E+03  0.23607722159E+03  0.12500000000E+03 0.  0.
         25    1    1    2    0    0  0.12389071433E+03  0.21093953898E+02 -0.23873813983E+02  0.17885419476E+03  0.12500000000E+03 0.  0.
</event>
<event>
 4    0  0.2168146E-002  0.1783286E+03  0.7546771E-02  0.1169431E+00
         21   -1    0    0  502  501  0.00000000000E+00  0.00000000000E+00  0.23520363327E+03  0.23520363327E+03  0.00000000000E+00 0. -1.
         21   -1    0    0  501  502 -0.00000000000E+00 -0.00000000000E+00 -0.13520655209E+03  0.13520655209E+03  0.00000000000E+00 0. -1.
         25    1    1    2    0    0  0.35389621060E+02  0.68800799651E+02 -0.54840056600E+02  0.15690254019E+03  0.12500000000E+03 0.  0.
         25    1    1    2    0    0 -0.35389621060E+02 -0.68800799651E+02  0.15483713778E+03  0.21350764517E+03  0.12500000000E+03 0.  0.
</event>
<event>
 4    0  0.2168146E-002  0.1836245E+03  0.7546771E-02  0.1164341E+00
         21   -1    0    0  502  501  0.00000000000E+00  0.00000000000E+00  0.10524651056E+03  0.10524651056E+03  0.00000000000E+00 0.  1.
         21   -1    0    0  501  502 -0.00000000000E+00 -0.00000000000E+00 -0.32037122158E+03  0.32037122158E+03  0.00000000000E+00 0.  1.
         25    1    1    2    0    0 -0.72927231238E+02  0.10735483506E+03 -0.66595819497E+02  0.19210269348E+03  0.12500000000E+03 0.  0.
         25    1    1    2    0    0  0.72927231238E+02 -0.10735483506E+03 -0.14852889152E+03  0.23351503867E+03  0.12500000000E+03 0.  0.
</event>
<event>
 4    0  0.2168146E-002  0.2816525E+03  0.7546771E-02  0.1094790E+00
         21   -1    0    0  502  501  0.00000000000E+00  0.00000000000E+00  0.91573558502E+02  0.91573558502E+02  0.00000000000E+00 0.  1.
         21   -1    0    0  501  502 -0.00000000000E+00 -0.00000000000E+00 -0.86627792730E+03  0.86627792730E+03  0.00000000000E+00 0.  1.
         25    1    1    2    0    0  0.13719029510E+03 -0.54284909332E+02 -0.39140389728E+02  0.19729419292E+03  0.12500000000E+03 0.  0.
         25    1    1    2    0    0 -0.13719029510E+03  0.54284909332E+02 -0.73556397907E+03  0.76055729289E+03  0.12500000000E+03 0.  0.
</event>
<event>
 4    0  0.2168146E-002  0.2131929E+03  0.7546771E-02  0.1139062E+00
         21   -1    0    0  502  501  0.00000000000E+00  0.00000000000E+00  0.82454579097E+03  0.82454579097E+03  0.00000000000E+00 0.  1.
         21   -1    0    0  501  502 -0.00000000000E+00 -0.00000000000E+00 -0.55122719322E+02  0.55122719322E+02  0.00000000000E+00 0.  1.
         25    1    1    2    0    0 -0.79407435563E+02  0.52246920696E+02  0.87234636720E+02  0.17963898070E+03  0.12500000000E+03 0.  0.
         25    1    1    2    0    0  0.79407435563E+02 -0.52246920696E+02  0.68218843493E+03  0.70002952959E+03  0.12500000000E+03 0.  0.
</event>
<event>
 4    0  0.2168146E-002  0.2686093E+03  0.7546771E-02  0.1102078E+00
         21   -1    0    0  502  501  0.00000000000E+00  0.00000000000E+00  0.72070300515E+02  0.72070300515E+02  0.00000000000E+00 0.  1.
         21   -1    0    0  501  502 -0.00000000000E+00 -0.00000000000E+00 -0.10011188245E+04  0.10011188245E+04  0.00000000000E+00 0.  1.
         25    1    1    2    0    0  0.99995711211E+02 -0.59245441483E+02 -0.50196355535E+02  0.17791525709E+03  0.12500000000E+03 0.  0.
         25    1    1    2    0    0 -0.99995711211E+02  0.59245441483E+02 -0.87885216849E+03  0.89527386796E+03  0.12500000000E+03 0.  0.
</event>
<event>
 4    0  0.2168146E-002  0.1845772E+03  0.7546771E-02  0.1163445E+00
         21   -1    0    0  502  501  0.00000000000E+00  0.00000000000E+00  0.70820515570E+02  0.70820515570E+02  0.00000000000E+00 0.  1.
         21   -1    0    0  501  502 -0.00000000000E+00 -0.00000000000E+00 -0.48105740658E+03  0.48105740658E+03  0.00000000000E+00 0.  1.
         25    1    1    2    0    0  0.23191581353E+01 -0.11562777763E+03 -0.98685067965E+02  0.19682201120E+03  0.12500000000E+03 0.  0.
         25    1    1    2    0    0 -0.23191581353E+01  0.11562777763E+03 -0.31155182304E+03  0.35505591094E+03  0.12500000000E+03 0.  0.
</event>
<event>
 4    0  0.2168146E-002  0.1853757E+03  0.7546771E-02  0.1162700E+00
         21   -1    0    0  502  501  0.00000000000E+00  0.00000000000E+00  0.12064458125E+03  0.12064458125E+03  0.00000000000E+00 0. -1.
         21   -1    0    0  501  502 -0.00000000000E+00 -0.00000000000E+00 -0.28483786983E+03  0.28483786983E+03  0.00000000000E+00 0. -1.
         25    1    1    2    0    0  0.31133894612E+02 -0.39737546227E+02 -0.22125933710E+03  0.25909281392E+03  0.12500000000E+03 0.  0.
         25    1    1    2    0    0 -0.31133894612E+02  0.39737546227E+02  0.57066048510E+02  0.14638963716E+03  0.12500000000E+03 0.  0.
</event>
<event>
 4    0  0.2168146E-002  0.1797827E+03  0.7546771E-02  0.1168013E+00
         21   -1    0    0  502  501  0.00000000000E+00  0.00000000000E+00  0.19358853502E+02  0.19358853502E+02  0.00000000000E+00 0.  1.
         21   -1    0    0  501  502 -0.00000000000E+00 -0.00000000000E+00 -0.16696148851E+04  0.16696148851E+04  0.00000000000E+00 0.  1.
         25    1    1    2    0    0 -0.94389304089E+02  0.25875633672E+02 -0.42882979998E+03  0.45727331706E+03  0.12500000000E+03 0.  0.
         25    1    1    2    0    0  0.94389304089E+02 -0.25875633672E+02 -0.12214262316E+04  0.12317004216E+04  0.12500000000E+03 0.  0.
</event>
<event>
 4    0  0.2168146E-002  0.2368103E+03  0.7546771E-02  0.1121936E+00
         21   -1    0    0  502  501  0.00000000000E+00  0.00000000000E+00  0.16706531988E+03  0.16706531988E+03  0.00000000000E+00 0.  1.
         21   -1    0    0  501  502 -0.00000000000E+00 -0.00000000000E+00 -0.33567179709E+03  0.33567179709E+03  0.00000000000E+00 0. -1.
         25    1    1    2    0    0  0.19845928673E+03 -0.21754447291E+02 -0.58416012417E+02  0.24268657765E+03  0.12500000000E+03 0.  0.
         25    1    1    2    0    0 -0.19845928673E+03  0.21754447291E+02 -0.11019046480E+03  0.26005053932E+03  0.12500000000E+03 0.  0.
</event>
<event>
 4    0  0.2168146E-002  0.1922663E+03  0.7546771E-02  0.1156433E+00
         21   -1    0    0  502  501  0.00000000000E+00  0.00000000000E+00  0.34400017597E+02  0.34400017597E+02  0.00000000000E+00 0. -1.
         21   -1    0    0  501  502 -0.00000000000E+00 -0.00000000000E+00 -0.10746024668E+04  0.10746024668E+04  0.00000000000E+00 0. -1.
         25    1    1    2    0    0 -0.10895392935E+03  0.92918594762E+02 -0.60351492452E+03  0.63274014263E+03  0.12500000000E+03 0.  0.
         25    1    1    2    0    0  0.10895392935E+03 -0.92918594762E+02 -0.43668752467E+03  0.47626234175E+03  0.12500000000E+03 0.  0.
</event>
<event>
 4    0  0.2168146E-002  0.2375943E+03  0.7546771E-02  0.1121406E+00
         21   -1    0    0  502  501  0.00000000000E+00  0.00000000000E+00  0.19410169509E+03  0.19410169509E+03  0.00000000000E+00 0.  1.
         21   -1    0    0  501  502 -0.00000000000E+00 -0.00000000000E+00 -0.29083234944E+03  0.29083234944E+03  0.00000000000E+00 0.  1.
         25    1    1    2    0    0 -0.11825843779E+02 -0.16784210264E+03 -0.16253114102E+03  0.26523987973E+03  0.12500000000E+03 0.  0.
         25    1    1    2    0    0  0.11825843779E+02  0.16784210264E+03  0.65800486666E+02  0.21969416480E+03  0.12500000000E+03 0.  0.
</event>
<event>
 4    0  0.2168146E-002  0.2103582E+03  0.7546771E-02  0.1141283E+00
         21   -1    0    0  502  501  0.00000000000E+00  0.00000000000E+00  0.11154407863E+03  0.11154407863E+03  0.00000000000E+00 0. -1.
         21   -1    0    0  501  502 -0.00000000000E+00 -0.00000000000E+00 -0.39670917589E+03  0.39670917589E+03  0.00000000000E+00 0. -1.
         25    1    1    2    0    0 -0.15261121890E+03  0.44646874280E+02 -0.21242123964E+03  0.29331094519E+03  0.12500000000E+03 0.  0.
         25    1    1    2    0    0  0.15261121890E+03 -0.44646874280E+02 -0.72743857630E+02  0.21494230933E+03  0.12500000000E+03 0.  0.
</event>
<event>
 4    0  0.2168146E-002  0.3876283E+03  0.7546771E-02  0.1048150E+00
         21   -1    0    0  502  501  0.00000000000E+00  0.00000000000E+00  0.71473650297E+03  0.71473650297E+03  0.00000000000E+00 0.  1.
         21   -1    0    0  501  502 -0.00000000000E+00 -0.00000000000E+00 -0.21022535046E+03  0.21022535046E+03  0.00000000000E+00 0.  1.
         25    1    1    2    0    0  0.11100094851E+03  0.17733644982E+03 -0.10738425662E+03  0.26631899214E+03  0.12500000000E+03 0.  0.
         25    1    1    2    0    0 -0.11100094851E+03 -0.17733644982E+03  0.61189540913E+03  0.65864286129E+03  0.12500000000E+03 0.  0.
</event>
<event>
 4    0  0.2168146E-002  0.2100437E+03  0.7546771E-02  0.1141531E+00
         21   -1    0    0  502  501  0.00000000000E+00  0.00000000000E+00  0.30746066678E+03  0.30746066678E+03  0.00000000000E+00 0. -1.
         21   -1    0    0  501  502 -0.00000000000E+00 -0.00000000000E+00 -0.14349273340E+03  0.14349273340E+03  0.00000000000E+00 0. -1.
         25    1    1    2    0    0  0.57933198226E+02  0.95443197932E+02 -0.53918612395E+02  0.17606213747E+03  0.12500000000E+03 0.  0.
         25    1    1    2    0    0 -0.57933198226E+02 -0.95443197932E+02  0.21788654577E+03  0.27489126271E+03  0.12500000000E+03 0.  0.
</event>
<event>
 4    0  0.2168146E-002  0.1550558E+03  0.7546771E-02  0.1194395E+00
         21   -1    0    0  502  501  0.00000000000E+00  0.00000000000E+00  0.34726809687E+02  0.34726809687E+02  0.00000000000E+00 0. -1.
         21   -1    0    0  501  502 -0.00000000000E+00 -0.00000000000E+00 -0.69232674310E+03  0.69232674310E+03  0.00000000000E+00 0. -1.
         25    1    1    2    0    0  0.71686709696E+02  0.54673079922E+02 -0.36866795294E+03  0.39958627296E+03  0.12500000000E+03 0.  0.
         25    1    1    2    0    0 -0.71686709696E+02 -0.54673079922E+02 -0.28893198048E+03  0.32746727983E+03  0.12500000000E+03 0.  0.
</event>
<event>
 4    0  0.2168146E-002  0.1698547E+03  0.7546771E-02  0.1177999E+00
         21   -1    0    0  502  501  0.00000000000E+00  0.00000000000E+00  0.73914260788E+03  0.73914260788E+03  0.00000000000E+00 0.  1.
         21   -1    0    0  501  502 -0.00000000000E+00 -0.00000000000E+00 -0.39032549259E+02  0.39032549259E+02  0.00000000000E+00 0.  1.
         25    1    1    2    0    0 -0.20678455523E+02  0.55926292315E+02  0.12479241287E+03  0.18642289292E+03  0.12500000000E+03 0.  0.
         25    1    1    2    0    0  0.20678455523E+02 -0.55926292315E+02  0.57531764575E+03  0.59175226422E+03  0.12500000000E+03 0.  0.
</event>
<event>
 4    0  0.2168146E-002  0.2006437E+03  0.7546771E-02  0.1149197E+00
         21   -1    0    0  502  501  0.00000000000E+00  0.00000000000E+00  0.87763473679E+02  0.87763473679E+02  0.00000000000E+00 0.  1.
         21   -1    0    0  501  502 -0.00000000000E+00 -0.00000000000E+00 -0.45870876414E+03  0.45870876414E+03  0.00000000000E+00 0.  1.
         25    1    1    2    0    0 -0.41628559405E+02  0.36023983839E+02 -0.38562549615E+03  0.40909985046E+03  0.12500000000E+03 0.  0.
         25    1    1    2    0    0  0.41628559405E+02 -0.36023983839E+02  0.14680205684E+02  0.13737238736E+03  0.12500000000E+03 0.  0.
</event>
<event>
 4    0  0.2168146E-002  0.1812714E+03  0.7546771E-02  0.1166578E+00
         21   -1    0    0  502  501  0.00000000000E+00  0.00000000000E+00  0.91644144658E+03  0.91644144658E+03  0.00000000000E+00 0. -1.
         21   -1    0    0  501  502 -0.00000000000E+00 -0.00000000000E+00 -0.35855344788E+02  0.35855344788E+02  0.00000000000E+00 0. -1.
         25    1    1    2    0    0 -0.78968895548E+02  0.10345324784E+03  0.48545904470E+03  0.51791326014E+03  0.12500000000E+03 0.  0.
         25    1    1    2    0    0  0.78968895548E+02 -0.10345324784E+03  0.39512705709E+03  0.43438353122E+03  0.12500000000E+03 0.  0.
</event>
<event>
 4    0  0.2168146E-002  0.6222513E+03  0.7546771E-02  0.9860288E-01
         21   -1    0    0  502  501  0.00000000000E+00  0.00000000000E+00  0.50738819253E+03  0.50738819253E+03  0.00000000000E+00 0.  1.
         21   -1    0    0  501  502 -0.00000000000E+00 -0.00000000000E+00 -0.76311726942E+03  0.76311726942E+03  0.00000000000E+00 0.  1.
         25    1    1    2    0    0 -0.23386136872E+03 -0.49727752564E+02  0.44457195195E+03  0.52003193134E+03  0.12500000000E+03 0.  0.
         25    1    1    2    0    0  0.23386136872E+03  0.49727752564E+02 -0.70030102884E+03  0.75047353061E+03  0.12500000000E+03 0.  0.
</event>
<event>
 4    0  0.2168146E-002  0.3383080E+03  0.7546771E-02  0.1067519E+00
         21   -1    0    0  502  501  0.00000000000E+00  0.00000000000E+00  0.19576504540E+03  0.19576504540E+03  0.00000000000E+00 0.  1.
         21   -1    0    0  501  502 -0.00000000000E+00 -0.00000000000E+00 -0.58464113647E+03  0.58464113647E+03  0.00000000000E+00 0.  1.
         25    1    1    2    0    0 -0.10266603742E+03 -0.12555822451E+03  0.11617069894E+03  0.23542687670E+03  0.12500000000E+03 0.  0.
         25    1    1    2    0    0  0.10266603742E+03  0.12555822451E+03 -0.50504679000E+03  0.54497930518E+03  0.12500000000E+03 0.  0.
</event>
<event>
 4    0  0.2168146E-002  0.1599341E+03  0.7546771E-02  0.1188771E+00
         21   -1    0    0  502  501  0.00000000000E+00  0.00000000000E+00  0.30318043528E+02  0.30318043528E+02  0.00000000000E+00 0.  1.
         21   -1    0    0  501  502 -0.00000000000E+00 -0.00000000000E+00 -0.84368619378E+03  0.84368619378E+03  0.00000000000E+00 0.  1.
         25    1    1    2    0    0  0.89308633113E+02  0.23823352531E+02 -0.50929721123E+03  0.53249622857E+03  0.12500000000E+03 0.  0.
         25    1    1    2    0    0 -0.89308633113E+02 -0.23823352531E+02 -0.30407093902E+03  0.34150800874E+03  0.12500000000E+03 0.  0.
</event>
<event>
 4    0  0.2168146E-002  0.1700947E+03  0.7546771E-02  0.1177749E+00
         21   -1    0    0  502  501  0.00000000000E+00  0.00000000000E+00  0.19801917170E+03  0.19801917170E+03  0.00000000000E+00 0. -1.
         21   -1    0    0  501  502 -0.00000000000E+00 -0.00000000000E+00 -0.14610803471E+03  0.14610803471E+03  0.00000000000E+00 0. -1.
         25    1    1    2    0    0  0.79769144417E-01 -0.19547263768E+02 -0.89049010910E+02  0.15471531349E+03  0.12500000000E+03 0.  0.
         25    1    1    2    0    0 -0.79769144417E-01  0.19547263768E+02  0.14096014790E+03  0.18941189292E+03  0.12500000000E+03 0.  0.
</event>
<event>
 4    0  0.2168146E-002  0.2379585E+03  0.7546771E-02  0.1121160E+00
         21   -1    0    0  502  501  0.00000000000E+00  0.00000000000E+00  0.18905629818E+03  0.18905629818E+03  0.00000000000E+00 0. -1.
         21   -1    0    0  501  502 -0.00000000000E+00 -0.00000000000E+00 -0.29951007108E+03  0.29951007108E+03  0.00000000000E+00 0. -1.
         25    1    1    2    0    0 -0.85665726737E+02 -0.12314709548E+03 -0.19483949247E+03  0.27584642772E+03  0.12500000000E+03 0.  0.
         25    1    1    2    0    0  0.85665726737E+02  0.12314709548E+03  0.84385719571E+02  0.21271994154E+03  0.12500000000E+03 0.  0.
</event>
<event>
 4    0  0.2168146E-002  0.2416983E+03  0.7546771E-02  0.1118667E+00
         21   -1    0    0  502  501  0.00000000000E+00  0.00000000000E+00  0.61294407452E+03  0.61294407452E+03  0.00000000000E+00 0. -1.
         21   -1    0    0  501  502 -0.00000000000E+00 -0.00000000000E+00 -0.95307309537E+02  0.95307309537E+02  0.00000000000E+00 0. -1.
         25    1    1    2    0    0  0.12324039134E+03  0.14134137735E+03  0.38677837511E+03  0.44764728354E+03  0.12500000000E+03 0.  0.
         25    1    1    2    0    0 -0.12324039134E+03 -0.14134137735E+03  0.13085838987E+03  0.26060410052E+03  0.12500000000E+03 0.  0.
</event>
<event>
 4    0  0.2168146E-002  0.2379485E+03  0.7546771E-02  0.1121167E+00
         21   -1    0    0  502  501  0.00000000000E+00  0.00000000000E+00  0.76255035196E+02  0.76255035196E+02  0.00000000000E+00 0. -1.
         21   -1    0    0  501  502 -0.00000000000E+00 -0.00000000000E+00 -0.74250147308E+03  0.74250147308E+03  0.00000000000E+00 0. -1.
         25    1    1    2    0    0  0.41135822149E+02 -0.82651494134E+02 -0.64314343681E+03  0.66165089410E+03  0.12500000000E+03 0.  0.
         25    1    1    2    0    0 -0.41135822149E+02  0.82651494134E+02 -0.23103001066E+02  0.15710561417E+03  0.12500000000E+03 0.  0.
</event>
<event>
 4    0  0.2168146E-002  0.2346885E+03  0.7546771E-02  0.1123383E+00
         21   -1    0    0  502  501  0.00000000000E+00  0.00000000000E+00  0.76502453303E+03  0.76502453303E+03  0.00000000000E+00 0.  1.
         21   -1    0    0  501  502 -0.00000000000E+00 -0.00000000000E+00 -0.71995977184E+02  0.71995977184E+02  0.00000000000E+00 0.  1.
         25    1    1    2    0    0 -0.22693609934E+02  0.19342346152E+03  0.41617679736E+03  0.47618878825E+03  0.12500000000E+03 0.  0.
         25    1    1    2    0    0  0.22693609934E+02 -0.19342346152E+03  0.27685175848E+03  0.36083172196E+03  0.12500000000E+03 0.  0.
</event>
<event>
 4    0  0.2168146E-002  0.1794324E+03  0.7546771E-02  0.1168354E+00
         21   -1    0    0  502  501  0.00000000000E+00  0.00000000000E+00  0.16733230135E+04  0.16733230135E+04  0.00000000000E+00 0. -1.
         21   -1    0    0  501  502 -0.00000000000E+00 -0.00000000000E+00 -0.19240744295E+02  0.19240744295E+02  0.00000000000E+00 0. -1.
         25    1    1    2    0    0  0.93207661685E+02 -0.39739304596E+01  0.12453847456E+04  0.12551141880E+04  0.12500000000E+03 0.  0.
         25    1    1    2    0    0 -0.93207661685E+02  0.39739304596E+01  0.40869752356E+03  0.43744956976E+03  0.12500000000E+03 0.  0.
</event>
<event>
 4    0  0.2168146E-002  0.1778383E+03  0.7546771E-02  0.1169912E+00
         21   -1    0    0  502  501  0.00000000000E+00  0.00000000000E+00  0.79113755865E+02  0.79113755865E+02  0.00000000000E+00 0.  1.
         21   -1    0    0  501  502 -0.00000000000E+00 -0.00000000000E+00 -0.39975942126E+03  0.39975942126E+03  0.00000000000E+00 0.  1.
         25    1    1    2    0    0  0.73471059231E+02  0.76055497094E+01 -0.29858437317E+03  0.33201425998E+03  0.12500000000E+03 0.  0.
         25    1    1    2    0    0 -0.73471059231E+02 -0.76055497094E+01 -0.22061292232E+02  0.14685891715E+03  0.12500000000E+03 0.  0.
</event>
<event>
 4    0  0.2168146E-002  0.2111066E+03  0.7546771E-02  0.1140693E+00
         21   -1    0    0  502  501  0.00000000000E+00  0.00000000000E+00  0.15893505557E+04  0.15893505557E+04  0.00000000000E+00 0.  1.
         21   -1    0    0  501  502 -0.00000000000E+00 -0.00000000000E+00 -0.28040373412E+02  0.28040373412E+02  0.00000000000E+00 0.  1.
         25    1    1    2    0    0 -0.29910280073E+01  0.15404208394E+03  0.50433451255E+03  0.54195591188E+03  0.12500000000E+03 0.  0.
         25    1    1    2    0    0  0.29910280073E+01 -0.15404208394E+03  0.10569756697E+04  0.10754350172E+04  0.12500000000E+03 0.  0.
</event>
<event>
 4    0  0.2168146E-002  0.2013608E+03  0.7546771E-02  0.1148596E+00
         21   -1    0    0  502  501  0.00000000000E+00  0.00000000000E+00  0.24344324134E+02  0.24344324134E+02  0.00000000000E+00 0. -1.
         21   -1    0    0  501  502 -0.00000000000E+00 -0.00000000000E+00 -0.16655281721E+04  0.16655281721E+04  0.00000000000E+00 0. -1.
         25    1    1    2    0    0 -0.89265215551E+02 -0.11159843123E+03 -0.11020353541E+04  0.11182707231E+04  0.12500000000E+03 0.  0.
         25    1    1    2    0    0  0.89265215551E+02  0.11159843123E+03 -0.53914849388E+03  0.57160177310E+03  0.12500000000E+03 0.  0.
</event>
<event>
 4    0  0.2168146E-002  0.1933860E+03  0.7546771E-02  0.1155442E+00
         21   -1    0    0  502  501  0.00000000000E+00  0.00000000000E+00  0.89973921672E+03  0.89973921672E+03  0.00000000000E+00 0. -1.
         21   -1    0    0  501  502 -0.00000000000E+00 -0.00000000000E+00 -0.41565522534E+02  0.41565522534E+02  0.00000000000E+00 0. -1.
         25    1    1    2    0    0 -0.11177448768E+03  0.51830745061E+01  0.19498208151E+03  0.25722249604E+03  0.12500000000E+03 0.  0.
         25    1    1    2    0    0  0.11177448768E+03 -0.51830745061E+01  0.66319161267E+03  0.68408224321E+03  0.12500000000E+03 0.  0.
</event>
<event>
 4    0  0.2168146E-002  0.1742769E+03  0.7546771E-02  0.1173460E+00
         21   -1    0    0  502  501  0.00000000000E+00  0.00000000000E+00  0.67047561672E+02  0.67047561672E+02  0.00000000000E+00 0. -1.
         21   -1    0    0  501  502 -0.00000000000E+00 -0.00000000000E+00 -0.45299839213E+03  0.45299839213E+03  0.00000000000E+00 0. -1.
         25    1    1    2    0    0 -0.81288446081E+01  0.94355161904E+02 -0.30639239229E+03  0.34419510855E+03  0.12500000000E+03 0.  0.
         25    1    1    2    0    0  0.81288446081E+01 -0.94355161904E+02 -0.79558438161E+02  0.17585084525E+03  0.12500000000E+03 0.  0.
</event>
<event>
 4    0  0.2168146E-002  0.2377634E+03  0.7546771E-02  0.1121292E+00
         21   -1    0    0  502  501  0.00000000000E+00  0.00000000000E+00  0.25538861566E+03  0.25538861566E+03  0.00000000000E+00 0. -1.
         21   -1    0    0  501  502 -0.00000000000E+00 -0.00000000000E+00 -0.22135448672E+03  0.22135448672E+03  0.00000000000E+00 0. -1.
         25    1    1    2    0    0 -0.28927926284E+02 -0.19880553259E+03 -0.64083030639E+01  0.23669924177E+03  0.12500000000E+03 0.  0.
         25    1    1    2    0    0  0.28927926284E+02  0.19880553259E+03  0.40442432003E+02  0.24004386061E+03  0.12500000000E+03 0.  0.
</event>
<event>
 4    0  0.2168146E-002  0.2626669E+03  0.7546771E-02  0.1105551E+00
         21   -1    0    0  502  501  0.00000000000E+00  0.00000000000E+00  0.63374776923E+02  0.63374776923E+02  0.00000000000E+00 0. -1.
         21   -1    0    0  501  502 -0.00000000000E+00 -0.00000000000E+00 -0.10886651331E+04  0.10886651331E+04  0.00000000000E+00 0. -1.
         25    1    1    2    0    0 -0.44439373221E+02 -0.22666961796E+03 -0.50416989059E+03  0.56847713426E+03  0.12500000000E+03 0.  0.
         25    1    1    2    0    0  0.44439373221E+02  0.22666961796E+03 -0.52112046556E+03  0.58356277574E+03  0.12500000000E+03 0.  0.
</event>
<event>
 4    0  0.2168146E-002  0.2021425E+03  0.7546771E-02  0.1147944E+00
         21   -1    0    0  502  501  0.00000000000E+00  0.00000000000E+00  0.15089625590E+03  0.15089625590E+03  0.00000000000E+00 0. -1.
         21   -1    0    0  501  502 -0.00000000000E+00 -0.00000000000E+00 -0.27079254725E+03  0.27079254725E+03  0.00000000000E+00 0. -1.
         25    1    1    2    0    0  0.70592039096E+02 -0.21630971006E+02 -0.20666412510E+03  0.25255929105E+03  0.12500000000E+03 0.  0.
         25    1    1    2    0    0 -0.70592039096E+02  0.21630971006E+02  0.86767833753E+02  0.16912951210E+03  0.12500000000E+03 0.  0.
</event>
<event>
 4    0  0.2168146E-002  0.1623325E+03  0.7546771E-02  0.1186088E+00
         21   -1    0    0  502  501  0.00000000000E+00  0.00000000000E+00  0.57451905967E+02  0.57451905967E+02  0.00000000000E+00 0.  1.
         21   -1    0    0  501  502 -0.00000000000E+00 -0.00000000000E+00 -0.45867644915E+03  0.45867644915E+03  0.00000000000E+00 0.  1.
         25    1    1    2    0    0 -0.90956644229E+02  0.35201432383E+02 -0.25601563180E+03  0.30113328560E+03  0.12500000000E+03 0.  0.
         25    1    1    2    0    0  0.90956644229E+02 -0.35201432383E+02 -0.14520891138E+03  0.21499506952E+03  0.12500000000E+03 0.  0.
</event>
<event>
 4    0  0.2168146E-002  0.2391463E+03  0.7546771E-02  0.1120363E+00
         21   -1    0    0  502  501  0.00000000000E+00  0.00000000000E+00  0.27237379841E+02  0.27237379841E+02  0.00000000000E+00 0. -1.
         21   -1    0    0  501  502 -0.00000000000E+00 -0.00000000000E+00 -0.20997233147E+04  0.20997233147E+04  0.00000000000E+00 0. -1.
         25    1    1    2    0    0  0.13267012132E+02  0.76996189300E+02 -0.18736652899E+04  0.18794549862E+04  0.12500000000E+03 0.  0.
         25    1    1    2    0    0 -0.13267012132E+02 -0.76996189300E+02 -0.19882064500E+03  0.24750570833E+03  0.12500000000E+03 0.  0.
</event>
<event>
 4    0  0.2168146E-002  0.1461488E+03  0.7546771E-02  0.1205287E+00
         21   -1    0    0  502  501  0.00000000000E+00  0.00000000000E+00  0.58458914347E+02  0.58458914347E+02  0.00000000000E+00 0. -1.
         21   -1    0    0  501  502 -0.00000000000E+00 -0.00000000000E+00 -0.36537592490E+03  0.36537592490E+03  0.00000000000E+00 0. -1.
         25    1    1    2    0    0  0.39138393999E+01  0.13924321665E+02 -0.45676000846E+02  0.13386747897E+03  0.12500000000E+03 0.  0.
         25    1    1    2    0    0 -0.39138393999E+01 -0.13924321665E+02 -0.26124100971E+03  0.28996736028E+03  0.12500000000E+03 0.  0.
</event>
<event>
 4    0  0.2168146E-002  0.1828977E+03  0.7546771E-02  0.1165028E+00
         21   -1    0    0  502  501  0.00000000000E+00  0.00000000000E+00  0.48479807174E+02  0.48479807174E+02  0.00000000000E+00 0.  1.
         21   -1    0    0  501  502 -0.00000000000E+00 -0.00000000000E+00 -0.69001031270E+03  0.69001031270E+03  0.00000000000E+00 0.  1.
         25    1    1    2    0    0 -0.57167027479E+02 -0.12060736269E+03 -0.31366702689E+03  0.36307879134E+03  0.12500000000E+03 0.  0.
         25    1    1    2    0    0  0.57167027479E+02  0.12060736269E+03 -0.32786347864E+03  0.37541132853E+03  0.12500000000E+03 0.  0.
</event>
<event>
 4    0  0.2168146E-002  0.2116453E+03  0.7546771E-02  0.1140270E+00
         21   -1    0    0  502  501  0.00000000000E+00  0.00000000000E+00  0.84942970507E+03  0.84942970507E+03  0.00000000000E+00 0. -1.
         21   -1    0    0  501  502 -0.00000000000E+00 -0.00000000000E+00 -0.52733879229E+02  0.52733879229E+02  0.00000000000E+00 0. -1.
         25    1    1    2    0    0  0.13809844441E+02 -0.16930662965E+03  0.43607131515E+03  0.48439512647E+03  0.12500000000E+03 0.  0.
         25    1    1    2    0    0 -0.13809844441E+02  0.16930662965E+03  0.36062451069E+03  0.41776845783E+03  0.12500000000E+03 0.  0.
</event>
<event>
 4    0  0.2168146E-002  0.2301835E+03  0.7546771E-02  0.1126511E+00
         21   -1    0    0  502  501  0.00000000000E+00  0.00000000000E+00  0.38778827591E+02  0.38778827591E+02  0.00000000000E+00 0. -1.
         21   -1    0    0  501  502 -0.00000000000E+00 -0.00000000000E+00 -0.13663235087E+04  0.13663235087E+04  0.00000000000E+00 0. -1.
         25    1    1    2    0    0  0.67566083896E+02 -0.16911166633E+03 -0.86146717485E+03  0.88933380950E+03  0.12500000000E+03 0.  0.
         25    1    1    2    0    0 -0.67566083896E+02  0.16911166633E+03 -0.46607750621E+03  0.51576852674E+03  0.12500000000E+03 0.  0.
</event>
<event>
 4    0  0.2168146E-002  0.1908337E+03  0.7546771E-02  0.1157712E+00
         21   -1    0    0  502  501  0.00000000000E+00  0.00000000000E+00  0.48788348303E+02  0.48788348303E+02  0.00000000000E+00 0.  1.
         21   -1    0    0  501  502 -0.00000000000E+00 -0.00000000000E+00 -0.74643878451E+03  0.74643878451E+03  0.00000000000E+00 0.  1.
         25    1    1    2    0    0  0.30954409177E+02  0.61481219400E+02 -0.84825737681E+02  0.16600759489E+03  0.12500000000E+03 0.  0.
         25    1    1    2    0    0 -0.30954409177E+02 -0.61481219400E+02 -0.61282469852E+03  0.62921953792E+03  0.12500000000E+03 0.  0.
</event>
<event>
 4    0  0.2168146E-002  0.1508773E+03  0.7546771E-02  0.1199399E+00
         21   -1    0    0  502  501  0.00000000000E+00  0.00000000000E+00  0.34434773916E+03  0.34434773916E+03  0.00000000000E+00 0. -1.
         21   -1    0    0  501  502 -0.00000000000E+00 -0.00000000000E+00 -0.66107480889E+02  0.66107480889E+02  0.00000000000E+00 0. -1.
         25    1    1    2    0    0  0.94310327784E+01  0.61014308596E+02  0.60658743058E+02  0.15204003862E+03  0.12500000000E+03 0.  0.
         25    1    1    2    0    0 -0.94310327784E+01 -0.61014308596E+02  0.21758151521E+03  0.25841518143E+03  0.12500000000E+03 0.  0.
</event>
<event>
 4    0  0.2168146E-002  0.1975275E+03  0.7546771E-02  0.1151842E+00
         21   -1    0    0  502  501  0.00000000000E+00  0.00000000000E+00  0.27405589793E+03  0.27405589793E+03  0.00000000000E+00 0.  1.
         21   -1    0    0  501  502 -0.00000000000E+00 -0.00000000000E+00 -0.14236919568E+03  0.14236919568E+03  0.00000000000E+00 0.  1.
         25    1    1    2    0    0 -0.14710264418E+03  0.40579393786E+02  0.76708325855E+02  0.21164839329E+03  0.12500000000E+03 0.  0.
         25    1    1    2    0    0  0.14710264418E+03 -0.40579393786E+02  0.54978376392E+02  0.20477670033E+03  0.12500000000E+03 0.  0.
</event>
<event>
 4    0  0.2168146E-002  0.2131150E+03  0.7546771E-02  0.1139123E+00
         21   -1    0    0  502  501  0.00000000000E+00  0.00000000000E+00  0.70435536884E+02  0.70435536884E+02  0.00000000000E+00 0. -1.
         21   -1    0    0  501  502 -0.00000000000E+00 -0.00000000000E+00 -0.64481645996E+03  0.64481645996E+03  0.00000000000E+00 0. -1.
         25    1    1    2    0    0  0.23948374211E+02 -0.16904048495E+03 -0.32980149079E+03  0.39184465481E+03  0.12500000000E+03 0.  0.
         25    1    1    2    0    0 -0.23948374211E+02  0.16904048495E+03 -0.24457943229E+03  0.32340734203E+03  0.12500000000E+03 0.  0.
</event>
<event>
 4    0  0.2168146E-002  0.3001779E+03  0.7546771E-02  0.1085152E+00
         21   -1    0    0  502  501  0.00000000000E+00  0.00000000000E+00  0.69530526879E+03  0.69530526879E+03  0.00000000000E+00 0. -1.
         21   -1    0    0  501  502 -0.00000000000E+00 -0.00000000000E+00 -0.12959313307E+03  0.12959313307E+03  0.00000000000E+00 0. -1.
         25    1    1    2    0    0  0.22721278093E+03 -0.14300256153E+03  0.35025861750E+03  0.45867360896E+03  0.12500000000E+03 0.  0.
         25    1    1    2    0    0 -0.22721278093E+03  0.14300256153E+03  0.21545351822E+03  0.36622479290E+03  0.12500000000E+03 0.  0.
</event>
<event>
 4    0  0.2168146E-002  0.1508535E+03  0.7546771E-02  0.1199428E+00
         21   -1    0    0  502  501  0.00000000000E+00  0.00000000000E+00  0.26253890736E+03  0.26253890736E+03  0.00000000000E+00 0.  1.
         21   -1    0    0  501  502 -0.00000000000E+00 -0.00000000000E+00 -0.86679637149E+02  0.86679637149E+02  0.00000000000E+00 0.  1.
         25    1    1    2    0    0 -0.59340074427E+02 -0.45202702258E+02  0.42106916151E+02  0.15153389427E+03  0.12500000000E+03 0.  0.
         25    1    1    2    0    0  0.59340074427E+02  0.45202702258E+02  0.13375235406E+03  0.19768465024E+03  0.12500000000E+03 0.  0.
</event>
<event>
 4    0  0.2168146E-002  0.2931821E+03  0.7546771E-02  0.1088699E+00
         21   -1    0    0  502  501  0.00000000000E+00  0.00000000000E+00  0.26163448034E+03  0.26163448034E+03  0.00000000000E+00 0.  1.
         21   -1    0    0  501  502 -0.00000000000E+00 -0.00000000000E+00 -0.32853366313E+03  0.32853366313E+03  0.00000000000E+00 0.  1.
         25    1    1    2    0    0 -0.63721655718E+02 -0.25688353210E+03 -0.16573713222E+02  0.29317108732E+03  0.12500000000E+03 0.  0.
         25    1    1    2    0    0  0.63721655718E+02  0.25688353210E+03 -0.50325469572E+02  0.29699705614E+03  0.12500000000E+03 0.  0.
</event>
<event>
 4    0  0.2168146E-002  0.1945835E+03  0.7546771E-02  0.1154391E+00
         21   -1    0    0  502  501  0.00000000000E+00  0.00000000000E+00  0.46606661986E+03  0.46606661986E+03  0.00000000000E+00 0.  1.
         21   -1    0    0  501  502 -0.00000000000E+00 -0.00000000000E+00 -0.81238869649E+02  0.81238869649E+02  0.00000000000E+00 0.  1.
         25    1    1    2    0    0  0.34620943685E+02  0.14074847493E+03  0.24171612195E+03  0.30831870937E+03  0.12500000000E+03 0.  0.
         25    1    1    2    0    0 -0.34620943685E+02 -0.14074847493E+03  0.14311162827E+03  0.23898678014E+03  0.12500000000E+03 0.  0.
</event>
<event>
 4    0  0.2168146E-002  0.2698293E+03  0.7546771E-02  0.1101377E+00
         21   -1    0    0  502  501  0.00000000000E+00  0.00000000000E+00  0.97354299578E+03  0.97354299578E+03  0.00000000000E+00 0. -1.
         21   -1    0    0  501  502 -0.00000000000E+00 -0.00000000000E+00 -0.74786486994E+02  0.74786486994E+02  0.00000000000E+00 0. -1.
         25    1    1    2    0    0 -0.36869458790E+02  0.14166792964E+03  0.82062823701E+02  0.20925693851E+03  0.12500000000E+03 0.  0.
         25    1    1    2    0    0  0.36869458790E+02 -0.14166792964E+03  0.81669368509E+03  0.83907254426E+03  0.12500000000E+03 0.  0.
</event>
<event>
 4    0  0.2168146E-002  0.2118314E+03  0.7546771E-02  0.1140124E+00
         21   -1    0    0  502  501  0.00000000000E+00  0.00000000000E+00  0.63502448634E+03  0.63502448634E+03  0.00000000000E+00 0.  1.
         21   -1    0    0  501  502 -0.00000000000E+00 -0.00000000000E+00 -0.70662728644E+02  0.70662728644E+02  0.00000000000E+00 0.  1.
         25    1    1    2    0    0  0.13363702487E+03 -0.65201176739E+02  0.42290396010E+03  0.46538458004E+03  0.12500000000E+03 0.  0.
         25    1    1    2    0    0 -0.13363702487E+03  0.65201176739E+02  0.14145779760E+03  0.24030263495E+03  0.12500000000E+03 0.  0.
</event>
<event>
 4    0  0.2168146E-002  0.2781181E+03  0.7546771E-02  0.1096721E+00
         21   -1    0    0  502  501  0.00000000000E+00  0.00000000000E+00  0.42514507935E+02  0.42514507935E+02  0.00000000000E+00 0.  1.
         21   -1    0    0  501  502 -0.00000000000E+00 -0.00000000000E+00 -0.18193719747E+04  0.18193719747E+04  0.00000000000E+00 0.  1.
         25    1    1    2    0    0  0.20206166449E+03  0.14337989420E+03 -0.94996743548E+03  0.98967158128E+03  0.12500000000E+03 0.  0.
         25    1    1    2    0    0 -0.20206166449E+03 -0.14337989420E+03 -0.82689003133E+03  0.87221490141E+03  0.12500000000E+03 0.  0.
</event>
<event>
 4    0  0.2168146E-002  0.1928881E+03  0.7546771E-02  0.1155882E+00
         21   -1    0    0  502  501  0.00000000000E+00  0.00000000000E+00  0.61800342176E+03  0.61800342176E+03  0.00000000000E+00 0.  1.
         21   -1    0    0  501  502 -0.00000000000E+00 -0.00000000000E+00 -0.60203246998E+02  0.60203246998E+02  0.00000000000E+00 0.  1.
         25    1    1    2    0    0  0.88004224641E+02 -0.77551802474E+02  0.43438192185E+03  0.46698145536E+03  0.12500000000E+03 0.  0.
         25    1    1    2    0    0 -0.88004224641E+02  0.77551802474E+02  0.12341825291E+03  0.21122521339E+03  0.12500000000E+03 0.  0.
</event>
<event>
 4    0  0.2168146E-002  0.2787963E+03  0.7546771E-02  0.1096348E+00
         21   -1    0    0  502  501  0.00000000000E+00  0.00000000000E+00  0.22488065881E+03  0.22488065881E+03  0.00000000000E+00 0.  1.
         21   -1    0    0  501  502 -0.00000000000E+00 -0.00000000000E+00 -0.34563844771E+03  0.34563844771E+03  0.00000000000E+00 0.  1.
         25    1    1    2    0    0 -0.48003183994E+02 -0.46452929910E+02  0.18527063844E+03  0.23326463478E+03  0.12500000000E+03 0.  0.
         25    1    1    2    0    0  0.48003183994E+02  0.46452929910E+02 -0.30602842734E+03  0.33725447175E+03  0.12500000000E+03 0.  0.
</event>
<event>
 4    0  0.2168146E-002  0.2664763E+03  0.7546771E-02  0.1103313E+00
         21   -1    0    0  502  501  0.00000000000E+00  0.00000000000E+00  0.42831212011E+02  0.42831212011E+02  0.00000000000E+00 0. -1.
         21   -1    0    0  501  502 -0.00000000000E+00 -0.00000000000E+00 -0.16578940163E+04  0.16578940163E+04  0.00000000000E+00 0. -1.
         25    1    1    2    0    0 -0.35115952281E+02 -0.56773523306E+02 -0.87378096805E+02  0.16648211572E+03  0.12500000000E+03 0.  0.
         25    1    1    2    0    0  0.35115952281E+02  0.56773523306E+02 -0.15276847075E+04  0.15342431126E+04  0.12500000000E+03 0.  0.
</event>
<event>
 4    0  0.2168146E-002  0.2130016E+03  0.7546771E-02  0.1139211E+00
         21   -1    0    0  502  501  0.00000000000E+00  0.00000000000E+00  0.17544117116E+03  0.17544117116E+03  0.00000000000E+00 0.  1.
         21   -1    0    0  501  502 -0.00000000000E+00 -0.00000000000E+00 -0.25860327045E+03  0.25860327045E+03  0.00000000000E+00 0.  1.
         25    1    1    2    0    0  0.76153101993E+02 -0.10935121724E+03 -0.15313602739E+03  0.23839594489E+03  0.12500000000E+03 0.  0.
         25    1    1    2    0    0 -0.76153101993E+02  0.10935121724E+03  0.69973928101E+02  0.19564849672E+03  0.12500000000E+03 0.  0.
</event>
<event>
 4    0  0.2168146E-002  0.2156700E+03  0.7546771E-02  0.1137153E+00
         21   -1    0    0  502  501  0.00000000000E+00  0.00000000000E+00  0.14282120077E+02  0.14282120077E+02  0.00000000000E+00 0.  1.
         21   -1    0    0  501  502 -0.00000000000E+00 -0.00000000000E+00 -0.32567673597E+04  0.32567673597E+04  0.00000000000E+00 0.  1.
         25    1    1    2    0    0 -0.35964235382E+01 -0.67129634471E+02 -0.28526905543E+04  0.28562191303E+04  0.12500000000E+03 0.  0.
         25    1    1    2    0    0  0.35964235382E+01  0.67129634471E+02 -0.38979468537E+03  0.41483034945E+03  0.12500000000E+03 0.  0.
</event>
<event>
 4    0  0.2168146E-002  0.3107364E+03  0.7546771E-02  0.1079993E+00
         21   -1    0    0  502  501  0.00000000000E+00  0.00000000000E+00  0.85630515206E+02  0.85630515206E+02  0.00000000000E+00 0.  1.
         21   -1    0    0  501  502 -0.00000000000E+00 -0.00000000000E+00 -0.11276014590E+04  0.11276014590E+04  0.00000000000E+00 0.  1.
         25    1    1    2    0    0 -0.12640403967E+03 -0.14712638728E+03 -0.11472411387E+03  0.25770288586E+03  0.12500000000E+03 0.  0.
         25    1    1    2    0    0  0.12640403967E+03  0.14712638728E+03 -0.92724682997E+03  0.95552908839E+03  0.12500000000E+03 0.  0.
</event>
<event>
 4    0  0.2168146E-002  0.2157903E+03  0.7546771E-02  0.1137061E+00
         21   -1    0    0  502  501  0.00000000000E+00  0.00000000000E+00  0.22702162845E+03  0.22702162845E+03  0.00000000000E+00 0. -1.
         21   -1    0    0  501  502 -0.00000000000E+00 -0.00000000000E+00 -0.20511467108E+03  0.20511467108E+03  0.00000000000E+00 0. -1.
         25    1    1    2    0    0  0.11475508094E+03 -0.48107745757E+02 -0.11353431071E+03  0.20975729669E+03  0.12500000000E+03 0.  0.
         25    1    1    2    0    0 -0.11475508094E+03  0.48107745757E+02  0.13544126809E+03  0.22237900284E+03  0.12500000000E+03 0.  0.
</event>
<event>
 4    0  0.2168146E-002  0.1788896E+03  0.7546771E-02  0.1168882E+00
         21   -1    0    0  502  501  0.00000000000E+00  0.00000000000E+00  0.36822838906E+02  0.36822838906E+02  0.00000000000E+00 0.  1.
         21   -1    0    0  501  502 -0.00000000000E+00 -0.00000000000E+00 -0.86906651114E+03  0.86906651114E+03  0.00000000000E+00 0.  1.
         25    1    1    2    0    0 -0.12422965303E+03  0.21391151743E+02 -0.47193505552E+03  0.50422047231E+03  0.12500000000E+03 0.  0.
         25    1    1    2    0    0  0.12422965303E+03 -0.21391151743E+02 -0.36030861672E+03  0.40166887774E+03  0.12500000000E+03 0.  0.
</event>
<event>
 4    0  0.2168146E-002  0.2727624E+03  0.7546771E-02  0.1099709E+00
         21   -1    0    0  502  501  0.00000000000E+00  0.00000000000E+00  0.72501552240E+02  0.72501552240E+02  0.00000000000E+00 0. -1.
         21   -1    0    0  501  502 -0.00000000000E+00 -0.00000000000E+00 -0.10261752726E+04  0.10261752726E+04  0.00000000000E+00 0. -1.
         25    1    1    2    0    0 -0.13059696008E+03 -0.11365272678E+03 -0.13504218177E+03  0.25265371389E+03  0.12500000000E+03 0.  0.
         25    1    1    2    0    0  0.13059696008E+03  0.11365272678E+03 -0.81863153862E+03  0.84602311098E+03  0.12500000000E+03 0.  0.
</event>
<event>
 4    0  0.2168146E-002  0.2005060E+03  0.7546771E-02  0.1149313E+00
         21   -1    0    0  502  501  0.00000000000E+00  0.00000000000E+00  0.28517275775E+03  0.28517275775E+03  0.00000000000E+00 0.  1.
         21   -1    0    0  501  502 -0.00000000000E+00 -0.00000000000E+00 -0.14097648304E+03  0.14097648304E+03  0.00000000000E+00 0.  1.
         25    1    1    2    0    0 -0.66421364840E+02  0.77149487855E+02  0.19879318578E+03  0.25594447034E+03  0.12500000000E+03 0.  0.
         25    1    1    2    0    0  0.66421364840E+02 -0.77149487855E+02 -0.54596911071E+02  0.17020477044E+03  0.12500000000E+03 0.  0.
</event>
<event>
 4    0  0.2168146E-002  0.1683637E+03  0.7546771E-02  0.1179565E+00
         21   -1    0    0  502  501  0.00000000000E+00  0.00000000000E+00  0.26818118210E+03  0.26818118210E+03  0.00000000000E+00 0. -1.
         21   -1    0    0  501  502 -0.00000000000E+00 -0.00000000000E+00 -0.10569849631E+03  0.10569849631E+03  0.00000000000E+00 0. -1.
         25    1    1    2    0    0 -0.11015698832E+03  0.10238997460E+02  0.56865836626E+02  0.17634659770E+03  0.12500000000E+03 0.  0.
         25    1    1    2    0    0  0.11015698832E+03 -0.10238997460E+02  0.10561684917E+03  0.19753308071E+03  0.12500000000E+03 0.  0.
</event>
<event>
 4    0  0.2168146E-002  0.2002096E+03  0.7546771E-02  0.1149562E+00
         21   -1    0    0  502  501  0.00000000000E+00  0.00000000000E+00  0.20438551321E+02  0.20438551321E+02  0.00000000000E+00 0. -1.
         21   -1    0    0  501  502 -0.00000000000E+00 -0.00000000000E+00 -0.19611909635E+04  0.19611909635E+04  0.00000000000E+00 0. -1.
         25    1    1    2    0    0 -0.14174456164E+03  0.65107191663E+02 -0.91429089174E+03  0.93588637231E+03  0.12500000000E+03 0.  0.
         25    1    1    2    0    0  0.14174456164E+03 -0.65107191663E+02 -0.10264615204E+04  0.10457431425E+04  0.12500000000E+03 0.  0.
</event>
<event>
 4    0  0.2168146E-002  0.2408284E+03  0.7546771E-02  0.1119242E+00
         21   -1    0    0  502  501  0.00000000000E+00  0.00000000000E+00  0.42224783443E+02  0.42224783443E+02  0.00000000000E+00 0. -1.
         21   -1    0    0  501  502 -0.00000000000E+00 -0.00000000000E+00 -0.13735606418E+04  0.13735606418E+04  0.00000000000E+00 0. -1.
         25    1    1    2    0    0 -0.97959708733E+02  0.15755474781E+03 -0.40352126038E+03  0.46138271605E+03  0.12500000000E+03 0.  0.
         25    1    1    2    0    0  0.97959708733E+02 -0.15755474781E+03 -0.92781459797E+03  0.95440270919E+03  0.12500000000E+03 0.  0.
</event>
<event>
 4    0  0.2168146E-002  0.1841360E+03  0.7546771E-02  0.1163859E+00
         21   -1    0    0  502  501  0.00000000000E+00  0.00000000000E+00  0.99486364969E+02  0.99486364969E+02  0.00000000000E+00 0.  1.
         21   -1    0    0  501  502 -0.00000000000E+00 -0.00000000000E+00 -0.34081103091E+03  0.34081103091E+03  0.00000000000E+00 0.  1.
         25    1    1    2    0    0 -0.17362956395E+02 -0.10096254630E+03 -0.15165676707E+02  0.16232654053E+03  0.12500000000E+03 0.  0.
         25    1    1    2    0    0  0.17362956395E+02  0.10096254630E+03 -0.22615898923E+03  0.27797085535E+03  0.12500000000E+03 0.  0.
</event>
<event>
 4    0  0.2168146E-002  0.2229213E+03  0.7546771E-02  0.1131724E+00
         21   -1    0    0  502  501  0.00000000000E+00  0.00000000000E+00  0.11907604479E+04  0.11907604479E+04  0.00000000000E+00 0.  1.
         21   -1    0    0  501  502 -0.00000000000E+00 -0.00000000000E+00 -0.41732928026E+02  0.41732928026E+02  0.00000000000E+00 0.  1.
         25    1    1    2    0    0  0.61290803957E+02  0.10947111848E+03  0.94876704539E+03  0.96515511440E+03  0.12500000000E+03 0.  0.
         25    1    1    2    0    0 -0.61290803957E+02 -0.10947111848E+03  0.20026047444E+03  0.26733826148E+03  0.12500000000E+03 0.  0.
</event>
<event>
 4    0  0.2168146E-002  0.1877700E+03  0.7546771E-02  0.1160488E+00
         21   -1    0    0  502  501  0.00000000000E+00  0.00000000000E+00  0.88824351071E+03  0.88824351071E+03  0.00000000000E+00 0.  1.
         21   -1    0    0  501  502 -0.00000000000E+00 -0.00000000000E+00 -0.39693568778E+02  0.39693568778E+02  0.00000000000E+00 0.  1.
         25    1    1    2    0    0 -0.13711073275E+03 -0.28753326574E+02  0.41800050217E+03  0.45823086609E+03  0.12500000000E+03 0.  0.
         25    1    1    2    0    0  0.13711073275E+03  0.28753326574E+02  0.43054943976E+03  0.46970621340E+03  0.12500000000E+03 0.  0.
</event>
<event>
 4    0  0.2168146E-002  0.2151192E+03  0.7546771E-02  0.1137575E+00
         21   -1    0    0  502  501  0.00000000000E+00  0.00000000000E+00  0.16077471993E+03  0.16077471993E+03  0.00000000000E+00 0.  1.
         21   -1    0    0  501  502 -0.00000000000E+00 -0.00000000000E+00 -0.28783291909E+03  0.28783291909E+03  0.00000000000E+00 0.  1.
         25    1    1    2    0    0  0.16191673635E+03 -0.31486634071E+02 -0.12470983212E+03  0.24163190986E+03  0.12500000000E+03 0.  0.
         25    1    1    2    0    0 -0.16191673635E+03  0.31486634071E+02 -0.23483670352E+01  0.20697572916E+03  0.12500000000E+03 0.  0.
</event>
<event>
 4    0  0.2168146E-002  0.1806591E+03  0.7546771E-02  0.1167167E+00
         21   -1    0    0  502  501  0.00000000000E+00  0.00000000000E+00  0.10300356150E+02  0.10300356150E+02  0.00000000000E+00 0. -1.
         21   -1    0    0  501  502 -0.00000000000E+00 -0.00000000000E+00 -0.31685993421E+04  0.31685993421E+04  0.00000000000E+00 0. -1.
         25    1    1    2    0    0 -0.52715179015E+02 -0.45601969677E+02 -0.60919464011E+03  0.62578074377E+03  0.12500000000E+03 0.  0.
         25    1    1    2    0    0  0.52715179015E+02  0.45601969677E+02 -0.25491043459E+04  0.25531189545E+04  0.12500000000E+03 0.  0.
</event>
<event>
 4    0  0.2168146E-002  0.1989342E+03  0.7546771E-02  0.1150641E+00
         21   -1    0    0  502  501  0.00000000000E+00  0.00000000000E+00  0.15015331863E+03  0.15015331863E+03  0.00000000000E+00 0.  1.
         21   -1    0    0  501  502 -0.00000000000E+00 -0.00000000000E+00 -0.26356279937E+03  0.26356279937E+03  0.00000000000E+00 0.  1.
         25    1    1    2    0    0  0.77726718384E+02 -0.82132087824E+02  0.53157303091E+02  0.17674224586E+03  0.12500000000E+03 0.  0.
         25    1    1    2    0    0 -0.77726718384E+02  0.82132087824E+02 -0.16656678383E+03  0.23697387214E+03  0.12500000000E+03 0.  0.
</event>
<event>
 4    0  0.2168146E-002  0.1710713E+03  0.7546771E-02  0.1176735E+00
         21   -1    0    0  502  501  0.00000000000E+00  0.00000000000E+00  0.23010002150E+02  0.23010002150E+02  0.00000000000E+00 0.  1.
         21   -1    0    0  501  502 -0.00000000000E+00 -0.00000000000E+00 -0.12718552184E+04  0.12718552184E+04  0.00000000000E+00 0.  1.
         25    1    1    2    0    0 -0.66695131952E+02  0.58812592978E+02 -0.91098359860E+03  0.92380911374E+03  0.12500000000E+03 0.  0.
         25    1    1    2    0    0  0.66695131952E+02 -0.58812592978E+02 -0.33786161768E+03  0.37105610684E+03  0.12500000000E+03 0.  0.
</event>
<event>
 4    0  0.2168146E-002  0.2142498E+03  0.7546771E-02  0.1138244E+00
         21   -1    0    0  502  501  0.00000000000E+00  0.00000000000E+00  0.10693755936E+04  0.10693755936E+04  0.00000000000E+00 0.  1.
         21   -1    0    0  501  502 -0.00000000000E+00 -0.00000000000E+00 -0.42925034568E+02  0.42925034568E+02  0.00000000000E+00 0.  1.
         25    1    1    2    0    0  0.23352065452E+02  0.65300396860E+02  0.98964698101E+02  0.17386337240E+03  0.12500000000E+03 0.  0.
         25    1    1    2    0    0 -0.23352065452E+02 -0.65300396860E+02  0.92748586090E+03  0.93843725574E+03  0.12500000000E+03 0.  0.
</event>
<event>
 4    0  0.2168146E-002  0.3064416E+03  0.7546771E-02  0.1082064E+00
         21   -1    0    0  502  501  0.00000000000E+00  0.00000000000E+00  0.64321616793E+03  0.64321616793E+03  0.00000000000E+00 0.  1.
         21   -1    0    0  501  502 -0.00000000000E+00 -0.00000000000E+00 -0.14599518110E+03  0.14599518110E+03  0.00000000000E+00 0.  1.
         25    1    1    2    0    0 -0.22615167141E+03  0.16025249147E+02  0.37489792957E+02  0.26159486170E+03  0.12500000000E+03 0.  0.
         25    1    1    2    0    0  0.22615167141E+03 -0.16025249147E+02  0.45973119387E+03  0.52761648734E+03  0.12500000000E+03 0.  0.
</event>
<event>
 4    0  0.2168146E-002  0.3373150E+03  0.7546771E-02  0.1067945E+00
         21   -1    0    0  502  501  0.00000000000E+00  0.00000000000E+00  0.97180542263E+02  0.97180542263E+02  0.00000000000E+00 0.  1.
         21   -1    0    0  501  502 -0.00000000000E+00 -0.00000000000E+00 -0.11708249185E+04  0.11708249185E+04  0.00000000000E+00 0.  1.
         25    1    1    2    0    0  0.17035768224E+03 -0.24988001903E+03 -0.69060896561E+03  0.76421692417E+03  0.12500000000E+03 0.  0.
         25    1    1    2    0    0 -0.17035768224E+03  0.24988001903E+03 -0.38303541065E+03  0.50378853661E+03  0.12500000000E+03 0.  0.
</event>
<event>
 4    0  0.2168146E-002  0.2629269E+03  0.7546771E-02  0.1105397E+00
         21   -1    0    0  502  501  0.00000000000E+00  0.00000000000E+00  0.86326193855E+02  0.86326193855E+02  0.00000000000E+00 0. -1.
         21   -1    0    0  501  502 -0.00000000000E+00 -0.00000000000E+00 -0.80080624722E+03  0.80080624722E+03  0.00000000000E+00 0. -1.
         25    1    1    2    0    0  0.22101457857E+03 -0.25190973269E+02 -0.46425064239E+03  0.52975059040E+03  0.12500000000E+03 0.  0.
         25    1    1    2    0    0 -0.22101457857E+03  0.25190973269E+02 -0.25022941098E+03  0.35738185068E+03  0.12500000000E+03 0.  0.
</event>
<event>
 4    0  0.2168146E-002  0.1639555E+03  0.7546771E-02  0.1184302E+00
         21   -1    0    0  502  501  0.00000000000E+00  0.00000000000E+00  0.21975380272E+03  0.21975380272E+03  0.00000000000E+00 0. -1.
         21   -1    0    0  501  502 -0.00000000000E+00 -0.00000000000E+00 -0.12232516331E+03  0.12232516331E+03  0.00000000000E+00 0. -1.
         25    1    1    2    0    0 -0.54602463640E+02 -0.60898188603E+02  0.11920915751E+03  0.19111735045E+03  0.12500000000E+03 0.  0.
         25    1    1    2    0    0  0.54602463640E+02  0.60898188603E+02 -0.21780518101E+02  0.15096161558E+03  0.12500000000E+03 0.  0.
</event>
<event>
 4    0  0.2168146E-002  0.2199589E+03  0.7546771E-02  0.1133914E+00
         21   -1    0    0  502  501  0.00000000000E+00  0.00000000000E+00  0.13750652690E+04  0.13750652690E+04  0.00000000000E+00 0.  1.
         21   -1    0    0  501  502 -0.00000000000E+00 -0.00000000000E+00 -0.35185163730E+02  0.35185163730E+02  0.00000000000E+00 0.  1.
         25    1    1    2    0    0  0.25879510031E+02 -0.15441641040E+03  0.37889510172E+03  0.42860316722E+03  0.12500000000E+03 0.  0.
         25    1    1    2    0    0 -0.25879510031E+02  0.15441641040E+03  0.96098500354E+03  0.98164726551E+03  0.12500000000E+03 0.  0.
</event>
<event>
 4    0  0.2168146E-002  0.3517642E+03  0.7546771E-02  0.1061893E+00
         21   -1    0    0  502  501  0.00000000000E+00  0.00000000000E+00  0.12137856011E+03  0.12137856011E+03  0.00000000000E+00 0.  1.
         21   -1    0    0  501  502 -0.00000000000E+00 -0.00000000000E+00 -0.10194391476E+04  0.10194391476E+04  0.00000000000E+00 0.  1.
         25    1    1    2    0    0  0.10135190582E+03 -0.19965833388E+03 -0.58581604266E+02  0.26304460356E+03  0.12500000000E+03 0.  0.
         25    1    1    2    0    0 -0.10135190582E+03  0.19965833388E+03 -0.83947898323E+03  0.87777310416E+03  0.12500000000E+03 0.  0.
</event>
<event>
 4    0  0.2168146E-002  0.2369981E+03  0.7546771E-02  0.1121809E+00
         21   -1    0    0  502  501  0.00000000000E+00  0.00000000000E+00  0.46733955333E+02  0.46733955333E+02  0.00000000000E+00 0. -1.
         21   -1    0    0  501  502 -0.00000000000E+00 -0.00000000000E+00 -0.12018695371E+04  0.12018695371E+04  0.00000000000E+00 0. -1.
         25    1    1    2    0    0 -0.91636832961E+02 -0.14957175174E+03 -0.31713960402E+03  0.38336868223E+03  0.12500000000E+03 0.  0.
         25    1    1    2    0    0  0.91636832961E+02  0.14957175174E+03 -0.83799597776E+03  0.86523481022E+03  0.12500000000E+03 0.  0.
</event>
<event>
 4    0  0.2168146E-002  0.2377010E+03  0.7546771E-02  0.1121334E+00
         21   -1    0    0  502  501  0.00000000000E+00  0.00000000000E+00  0.38955669144E+03  0.38955669144E+03  0.00000000000E+00 0.  1.
         21   -1    0    0  501  502 -0.00000000000E+00 -0.00000000000E+00 -0.14504122138E+03  0.14504122138E+03  0.00000000000E+00 0.  1.
         25    1    1    2    0    0 -0.18865228094E+03 -0.33773959429E+02  0.49847062321E+02  0.23417961709E+03  0.12500000000E+03 0.  0.
         25    1    1    2    0    0  0.18865228094E+03  0.33773959429E+02  0.19466840775E+03  0.30041829573E+03  0.12500000000E+03 0.  0.
</event>
<event>
 4    0  0.2168146E-002  0.3092715E+03  0.7546771E-02  0.1080696E+00
         21   -1    0    0  502  501  0.00000000000E+00  0.00000000000E+00  0.12510414349E+04  0.12510414349E+04  0.00000000000E+00 0.  1.
         21   -1    0    0  501  502 -0.00000000000E+00 -0.00000000000E+00 -0.76455401118E+02  0.76455401118E+02  0.00000000000E+00 0.  1.
         25    1    1    2    0    0 -0.55797487182E+02  0.27715398747E+03  0.56624499384E+03  0.64512486031E+03  0.12500000000E+03 0.  0.
         25    1    1    2    0    0  0.55797487182E+02 -0.27715398747E+03  0.60834103993E+03  0.68237197569E+03  0.12500000000E+03 0.  0.
</event>
<event>
 4    0  0.2168146E-002  0.1931166E+03  0.7546771E-02  0.1155680E+00
         21   -1    0    0  502  501  0.00000000000E+00  0.00000000000E+00  0.73480847665E+03  0.73480847665E+03  0.00000000000E+00 0.  1.
         21   -1    0    0  501  502 -0.00000000000E+00 -0.00000000000E+00 -0.50753413376E+02  0.50753413376E+02  0.00000000000E+00 0.  1.
         25    1    1    2    0    0  0.53700109928E+02 -0.12845218630E+03  0.43925952577E+03  0.47744905169E+03  0.12500000000E+03 0.  0.
         25    1    1    2    0    0 -0.53700109928E+02  0.12845218630E+03  0.24479553750E+03  0.30811283834E+03  0.12500000000E+03 0.  0.
</event>
<event>
 4    0  0.2168146E-002  0.2280051E+03  0.7546771E-02  0.1128052E+00
         21   -1    0    0  502  501  0.00000000000E+00  0.00000000000E+00  0.71858574645E+02  0.71858574645E+02  0.00000000000E+00 0. -1.
         21   -1    0    0  501  502 -0.00000000000E+00 -0.00000000000E+00 -0.72345362586E+03  0.72345362586E+03  0.00000000000E+00 0. -1.
         25    1    1    2    0    0 -0.66653975737E+01  0.19046163945E+03 -0.33700344041E+03  0.40683704658E+03  0.12500000000E+03 0.  0.
         25    1    1    2    0    0  0.66653975737E+01 -0.19046163945E+03 -0.31459161081E+03  0.38847515392E+03  0.12500000000E+03 0.  0.
</event>
<event>
 4    0  0.2168146E-002  0.1803321E+03  0.7546771E-02  0.1167482E+00
         21   -1    0    0  502  501  0.00000000000E+00  0.00000000000E+00  0.94472368631E+03  0.94472368631E+03  0.00000000000E+00 0.  1.
         21   -1    0    0  501  502 -0.00000000000E+00 -0.00000000000E+00 -0.34422405697E+02  0.34422405697E+02  0.00000000000E+00 0.  1.
         25    1    1    2    0    0  0.10545441514E+03 -0.66563418061E+02  0.55465392408E+03  0.58208014722E+03  0.12500000000E+03 0.  0.
         25    1    1    2    0    0 -0.10545441514E+03  0.66563418061E+02  0.35564735654E+03  0.39706594479E+03  0.12500000000E+03 0.  0.
</event>
<event>
 4    0  0.2168146E-002  0.1828332E+03  0.7546771E-02  0.1165089E+00
         21   -1    0    0  502  501  0.00000000000E+00  0.00000000000E+00  0.30201548831E+03  0.30201548831E+03  0.00000000000E+00 0.  1.
         21   -1    0    0  501  502 -0.00000000000E+00 -0.00000000000E+00 -0.11068303020E+03  0.11068303020E+03  0.00000000000E+00 0.  1.
         25    1    1    2    0    0 -0.12175705773E+03 -0.50718355927E+01  0.34340655204E+02  0.17791791709E+03  0.12500000000E+03 0.  0.
         25    1    1    2    0    0  0.12175705773E+03  0.50718355927E+01  0.15699180290E+03  0.23478060141E+03  0.12500000000E+03 0.  0.
</event>
<event>
 4    0  0.2168146E-002  0.1869279E+03  0.7546771E-02  0.1161262E+00
         21   -1    0    0  502  501  0.00000000000E+00  0.00000000000E+00  0.11286025655E+03  0.11286025655E+03  0.00000000000E+00 0.  1.
         21   -1    0    0  501  502 -0.00000000000E+00 -0.00000000000E+00 -0.30960455507E+03  0.30960455507E+03  0.00000000000E+00 0.  1.
         25    1    1    2    0    0  0.16573867269E+02 -0.55279202826E+02 -0.24124968555E+03  0.27777129823E+03  0.12500000000E+03 0.  0.
         25    1    1    2    0    0 -0.16573867269E+02  0.55279202826E+02  0.44505387037E+02  0.14469351339E+03  0.12500000000E+03 0.  0.
</event>
<event>
 4    0  0.2168146E-002  0.2076187E+03  0.7546771E-02  0.1143466E+00
         21   -1    0    0  502  501  0.00000000000E+00  0.00000000000E+00  0.30072414991E+02  0.30072414991E+02  0.00000000000E+00 0. -1.
         21   -1    0    0  501  502 -0.00000000000E+00 -0.00000000000E+00 -0.14333908703E+04  0.14333908703E+04  0.00000000000E+00 0. -1.
         25    1    1    2    0    0 -0.22757813039E+00 -0.16183366195E+03 -0.57505817829E+03  0.61033359268E+03  0.12500000000E+03 0.  0.
         25    1    1    2    0    0  0.22757813039E+00  0.16183366195E+03 -0.82826027697E+03  0.85312969256E+03  0.12500000000E+03 0.  0.
</event>
<event>
 4    0  0.2168146E-002  0.4381752E+03  0.7546771E-02  0.1031308E+00
         21   -1    0    0  502  501  0.00000000000E+00  0.00000000000E+00  0.27794837620E+03  0.27794837620E+03  0.00000000000E+00 0. -1.
         21   -1    0    0  501  502 -0.00000000000E+00 -0.00000000000E+00 -0.69076686949E+03  0.69076686949E+03  0.00000000000E+00 0. -1.
         25    1    1    2    0    0 -0.35196754054E+03  0.21220059586E+03 -0.11092003688E+03  0.44366484767E+03  0.12500000000E+03 0.  0.
         25    1    1    2    0    0  0.35196754054E+03 -0.21220059586E+03 -0.30189845641E+03  0.52505039802E+03  0.12500000000E+03 0.  0.
</event>
<event>
 4    0  0.2168146E-002  0.2304293E+03  0.7546771E-02  0.1126338E+00
         21   -1    0    0  502  501  0.00000000000E+00  0.00000000000E+00  0.72698447279E+02  0.72698447279E+02  0.00000000000E+00 0. -1.
         21   -1    0    0  501  502 -0.00000000000E+00 -0.00000000000E+00 -0.73038224848E+03  0.73038224848E+03  0.00000000000E+00 0. -1.
         25    1    1    2    0    0  0.69454168375E+02  0.13676380677E+03 -0.12306719911E+03  0.23302093434E+03  0.12500000000E+03 0.  0.
         25    1    1    2    0    0 -0.69454168375E+02 -0.13676380677E+03 -0.53461660209E+03  0.57005976141E+03  0.12500000000E+03 0.  0.
</event>
<event>
 4    0  0.2168146E-002  0.1546184E+03  0.7546771E-02  0.1194910E+00
         21   -1    0    0  502  501  0.00000000000E+00  0.00000000000E+00  0.14113064871E+03  0.14113064871E+03  0.00000000000E+00 0. -1.
         21   -1    0    0  501  502 -0.00000000000E+00 -0.00000000000E+00 -0.16939506844E+03  0.16939506844E+03  0.00000000000E+00 0. -1.
         25    1    1    2    0    0  0.56159613397E+02  0.67773272516E+02  0.90881329055E+01  0.15314931539E+03  0.12500000000E+03 0.  0.
         25    1    1    2    0    0 -0.56159613397E+02 -0.67773272516E+02 -0.37352552636E+02  0.15737640177E+03  0.12500000000E+03 0.  0.
</event>
<event>
 4    0  0.2168146E-002  0.1873816E+03  0.7546771E-02  0.1160844E+00
         21   -1    0    0  502  501  0.00000000000E+00  0.00000000000E+00  0.32520499682E+03  0.32520499682E+03  0.00000000000E+00 0. -1.
         21   -1    0    0  501  502 -0.00000000000E+00 -0.00000000000E+00 -0.10796836212E+03  0.10796836212E+03  0.00000000000E+00 0. -1.
         25    1    1    2    0    0  0.61651951666E+02  0.35760987798E+02 -0.30118668350E+02  0.14701001862E+03  0.12500000000E+03 0.  0.
         25    1    1    2    0    0 -0.61651951666E+02 -0.35760987798E+02  0.24735530305E+03  0.28616334031E+03  0.12500000000E+03 0.  0.
</event>
<event>
 4    0  0.2168146E-002  0.2396561E+03  0.7546771E-02  0.1120022E+00
         21   -1    0    0  502  501  0.00000000000E+00  0.00000000000E+00  0.22437558576E+03  0.22437558576E+03  0.00000000000E+00 0. -1.
         21   -1    0    0  501  502 -0.00000000000E+00 -0.00000000000E+00 -0.25597727610E+03  0.25597727610E+03  0.00000000000E+00 0. -1.
         25    1    1    2    0    0 -0.19825484637E+03 -0.99863482042E+01  0.33349901274E+02  0.23694287745E+03  0.12500000000E+03 0.  0.
         25    1    1    2    0    0  0.19825484637E+03  0.99863482042E+01 -0.64951591611E+02  0.24340998442E+03  0.12500000000E+03 0.  0.
</event>
<event>
 4    0  0.2168146E-002  0.2072355E+03  0.7546771E-02  0.1143774E+00
         21   -1    0    0  502  501  0.00000000000E+00  0.00000000000E+00  0.59079336151E+03  0.59079336151E+03  0.00000000000E+00 0. -1.
         21   -1    0    0  501  502 -0.00000000000E+00 -0.00000000000E+00 -0.72693012799E+02  0.72693012799E+02  0.00000000000E+00 0. -1.
         25    1    1    2    0    0 -0.15848640551E+03  0.35685028285E+02  0.30787302175E+03  0.36986775947E+03  0.12500000000E+03 0.  0.
         25    1    1    2    0    0  0.15848640551E+03 -0.35685028285E+02  0.21022732696E+03  0.29361861483E+03  0.12500000000E+03 0.  0.
</event>
<event>
 4    0  0.2168146E-002  0.1379545E+03  0.7546771E-02  0.1216108E+00
         21   -1    0    0  502  501  0.00000000000E+00  0.00000000000E+00  0.54531589128E+03  0.54531589128E+03  0.00000000000E+00 0. -1.
         21   -1    0    0  501  502 -0.00000000000E+00 -0.00000000000E+00 -0.34899858904E+02  0.34899858904E+02  0.00000000000E+00 0. -1.
         25    1    1    2    0    0  0.20802548829E+02 -0.11837966900E+02  0.14326677155E+03  0.19163311647E+03  0.12500000000E+03 0.  0.
         25    1    1    2    0    0 -0.20802548829E+02  0.11837966900E+02  0.36714926083E+03  0.38858263372E+03  0.12500000000E+03 0.  0.
</event>
<event>
 4    0  0.2168146E-002  0.2224644E+03  0.7546771E-02  0.1132059E+00
         21   -1    0    0  502  501  0.00000000000E+00  0.00000000000E+00  0.22356788190E+03  0.22356788190E+03  0.00000000000E+00 0. -1.
         21   -1    0    0  501  502 -0.00000000000E+00 -0.00000000000E+00 -0.22136645512E+03  0.22136645512E+03  0.00000000000E+00 0. -1.
         25    1    1    2    0    0 -0.12976162708E+03  0.12801209720E+03  0.26404236429E+02  0.22259236418E+03  0.12500000000E+03 0.  0.
         25    1    1    2    0    0  0.12976162708E+03 -0.12801209720E+03 -0.24202809652E+02  0.22234197284E+03  0.12500000000E+03 0.  0.
</event>
<event>
 4    0  0.2168146E-002  0.2121885E+03  0.7546771E-02  0.1139845E+00
         21   -1    0    0  502  501  0.00000000000E+00  0.00000000000E+00  0.95711066624E+02  0.95711066624E+02  0.00000000000E+00 0.  1.
         21   -1    0    0  501  502 -0.00000000000E+00 -0.00000000000E+00 -0.47041523364E+03  0.47041523364E+03  0.00000000000E+00 0.  1.
         25    1    1    2    0    0 -0.77730879528E+02 -0.96380319395E+02 -0.29127873741E+02  0.17833869078E+03  0.12500000000E+03 0.  0.
         25    1    1    2    0    0  0.77730879528E+02  0.96380319395E+02 -0.34557629328E+03  0.38778760949E+03  0.12500000000E+03 0.  0.
</event>
<event>
 4    0  0.2168146E-002  0.3113413E+03  0.7546771E-02  0.1079705E+00
         21   -1    0    0  502  501  0.00000000000E+00  0.00000000000E+00  0.37717439539E+03  0.37717439539E+03  0.00000000000E+00 0.  1.
         21   -1    0    0  501  502 -0.00000000000E+00 -0.00000000000E+00 -0.25699896875E+03  0.25699896875E+03  0.00000000000E+00 0.  1.
         25    1    1    2    0    0 -0.63973993970E+02  0.16011975123E+03 -0.17120983737E+03  0.27325595154E+03  0.12500000000E+03 0.  0.
         25    1    1    2    0    0  0.63973993970E+02 -0.16011975123E+03  0.29138526401E+03  0.36091741260E+03  0.12500000000E+03 0.  0.
</event>
<event>
 4    0  0.2168146E-002  0.2133157E+03  0.7546771E-02  0.1138967E+00
         21   -1    0    0  502  501  0.00000000000E+00  0.00000000000E+00  0.93522601855E+03  0.93522601855E+03  0.00000000000E+00 0. -1.
         21   -1    0    0  501  502 -0.00000000000E+00 -0.00000000000E+00 -0.48655174706E+02  0.48655174706E+02  0.00000000000E+00 0. -1.
         25    1    1    2    0    0 -0.17012617632E+03 -0.25714101271E+02  0.40508000071E+03  0.45751386629E+03  0.12500000000E+03 0.  0.
         25    1    1    2    0    0  0.17012617632E+03  0.25714101271E+02  0.48149084313E+03  0.52636732696E+03  0.12500000000E+03 0.  0.
</event>
<event>
 4    0  0.2168146E-002  0.3439166E+03  0.7546771E-02  0.1065140E+00
         21   -1    0    0  502  501  0.00000000000E+00  0.00000000000E+00  0.37637717250E+03  0.37637717250E+03  0.00000000000E+00 0.  1.
         21   -1    0    0  501  502 -0.00000000000E+00 -0.00000000000E+00 -0.31425561419E+03  0.31425561419E+03  0.00000000000E+00 0.  1.
         25    1    1    2    0    0  0.16887872167E+03 -0.25510134885E+03  0.12661596699E+03  0.35391146339E+03  0.12500000000E+03 0.  0.
         25    1    1    2    0    0 -0.16887872167E+03  0.25510134885E+03 -0.64494408680E+02  0.33672132331E+03  0.12500000000E+03 0.  0.
</event>
<event>
 4    0  0.2168146E-002  0.3181074E+03  0.7546771E-02  0.1076524E+00
         21   -1    0    0  502  501  0.00000000000E+00  0.00000000000E+00  0.70352270666E+02  0.70352270666E+02  0.00000000000E+00 0.  1.
         21   -1    0    0  501  502 -0.00000000000E+00 -0.00000000000E+00 -0.14383664064E+04  0.14383664064E+04  0.00000000000E+00 0.  1.
         25    1    1    2    0    0  0.20026094133E+03  0.17884111649E+03 -0.40869242779E+03  0.50472080411E+03  0.12500000000E+03 0.  0.
         25    1    1    2    0    0 -0.20026094133E+03 -0.17884111649E+03 -0.95932170792E+03  0.10039978729E+04  0.12500000000E+03 0.  0.
</event>
<event>
 4    0  0.2168146E-002  0.1780281E+03  0.7546771E-02  0.1169725E+00
         21   -1    0    0  502  501  0.00000000000E+00  0.00000000000E+00  0.30718799546E+03  0.30718799546E+03  0.00000000000E+00 0.  1.
         21   -1    0    0  501  502 -0.00000000000E+00 -0.00000000000E+00 -0.10317460557E+03  0.10317460557E+03  0.00000000000E+00 0. -1.
         25    1    1    2    0    0 -0.11437554486E+03  0.15354689180E+02  0.16246159732E+03  0.23523669430E+03  0.12500000000E+03 0.  0.
         25    1    1    2    0    0  0.11437554486E+03 -0.15354689180E+02  0.41551792572E+02  0.17512590673E+03  0.12500000000E+03 0.  0.
</event>
<event>
 4    0  0.2168146E-002  0.1841485E+03  0.7546771E-02  0.1163847E+00
         21   -1    0    0  502  501  0.00000000000E+00  0.00000000000E+00  0.29195513748E+03  0.29195513748E+03  0.00000000000E+00 0.  1.
         21   -1    0    0  501  502 -0.00000000000E+00 -0.00000000000E+00 -0.11615021789E+03  0.11615021789E+03  0.00000000000E+00 0.  1.
         25    1    1    2    0    0  0.81414855697E+02  0.61045110458E+02 -0.10778158476E+02  0.16154272791E+03  0.12500000000E+03 0.  0.
         25    1    1    2    0    0 -0.81414855697E+02 -0.61045110458E+02  0.18658307806E+03  0.24656262746E+03  0.12500000000E+03 0.  0.
</event>
<event>
 4    0  0.2168146E-002  0.1874826E+03  0.7546771E-02  0.1160752E+00
         21   -1    0    0  502  501  0.00000000000E+00  0.00000000000E+00  0.79822471876E+02  0.79822471876E+02  0.00000000000E+00 0.  1.
         21   -1    0    0  501  502 -0.00000000000E+00 -0.00000000000E+00 -0.44034890864E+03  0.44034890864E+03  0.00000000000E+00 0.  1.
         25    1    1    2    0    0 -0.12341902191E+03  0.65127492709E+02 -0.19015979193E+03  0.26694492268E+03  0.12500000000E+03 0.  0.
         25    1    1    2    0    0  0.12341902191E+03 -0.65127492709E+02 -0.17036664483E+03  0.25322645783E+03  0.12500000000E+03 0.  0.
</event>
<event>
 4    0  0.2168146E-002  0.3777917E+03  0.7546771E-02  0.1051753E+00
         21   -1    0    0  502  501  0.00000000000E+00  0.00000000000E+00  0.30686308437E+03  0.30686308437E+03  0.00000000000E+00 0. -1.
         21   -1    0    0  501  502 -0.00000000000E+00 -0.00000000000E+00 -0.46511472559E+03  0.46511472559E+03  0.00000000000E+00 0. -1.
         25    1    1    2    0    0  0.91387984203E+02  0.21060591888E+02  0.27229400250E+03  0.31394957555E+03  0.12500000000E+03 0.  0.
         25    1    1    2    0    0 -0.91387984203E+02 -0.21060591888E+02 -0.43054564372E+03  0.45802823441E+03  0.12500000000E+03 0.  0.
</event>
<event>
 4    0  0.2168146E-002  0.2511137E+03  0.7546771E-02  0.1112603E+00
         21   -1    0    0  502  501  0.00000000000E+00  0.00000000000E+00  0.49990335228E+02  0.49990335228E+02  0.00000000000E+00 0.  1.
         21   -1    0    0  501  502 -0.00000000000E+00 -0.00000000000E+00 -0.12614053619E+04  0.12614053619E+04  0.00000000000E+00 0.  1.
         25    1    1    2    0    0  0.29752518804E+02 -0.75731769075E+02 -0.11332170748E+04  0.11429901363E+04  0.12500000000E+03 0.  0.
         25    1    1    2    0    0 -0.29752518804E+02  0.75731769075E+02 -0.78197951902E+02  0.16840556079E+03  0.12500000000E+03 0.  0.
</event>
<event>
 4    0  0.2168146E-002  0.2180797E+03  0.7546771E-02  0.1135323E+00
         21   -1    0    0  502  501  0.00000000000E+00  0.00000000000E+00  0.35437599361E+03  0.35437599361E+03  0.00000000000E+00 0. -1.
         21   -1    0    0  501  502 -0.00000000000E+00 -0.00000000000E+00 -0.13420425204E+03  0.13420425204E+03  0.00000000000E+00 0. -1.
         25    1    1    2    0    0  0.11162502438E+03 -0.11341868775E+03  0.20115799184E+03  0.28533047941E+03  0.12500000000E+03 0.  0.
         25    1    1    2    0    0 -0.11162502438E+03  0.11341868775E+03  0.19013749723E+02  0.20324976624E+03  0.12500000000E+03 0.  0.
</event>
<event>
 4    0  0.2168146E-002  0.1834957E+03  0.7546771E-02  0.1164462E+00
         21   -1    0    0  502  501  0.00000000000E+00  0.00000000000E+00  0.14642096120E+03  0.14642096120E+03  0.00000000000E+00 0. -1.
         21   -1    0    0  501  502 -0.00000000000E+00 -0.00000000000E+00 -0.22995788176E+03  0.22995788176E+03  0.00000000000E+00 0. -1.
         25    1    1    2    0    0  0.37551623723E+02 -0.11516748453E+03 -0.10132259722E+03  0.20140740464E+03  0.12500000000E+03 0.  0.
         25    1    1    2    0    0 -0.37551623723E+02  0.11516748453E+03  0.17785676656E+02  0.17497143833E+03  0.12500000000E+03 0.  0.
</event>
<event>
 4    0  0.2168146E-002  0.2013263E+03  0.7546771E-02  0.1148625E+00
         21   -1    0    0  502  501  0.00000000000E+00  0.00000000000E+00  0.32321057926E+02  0.32321057926E+02  0.00000000000E+00 0.  1.
         21   -1    0    0  501  502 -0.00000000000E+00 -0.00000000000E+00 -0.12540518211E+04  0.12540518211E+04  0.00000000000E+00 0.  1.
         25    1    1    2    0    0  0.13684709750E+03  0.38647853639E+02 -0.82957129195E+03  0.85090205847E+03  0.12500000000E+03 0.  0.
         25    1    1    2    0    0 -0.13684709750E+03 -0.38647853639E+02 -0.39215947126E+03  0.43547082059E+03  0.12500000000E+03 0.  0.
</event>
<event>
 4    0  0.2168146E-002  0.2119493E+03  0.7546771E-02  0.1140032E+00
         21   -1    0    0  502  501  0.00000000000E+00  0.00000000000E+00  0.96575909914E+03  0.96575909914E+03  0.00000000000E+00 0. -1.
         21   -1    0    0  501  502 -0.00000000000E+00 -0.00000000000E+00 -0.46515244315E+02  0.46515244315E+02  0.00000000000E+00 0. -1.
         25    1    1    2    0    0  0.24918515032E+02 -0.18649951630E+02  0.57692304730E+02  0.14114586467E+03  0.12500000000E+03 0.  0.
         25    1    1    2    0    0 -0.24918515032E+02  0.18649951630E+02  0.86155155010E+03  0.87112847879E+03  0.12500000000E+03 0.  0.
</event>
<event>
 4    0  0.2168146E-002  0.2180462E+03  0.7546771E-02  0.1135348E+00
         21   -1    0    0  502  501  0.00000000000E+00  0.00000000000E+00  0.54144342639E+03  0.54144342639E+03  0.00000000000E+00 0. -1.
         21   -1    0    0  501  502 -0.00000000000E+00 -0.00000000000E+00 -0.87809958947E+02  0.87809958947E+02  0.00000000000E+00 0. -1.
         25    1    1    2    0    0 -0.95727851264E+02  0.15080314998E+03  0.23216017652E+03  0.31847882051E+03  0.12500000000E+03 0.  0.
         25    1    1    2    0    0  0.95727851264E+02 -0.15080314998E+03  0.22147329092E+03  0.31077456483E+03  0.12500000000E+03 0.  0.
</event>
<event>
 4    0  0.2168146E-002  0.2206090E+03  0.7546771E-02  0.1133430E+00
         21   -1    0    0  502  501  0.00000000000E+00  0.00000000000E+00  0.66956224752E+03  0.66956224752E+03  0.00000000000E+00 0.  1.
         21   -1    0    0  501  502 -0.00000000000E+00 -0.00000000000E+00 -0.72686796945E+02  0.72686796945E+02  0.00000000000E+00 0.  1.
         25    1    1    2    0    0  0.46626334742E+02  0.10224415534E+03  0.53880531811E+03  0.56441478827E+03  0.12500000000E+03 0.  0.
         25    1    1    2    0    0 -0.46626334742E+02 -0.10224415534E+03  0.58070132471E+02  0.17783425620E+03  0.12500000000E+03 0.  0.
</event>
<event>
 4    0  0.2168146E-002  0.3375118E+03  0.7546771E-02  0.1067861E+00
         21   -1    0    0  502  501  0.00000000000E+00  0.00000000000E+00  0.58688077019E+03  0.58688077019E+03  0.00000000000E+00 0.  1.
         21   -1    0    0  501  502 -0.00000000000E+00 -0.00000000000E+00 -0.19410109899E+03  0.19410109899E+03  0.00000000000E+00 0.  1.
         25    1    1    2    0    0 -0.72045852410E+02 -0.19740659736E+03  0.46556683984E+03  0.52586828379E+03  0.12500000000E+03 0.  0.
         25    1    1    2    0    0  0.72045852410E+02  0.19740659736E+03 -0.72787168649E+02  0.25511358539E+03  0.12500000000E+03 0.  0.
</event>
<event>
 4    0  0.2168146E-002  0.1931525E+03  0.7546771E-02  0.1155648E+00
         21   -1    0    0  502  501  0.00000000000E+00  0.00000000000E+00  0.32923206048E+03  0.32923206048E+03  0.00000000000E+00 0. -1.
         21   -1    0    0  501  502 -0.00000000000E+00 -0.00000000000E+00 -0.11331796009E+03  0.11331796009E+03  0.00000000000E+00 0. -1.
         25    1    1    2    0    0  0.38834495498E+02  0.14193206255E+03  0.11423979924E+03  0.22434027759E+03  0.12500000000E+03 0.  0.
         25    1    1    2    0    0 -0.38834495498E+02 -0.14193206255E+03  0.10167430114E+03  0.21820974298E+03  0.12500000000E+03 0.  0.
</event>
<event>
 4    0  0.2168146E-002  0.2685687E+03  0.7546771E-02  0.1102102E+00
         21   -1    0    0  502  501  0.00000000000E+00  0.00000000000E+00  0.17508783393E+04  0.17508783393E+04  0.00000000000E+00 0.  1.
         21   -1    0    0  501  502 -0.00000000000E+00 -0.00000000000E+00 -0.41195986055E+02  0.41195986055E+02  0.00000000000E+00 0.  1.
         25    1    1    2    0    0  0.18769533536E+03 -0.78596112835E+02  0.44490162418E+03  0.50494489112E+03  0.12500000000E+03 0.  0.
         25    1    1    2    0    0 -0.18769533536E+03  0.78596112835E+02  0.12647807291E+04  0.12871294342E+04  0.12500000000E+03 0.  0.
</event>
<event>
 4    0  0.2168146E-002  0.4231480E+03  0.7546771E-02  0.1036047E+00
         21   -1    0    0  502  501  0.00000000000E+00  0.00000000000E+00  0.61188120300E+03  0.61188120300E+03  0.00000000000E+00 0. -1.
         21   -1    0    0  501  502 -0.00000000000E+00 -0.00000000000E+00 -0.29262910381E+03  0.29262910381E+03  0.00000000000E+00 0.  1.
         25    1    1    2    0    0 -0.91917591175E+02 -0.38406510513E+03  0.67224476729E+02  0.41964148844E+03  0.12500000000E+03 0.  0.
         25    1    1    2    0    0  0.91917591175E+02  0.38406510513E+03  0.25202762246E+03  0.48486881837E+03  0.12500000000E+03 0.  0.
</event>
<event>
 4    0  0.2168146E-002  0.2113179E+03  0.7546771E-02  0.1140527E+00
         21   -1    0    0  502  501  0.00000000000E+00  0.00000000000E+00  0.32274443127E+04  0.32274443127E+04  0.00000000000E+00 0. -1.
         21   -1    0    0  501  502 -0.00000000000E+00 -0.00000000000E+00 -0.13836098441E+02  0.13836098441E+02  0.00000000000E+00 0. -1.
         25    1    1    2    0    0 -0.60087579783E+02  0.15542715387E+03  0.13343453935E+04  0.13505075885E+04  0.12500000000E+03 0.  0.
         25    1    1    2    0    0  0.60087579783E+02 -0.15542715387E+03  0.18792628208E+04  0.18907728227E+04  0.12500000000E+03 0.  0.
</event>
<event>
 4    0  0.2168146E-002  0.2097937E+03  0.7546771E-02  0.1141729E+00
         21   -1    0    0  502  501  0.00000000000E+00  0.00000000000E+00  0.28746559589E+02  0.28746559589E+02  0.00000000000E+00 0. -1.
         21   -1    0    0  501  502 -0.00000000000E+00 -0.00000000000E+00 -0.15310836487E+04  0.15310836487E+04  0.00000000000E+00 0. -1.
         25    1    1    2    0    0 -0.15486410126E+03 -0.26498858626E+02 -0.52493872482E+03  0.56202379326E+03  0.12500000000E+03 0.  0.
         25    1    1    2    0    0  0.15486410126E+03  0.26498858626E+02 -0.97739836431E+03  0.99780641505E+03  0.12500000000E+03 0.  0.
</event>
<event>
 4    0  0.2168146E-002  0.4250742E+03  0.7546771E-02  0.1035427E+00
         21   -1    0    0  502  501  0.00000000000E+00  0.00000000000E+00  0.68666619505E+03  0.68666619505E+03  0.00000000000E+00 0.  1.
         21   -1    0    0  501  502 -0.00000000000E+00 -0.00000000000E+00 -0.26313821660E+03  0.26313821660E+03  0.00000000000E+00 0.  1.
         25    1    1    2    0    0  0.33667862719E+03  0.96767384521E+02  0.44166937285E+03  0.57741948324E+03  0.12500000000E+03 0.  0.
         25    1    1    2    0    0 -0.33667862719E+03 -0.96767384521E+02 -0.18141394397E+02  0.37238492841E+03  0.12500000000E+03 0.  0.
</event>
<event>
 4    0  0.2168146E-002  0.3184276E+03  0.7546771E-02  0.1076375E+00
         21   -1    0    0  502  501  0.00000000000E+00  0.00000000000E+00  0.29091220846E+03  0.29091220846E+03  0.00000000000E+00 0.  1.
         21   -1    0    0  501  502 -0.00000000000E+00 -0.00000000000E+00 -0.34854540249E+03  0.34854540249E+03  0.00000000000E+00 0.  1.
         25    1    1    2    0    0  0.32126254136E+02  0.23107839130E+03  0.14894299127E+03  0.30370764525E+03  0.12500000000E+03 0.  0.
         25    1    1    2    0    0 -0.32126254136E+02 -0.23107839130E+03 -0.20657618531E+03  0.33574996570E+03  0.12500000000E+03 0.  0.
</event>
<event>
 4    0  0.2168146E-002  0.3055944E+03  0.7546771E-02  0.1082477E+00
         21   -1    0    0  502  501  0.00000000000E+00  0.00000000000E+00  0.90668330859E+03  0.90668330859E+03  0.00000000000E+00 0. -1.
         21   -1    0    0  501  502 -0.00000000000E+00 -0.00000000000E+00 -0.10299949477E+03  0.10299949477E+03  0.00000000000E+00 0. -1.
         25    1    1    2    0    0 -0.16714662777E+03  0.14113363657E+03  0.11615495966E+03  0.27744129685E+03  0.12500000000E+03 0.  0.
         25    1    1    2    0    0  0.16714662777E+03 -0.14113363657E+03  0.68752885416E+03  0.73224150650E+03  0.12500000000E+03 0.  0.
</event>
<event>
 4    0  0.2168146E-002  0.1789861E+03  0.7546771E-02  0.1168788E+00
         21   -1    0    0  502  501  0.00000000000E+00  0.00000000000E+00  0.80395592414E+03  0.80395592414E+03  0.00000000000E+00 0.  1.
         21   -1    0    0  501  502 -0.00000000000E+00 -0.00000000000E+00 -0.39847986797E+02  0.39847986797E+02  0.00000000000E+00 0.  1.
         25    1    1    2    0    0  0.76029667655E+02 -0.13515482830E+02  0.14111579402E+03  0.20372001856E+03  0.12500000000E+03 0.  0.
         25    1    1    2    0    0 -0.76029667655E+02  0.13515482830E+02  0.62299214332E+03  0.64008389238E+03  0.12500000000E+03 0.  0.
</event>
<event>
 4    0  0.2168146E-002  0.2535920E+03  0.7546771E-02  0.1111056E+00
         21   -1    0    0  502  501  0.00000000000E+00  0.00000000000E+00  0.12192225962E+03  0.12192225962E+03  0.00000000000E+00 0.  1.
         21   -1    0    0  501  502 -0.00000000000E+00 -0.00000000000E+00 -0.52745844268E+03  0.52745844268E+03  0.00000000000E+00 0.  1.
         25    1    1    2    0    0  0.13847309976E+03 -0.13745734434E+03 -0.70855679329E+02  0.24231146932E+03  0.12500000000E+03 0.  0.
         25    1    1    2    0    0 -0.13847309976E+03  0.13745734434E+03 -0.33468050373E+03  0.40706923299E+03  0.12500000000E+03 0.  0.
</event>
<event>
 4    0  0.2168146E-002  0.2843200E+03  0.7546771E-02  0.1093353E+00
         21   -1    0    0  502  501  0.00000000000E+00  0.00000000000E+00  0.24547715559E+03  0.24547715559E+03  0.00000000000E+00 0. -1.
         21   -1    0    0  501  502 -0.00000000000E+00 -0.00000000000E+00 -0.32930915403E+03  0.32930915403E+03  0.00000000000E+00 0. -1.
         25    1    1    2    0    0 -0.35950818716E+02  0.12617699667E+03 -0.26337258192E+03  0.31969237207E+03  0.12500000000E+03 0.  0.
         25    1    1    2    0    0  0.35950818716E+02 -0.12617699667E+03  0.17954058348E+03  0.25509393754E+03  0.12500000000E+03 0.  0.
</event>
<event>
 4    0  0.2168146E-002  0.3149289E+03  0.7546771E-02  0.1078007E+00
         21   -1    0    0  502  501  0.00000000000E+00  0.00000000000E+00  0.13220862400E+03  0.13220862400E+03  0.00000000000E+00 0. -1.
         21   -1    0    0  501  502 -0.00000000000E+00 -0.00000000000E+00 -0.75017977162E+03  0.75017977162E+03  0.00000000000E+00 0. -1.
         25    1    1    2    0    0 -0.17798691715E+03  0.65424889651E+02 -0.33527002996E+01  0.22714752796E+03  0.12500000000E+03 0.  0.
         25    1    1    2    0    0  0.17798691715E+03 -0.65424889651E+02 -0.61461844732E+03  0.65524086766E+03  0.12500000000E+03 0.  0.
</event>
<event>
 4    0  0.2168146E-002  0.1737668E+03  0.7546771E-02  0.1173976E+00
         21   -1    0    0  502  501  0.00000000000E+00  0.00000000000E+00  0.36077660128E+02  0.36077660128E+02  0.00000000000E+00 0. -1.
         21   -1    0    0  501  502 -0.00000000000E+00 -0.00000000000E+00 -0.83694169079E+03  0.83694169079E+03  0.00000000000E+00 0. -1.
         25    1    1    2    0    0 -0.33679226944E+01 -0.53102734519E+02 -0.67259950846E+03  0.68618244083E+03  0.12500000000E+03 0.  0.
         25    1    1    2    0    0  0.33679226944E+01  0.53102734519E+02 -0.12826452220E+03  0.18683691009E+03  0.12500000000E+03 0.  0.
</event>
<event>
 4    0  0.2168146E-002  0.1633235E+03  0.7546771E-02  0.1184995E+00
         21   -1    0    0  502  501  0.00000000000E+00  0.00000000000E+00  0.30991024913E+03  0.30991024913E+03  0.00000000000E+00 0.  1.
         21   -1    0    0  501  502 -0.00000000000E+00 -0.00000000000E+00 -0.86071856533E+02  0.86071856533E+02  0.00000000000E+00 0.  1.
         25    1    1    2    0    0 -0.39873146276E+02 -0.96398573410E+02  0.12758498709E+03  0.20684651720E+03  0.12500000000E+03 0.  0.
         25    1    1    2    0    0  0.39873146276E+02  0.96398573410E+02  0.96253405508E+02  0.18913558846E+03  0.12500000000E+03 0.  0.
</event>
<event>
 4    0  0.2168146E-002  0.2258352E+03  0.7546771E-02  0.1129606E+00
         21   -1    0    0  502  501  0.00000000000E+00  0.00000000000E+00  0.72584139191E+03  0.72584139191E+03  0.00000000000E+00 0.  1.
         21   -1    0    0  501  502 -0.00000000000E+00 -0.00000000000E+00 -0.70265393216E+02  0.70265393216E+02  0.00000000000E+00 0.  1.
         25    1    1    2    0    0 -0.12374451592E+03 -0.45417957852E+00  0.78124896672E+02  0.19246145323E+03  0.12500000000E+03 0.  0.
         25    1    1    2    0    0  0.12374451592E+03  0.45417957852E+00  0.57745110203E+03  0.60364533190E+03  0.12500000000E+03 0.  0.
</event>
<event>
 4    0  0.2168146E-002  0.2802891E+03  0.7546771E-02  0.1095531E+00
         21   -1    0    0  502  501  0.00000000000E+00  0.00000000000E+00  0.71614801657E+02  0.71614801657E+02  0.00000000000E+00 0.  1.
         21   -1    0    0  501  502 -0.00000000000E+00 -0.00000000000E+00 -0.10970078151E+04  0.10970078151E+04  0.00000000000E+00 0.  1.
         25    1    1    2    0    0  0.23112634659E+03 -0.93147576575E+02 -0.45223601742E+03  0.53126102301E+03  0.12500000000E+03 0.  0.
         25    1    1    2    0    0 -0.23112634659E+03  0.93147576575E+02 -0.57315699606E+03  0.63736159379E+03  0.12500000000E+03 0.  0.
</event>
<event>
 4    0  0.2168146E-002  0.1720422E+03  0.7546771E-02  0.1175735E+00
         21   -1    0    0  502  501  0.00000000000E+00  0.00000000000E+00  0.10014880420E+04  0.10014880420E+04  0.00000000000E+00 0. -1.
         21   -1    0    0  501  502 -0.00000000000E+00 -0.00000000000E+00 -0.29554528392E+02  0.29554528392E+02  0.00000000000E+00 0. -1.
         25    1    1    2    0    0  0.62148800196E+02 -0.17905573948E+02  0.78245839320E+03  0.79501523258E+03  0.12500000000E+03 0.  0.
         25    1    1    2    0    0 -0.62148800196E+02  0.17905573948E+02  0.18947512044E+03  0.23602733784E+03  0.12500000000E+03 0.  0.
</event>
<event>
 4    0  0.2168146E-002  0.4340589E+03  0.7546771E-02  0.1032585E+00
         21   -1    0    0  502  501  0.00000000000E+00  0.00000000000E+00  0.27491848374E+03  0.27491848374E+03  0.00000000000E+00 0.  1.
         21   -1    0    0  501  502 -0.00000000000E+00 -0.00000000000E+00 -0.68532011101E+03  0.68532011101E+03  0.00000000000E+00 0. -1.
         25    1    1    2    0    0 -0.32524886118E+03 -0.21313825680E+03 -0.36764329987E+03  0.54954648043E+03  0.12500000000E+03 0.  0.
         25    1    1    2    0    0  0.32524886118E+03  0.21313825680E+03 -0.42758327392E+02  0.41069211433E+03  0.12500000000E+03 0.  0.
</event>
<event>
 4    0  0.2168146E-002  0.2491296E+03  0.7546771E-02  0.1113856E+00
         21   -1    0    0  502  501  0.00000000000E+00  0.00000000000E+00  0.10950445569E+03  0.10950445569E+03  0.00000000000E+00 0.  1.
         21   -1    0    0  501  502 -0.00000000000E+00 -0.00000000000E+00 -0.56678579511E+03  0.56678579511E+03  0.00000000000E+00 0.  1.
         25    1    1    2    0    0  0.75109676289E+02  0.90901105472E+02  0.16186986158E+02  0.17260212330E+03  0.12500000000E+03 0.  0.
         25    1    1    2    0    0 -0.75109676289E+02 -0.90901105472E+02 -0.47346832558E+03  0.50368812749E+03  0.12500000000E+03 0.  0.
</event>
<event>
 4    0  0.2168146E-002  0.3830642E+03  0.7546771E-02  0.1049807E+00
         21   -1    0    0  502  501  0.00000000000E+00  0.00000000000E+00  0.16695425898E+04  0.16695425898E+04  0.00000000000E+00 0. -1.
         21   -1    0    0  501  502 -0.00000000000E+00 -0.00000000000E+00 -0.87891257515E+02  0.87891257515E+02  0.00000000000E+00 0. -1.
         25    1    1    2    0    0  0.24249371586E+03 -0.68487510200E+02  0.19432183399E+03  0.34187675623E+03  0.12500000000E+03 0.  0.
         25    1    1    2    0    0 -0.24249371586E+03  0.68487510200E+02  0.13873294983E+04  0.14155570911E+04  0.12500000000E+03 0.  0.
</event>
<event>
 4    0  0.2168146E-002  0.2374308E+03  0.7546771E-02  0.1121516E+00
         21   -1    0    0  502  501  0.00000000000E+00  0.00000000000E+00  0.14338134439E+04  0.14338134439E+04  0.00000000000E+00 0. -1.
         21   -1    0    0  501  502 -0.00000000000E+00 -0.00000000000E+00 -0.39317084824E+02  0.39317084824E+02  0.00000000000E+00 0.  1.
         25    1    1    2    0    0  0.13527175136E+03 -0.13183743478E+03  0.91811333897E+03  0.94564087217E+03  0.12500000000E+03 0.  0.
         25    1    1    2    0    0 -0.13527175136E+03  0.13183743478E+03  0.47638302011E+03  0.52748965656E+03  0.12500000000E+03 0.  0.
</event>
<event>
 4    0  0.2168146E-002  0.2754660E+03  0.7546771E-02  0.1098191E+00
         21   -1    0    0  502  501  0.00000000000E+00  0.00000000000E+00  0.73489846646E+02  0.73489846646E+02  0.00000000000E+00 0. -1.
         21   -1    0    0  501  502 -0.00000000000E+00 -0.00000000000E+00 -0.10325439490E+04  0.10325439490E+04  0.00000000000E+00 0. -1.
         25    1    1    2    0    0  0.14941836674E+03  0.50918426105E+02 -0.85691776363E+03  0.88025654673E+03  0.12500000000E+03 0.  0.
         25    1    1    2    0    0 -0.14941836674E+03 -0.50918426105E+02 -0.10213633871E+03  0.22577724890E+03  0.12500000000E+03 0.  0.
</event>
<event>
 4    0  0.2168146E-002  0.1790933E+03  0.7546771E-02  0.1168683E+00
         21   -1    0    0  502  501  0.00000000000E+00  0.00000000000E+00  0.45251165870E+03  0.45251165870E+03  0.00000000000E+00 0. -1.
         21   -1    0    0  501  502 -0.00000000000E+00 -0.00000000000E+00 -0.70880878321E+02  0.70880878321E+02  0.00000000000E+00 0. -1.
         25    1    1    2    0    0 -0.12519385011E+03  0.27787676201E+02  0.18797866216E+03  0.25962787308E+03  0.12500000000E+03 0.  0.
         25    1    1    2    0    0  0.12519385011E+03 -0.27787676201E+02  0.19365211822E+03  0.26376466394E+03  0.12500000000E+03 0.  0.
</event>
<event>
 4    0  0.2168146E-002  0.2216750E+03  0.7546771E-02  0.1132640E+00
         21   -1    0    0  502  501  0.00000000000E+00  0.00000000000E+00  0.28834396230E+02  0.28834396230E+02  0.00000000000E+00 0. -1.
         21   -1    0    0  501  502 -0.00000000000E+00 -0.00000000000E+00 -0.17042081438E+04  0.17042081438E+04  0.00000000000E+00 0. -1.
         25    1    1    2    0    0 -0.10161756505E+03 -0.33984910017E+02 -0.25744871619E+03  0.30559114042E+03  0.12500000000E+03 0.  0.
         25    1    1    2    0    0  0.10161756505E+03  0.33984910017E+02 -0.14179250314E+04  0.14274513997E+04  0.12500000000E+03 0.  0.
</event>
<event>
 4    0  0.2168146E-002  0.2389440E+03  0.7546771E-02  0.1120498E+00
         21   -1    0    0  502  501  0.00000000000E+00  0.00000000000E+00  0.82218993432E+03  0.82218993432E+03  0.00000000000E+00 0.  1.
         21   -1    0    0  501  502 -0.00000000000E+00 -0.00000000000E+00 -0.69441665482E+02  0.69441665482E+02  0.00000000000E+00 0.  1.
         25    1    1    2    0    0 -0.49872126741E+02 -0.48578767538E+02  0.19322511524E+02  0.14437965623E+03  0.12500000000E+03 0.  0.
         25    1    1    2    0    0  0.49872126741E+02  0.48578767538E+02  0.73342575731E+03  0.74725194357E+03  0.12500000000E+03 0.  0.
</event>
<event>
 4    0  0.2168146E-002  0.2291013E+03  0.7546771E-02  0.1127274E+00
         21   -1    0    0  502  501  0.00000000000E+00  0.00000000000E+00  0.44580287470E+03  0.44580287470E+03  0.00000000000E+00 0.  1.
         21   -1    0    0  501  502 -0.00000000000E+00 -0.00000000000E+00 -0.11773679460E+03  0.11773679460E+03  0.00000000000E+00 0.  1.
         25    1    1    2    0    0  0.18507686684E+03  0.45633741946E+02  0.19225407475E+03  0.29819878320E+03  0.12500000000E+03 0.  0.
         25    1    1    2    0    0 -0.18507686684E+03 -0.45633741946E+02  0.13581200535E+03  0.26534088610E+03  0.12500000000E+03 0.  0.
</event>
<event>
 4    0  0.2168146E-002  0.2143193E+03  0.7546771E-02  0.1138190E+00
         21   -1    0    0  502  501  0.00000000000E+00  0.00000000000E+00  0.35032849278E+02  0.35032849278E+02  0.00000000000E+00 0. -1.
         21   -1    0    0  501  502 -0.00000000000E+00 -0.00000000000E+00 -0.13111342447E+04  0.13111342447E+04  0.00000000000E+00 0. -1.
         25    1    1    2    0    0  0.74874515848E+02  0.64777043614E+02 -0.18832992274E+03  0.24676997042E+03  0.12500000000E+03 0.  0.
         25    1    1    2    0    0 -0.74874515848E+02 -0.64777043614E+02 -0.10877714727E+04  0.10993971235E+04  0.12500000000E+03 0.  0.
</event>
<event>
 4    0  0.2168146E-002  0.2036179E+03  0.7546771E-02  0.1146722E+00
         21   -1    0    0  502  501  0.00000000000E+00  0.00000000000E+00  0.21330571946E+03  0.21330571946E+03  0.00000000000E+00 0.  1.
         21   -1    0    0  501  502 -0.00000000000E+00 -0.00000000000E+00 -0.19437003207E+03  0.19437003207E+03  0.00000000000E+00 0.  1.
         25    1    1    2    0    0 -0.12529245080E+03  0.68664709379E+02 -0.64247298427E+02  0.20041396134E+03  0.12500000000E+03 0.  0.
         25    1    1    2    0    0  0.12529245080E+03 -0.68664709379E+02  0.83182985817E+02  0.20726179019E+03  0.12500000000E+03 0.  0.
</event>
<event>
 4    0  0.2168146E-002  0.1973149E+03  0.7546771E-02  0.1152024E+00
         21   -1    0    0  502  501  0.00000000000E+00  0.00000000000E+00  0.97543339977E+02  0.97543339977E+02  0.00000000000E+00 0.  1.
         21   -1    0    0  501  502 -0.00000000000E+00 -0.00000000000E+00 -0.39913698491E+03  0.39913698491E+03  0.00000000000E+00 0.  1.
         25    1    1    2    0    0 -0.74585458101E+02  0.83224478633E+02 -0.19885347024E+02  0.16884824971E+03  0.12500000000E+03 0.  0.
         25    1    1    2    0    0  0.74585458101E+02 -0.83224478633E+02 -0.28170829791E+03  0.32783207517E+03  0.12500000000E+03 0.  0.
</event>
<event>
 4    0  0.2168146E-002  0.2503842E+03  0.7546771E-02  0.1113062E+00
         21   -1    0    0  502  501  0.00000000000E+00  0.00000000000E+00  0.18230359961E+03  0.18230359961E+03  0.00000000000E+00 0. -1.
         21   -1    0    0  501  502 -0.00000000000E+00 -0.00000000000E+00 -0.34388912366E+03  0.34388912366E+03  0.00000000000E+00 0. -1.
         25    1    1    2    0    0  0.15523417772E+03 -0.12289311852E+03  0.12405672371E+02  0.23447658565E+03  0.12500000000E+03 0.  0.
         25    1    1    2    0    0 -0.15523417772E+03  0.12289311852E+03 -0.17399119642E+03  0.29171613761E+03  0.12500000000E+03 0.  0.
</event>
<event>
 4    0  0.2168146E-002  0.1835675E+03  0.7546771E-02  0.1164394E+00
         21   -1    0    0  502  501  0.00000000000E+00  0.00000000000E+00  0.35552839176E+03  0.35552839176E+03  0.00000000000E+00 0.  1.
         21   -1    0    0  501  502 -0.00000000000E+00 -0.00000000000E+00 -0.94780106431E+02  0.94780106431E+02  0.00000000000E+00 0.  1.
         25    1    1    2    0    0  0.53897555757E+02  0.12295898763E+03  0.12186225105E+03  0.22022549214E+03  0.12500000000E+03 0.  0.
         25    1    1    2    0    0 -0.53897555757E+02 -0.12295898763E+03  0.13888603428E+03  0.23008300606E+03  0.12500000000E+03 0.  0.
</event>
<event>
 4    0  0.2168146E-002  0.2140832E+03  0.7546771E-02  0.1138373E+00
         21   -1    0    0  502  501  0.00000000000E+00  0.00000000000E+00  0.20515960394E+03  0.20515960394E+03  0.00000000000E+00 0.  1.
         21   -1    0    0  501  502 -0.00000000000E+00 -0.00000000000E+00 -0.22339491893E+03  0.22339491893E+03  0.00000000000E+00 0.  1.
         25    1    1    2    0    0 -0.13087008154E+03 -0.65382618880E+02  0.84801022690E+02  0.21028095145E+03  0.12500000000E+03 0.  0.
         25    1    1    2    0    0  0.13087008154E+03  0.65382618880E+02 -0.10303633768E+03  0.21827357141E+03  0.12500000000E+03 0.  0.
</event>
<event>
 4    0  0.2168146E-002  0.1757940E+03  0.7546771E-02  0.1171937E+00
         21   -1    0    0  502  501  0.00000000000E+00  0.00000000000E+00  0.10623956202E+03  0.10623956202E+03  0.00000000000E+00 0. -1.
         21   -1    0    0  501  502 -0.00000000000E+00 -0.00000000000E+00 -0.29088525953E+03  0.29088525953E+03  0.00000000000E+00 0. -1.
         25    1    1    2    0    0  0.49652912286E+02 -0.21561219541E+01  0.35509725993E+02  0.13912584663E+03  0.12500000000E+03 0.  0.
         25    1    1    2    0    0 -0.49652912286E+02  0.21561219541E+01 -0.22015542350E+03  0.25799897491E+03  0.12500000000E+03 0.  0.
</event>
<event>
 4    0  0.2168146E-002  0.3447630E+03  0.7546771E-02  0.1064785E+00
         21   -1    0    0  502  501  0.00000000000E+00  0.00000000000E+00  0.51274823040E+03  0.51274823040E+03  0.00000000000E+00 0. -1.
         21   -1    0    0  501  502 -0.00000000000E+00 -0.00000000000E+00 -0.23181261146E+03  0.23181261146E+03  0.00000000000E+00 0.  1.
         25    1    1    2    0    0  0.13623085505E+03  0.27741224902E+03  0.23534485929E+03  0.40807916458E+03  0.12500000000E+03 0.  0.
         25    1    1    2    0    0 -0.13623085505E+03 -0.27741224902E+03  0.45590759656E+02  0.33648167727E+03  0.12500000000E+03 0.  0.
</event>
<event>
 4    0  0.2168146E-002  0.2035042E+03  0.7546771E-02  0.1146816E+00
         21   -1    0    0  502  501  0.00000000000E+00  0.00000000000E+00  0.72157620089E+03  0.72157620089E+03  0.00000000000E+00 0. -1.
         21   -1    0    0  501  502 -0.00000000000E+00 -0.00000000000E+00 -0.57393770450E+02  0.57393770450E+02  0.00000000000E+00 0. -1.
         25    1    1    2    0    0 -0.35715268284E+00  0.12939981851E+03  0.15007484818E+03  0.23429020604E+03  0.12500000000E+03 0.  0.
         25    1    1    2    0    0  0.35715268284E+00 -0.12939981851E+03  0.51410758227E+03  0.54467976530E+03  0.12500000000E+03 0.  0.
</event>
<event>
 4    0  0.2168146E-002  0.2132607E+03  0.7546771E-02  0.1139010E+00
         21   -1    0    0  502  501  0.00000000000E+00  0.00000000000E+00  0.97435050157E+03  0.97435050157E+03  0.00000000000E+00 0.  1.
         21   -1    0    0  501  502 -0.00000000000E+00 -0.00000000000E+00 -0.46677369534E+02  0.46677369534E+02  0.00000000000E+00 0.  1.
         25    1    1    2    0    0 -0.74763236915E+02  0.74760745509E+02  0.13668915951E+03  0.21327830877E+03  0.12500000000E+03 0.  0.
         25    1    1    2    0    0  0.74763236915E+02 -0.74760745509E+02  0.79098397253E+03  0.80774956234E+03  0.12500000000E+03 0.  0.
</event>
<event>
 4    0  0.2168146E-002  0.1872380E+03  0.7546771E-02  0.1160976E+00
         21   -1    0    0  502  501  0.00000000000E+00  0.00000000000E+00  0.59148908519E+02  0.59148908519E+02  0.00000000000E+00 0. -1.
         21   -1    0    0  501  502 -0.00000000000E+00 -0.00000000000E+00 -0.59270874309E+03  0.59270874309E+03  0.00000000000E+00 0. -1.
         25    1    1    2    0    0 -0.69719486307E+02 -0.95843144210E+02 -0.13902535086E+03  0.22135890143E+03  0.12500000000E+03 0.  0.
         25    1    1    2    0    0  0.69719486307E+02  0.95843144210E+02 -0.39453448372E+03  0.43049875018E+03  0.12500000000E+03 0.  0.
</event>
<event>
 4    0  0.2168146E-002  0.2779358E+03  0.7546771E-02  0.1096822E+00
         21   -1    0    0  502  501  0.00000000000E+00  0.00000000000E+00  0.11967452327E+04  0.11967452327E+04  0.00000000000E+00 0. -1.
         21   -1    0    0  501  502 -0.00000000000E+00 -0.00000000000E+00 -0.64548656988E+02  0.64548656988E+02  0.00000000000E+00 0. -1.
         25    1    1    2    0    0 -0.32590309975E+02 -0.18513194441E+03  0.19821073341E+03  0.30041381457E+03  0.12500000000E+03 0.  0.
         25    1    1    2    0    0  0.32590309975E+02  0.18513194441E+03  0.93398584228E+03  0.96088007510E+03  0.12500000000E+03 0.  0.
</event>
<event>
 4    0  0.2168146E-002  0.1641159E+03  0.7546771E-02  0.1184127E+00
         21   -1    0    0  502  501  0.00000000000E+00  0.00000000000E+00  0.11089003444E+03  0.11089003444E+03  0.00000000000E+00 0. -1.
         21   -1    0    0  501  502 -0.00000000000E+00 -0.00000000000E+00 -0.24288963741E+03  0.24288963741E+03  0.00000000000E+00 0. -1.
         25    1    1    2    0    0  0.28851503520E+01 -0.54976779277E+01 -0.18042549635E+03  0.21958348820E+03  0.12500000000E+03 0.  0.
         25    1    1    2    0    0 -0.28851503520E+01  0.54976779277E+01  0.48425893383E+02  0.13419618365E+03  0.12500000000E+03 0.  0.
</event>
<event>
 4    0  0.2168146E-002  0.1918538E+03  0.7546771E-02  0.1156800E+00
         21   -1    0    0  502  501  0.00000000000E+00  0.00000000000E+00  0.12573008479E+03  0.12573008479E+03  0.00000000000E+00 0.  1.
         21   -1    0    0  501  502 -0.00000000000E+00 -0.00000000000E+00 -0.29275310007E+03  0.29275310007E+03  0.00000000000E+00 0.  1.
         25    1    1    2    0    0 -0.72704689807E+02  0.98049692626E+02 -0.16996183651E+03  0.24374523588E+03  0.12500000000E+03 0.  0.
         25    1    1    2    0    0  0.72704689807E+02 -0.98049692626E+02  0.29388212215E+01  0.17473794898E+03  0.12500000000E+03 0.  0.
</event>
<event>
 4    0  0.2168146E-002  0.1873190E+03  0.7546771E-02  0.1160902E+00
         21   -1    0    0  502  501  0.00000000000E+00  0.00000000000E+00  0.35140139203E+03  0.35140139203E+03  0.00000000000E+00 0. -1.
         21   -1    0    0  501  502 -0.00000000000E+00 -0.00000000000E+00 -0.99852745777E+02  0.99852745777E+02  0.00000000000E+00 0. -1.
         25    1    1    2    0    0 -0.76050403373E+02 -0.75995682322E+02  0.23286299556E+03  0.28532294385E+03  0.12500000000E+03 0.  0.
         25    1    1    2    0    0  0.76050403373E+02  0.75995682322E+02  0.18685650686E+02  0.16593119395E+03  0.12500000000E+03 0.  0.
</event>
<event>
 4    0  0.2168146E-002  0.2053783E+03  0.7546771E-02  0.1145279E+00
         21   -1    0    0  502  501  0.00000000000E+00  0.00000000000E+00  0.11346144004E+03  0.11346144004E+03  0.00000000000E+00 0.  1.
         21   -1    0    0  501  502 -0.00000000000E+00 -0.00000000000E+00 -0.37175832622E+03  0.37175832622E+03  0.00000000000E+00 0.  1.
         25    1    1    2    0    0  0.79068357355E+02 -0.13171815422E+03 -0.64947496942E+02  0.20843381358E+03  0.12500000000E+03 0.  0.
         25    1    1    2    0    0 -0.79068357355E+02  0.13171815422E+03 -0.19334938923E+03  0.27678595268E+03  0.12500000000E+03 0.  0.
</event>
<event>
 4    0  0.2168146E-002  0.2262298E+03  0.7546771E-02  0.1129322E+00
         21   -1    0    0  502  501  0.00000000000E+00  0.00000000000E+00  0.35893160231E+03  0.35893160231E+03  0.00000000000E+00 0. -1.
         21   -1    0    0  501  502 -0.00000000000E+00 -0.00000000000E+00 -0.14258968627E+03  0.14258968627E+03  0.00000000000E+00 0. -1.
         25    1    1    2    0    0 -0.78790257547E+02  0.11818631830E+03 -0.29288301683E+02  0.19146465766E+03  0.12500000000E+03 0.  0.
         25    1    1    2    0    0  0.78790257547E+02 -0.11818631830E+03  0.24563021772E+03  0.31005663092E+03  0.12500000000E+03 0.  0.
</event>
<event>
 4    0  0.2168146E-002  0.1935012E+03  0.7546771E-02  0.1155341E+00
         21   -1    0    0  502  501  0.00000000000E+00  0.00000000000E+00  0.66574974062E+03  0.66574974062E+03  0.00000000000E+00 0. -1.
         21   -1    0    0  501  502 -0.00000000000E+00 -0.00000000000E+00 -0.56241411086E+02  0.56241411086E+02  0.00000000000E+00 0. -1.
         25    1    1    2    0    0 -0.88096201402E+01  0.60738606584E+02  0.54104049779E+02  0.14939556867E+03  0.12500000000E+03 0.  0.
         25    1    1    2    0    0  0.88096201402E+01 -0.60738606584E+02  0.55540427976E+03  0.57259558304E+03  0.12500000000E+03 0.  0.
</event>
<event>
 4    0  0.2168146E-002  0.2421735E+03  0.7546771E-02  0.1118353E+00
         21   -1    0    0  502  501  0.00000000000E+00  0.00000000000E+00  0.53070151696E+03  0.53070151696E+03  0.00000000000E+00 0.  1.
         21   -1    0    0  501  502 -0.00000000000E+00 -0.00000000000E+00 -0.11051035360E+03  0.11051035360E+03  0.00000000000E+00 0.  1.
         25    1    1    2    0    0  0.11837255077E+02 -0.11242403162E+03  0.44032593332E+03  0.47147768881E+03  0.12500000000E+03 0.  0.
         25    1    1    2    0    0 -0.11837255077E+02  0.11242403162E+03 -0.20134769963E+02  0.16973418175E+03  0.12500000000E+03 0.  0.
</event>
<event>
 4    0  0.2168146E-002  0.2204252E+03  0.7546771E-02  0.1133566E+00
         21   -1    0    0  502  501  0.00000000000E+00  0.00000000000E+00  0.52617279823E+02  0.52617279823E+02  0.00000000000E+00 0.  1.
         21   -1    0    0  501  502 -0.00000000000E+00 -0.00000000000E+00 -0.92340927987E+03  0.92340927987E+03  0.00000000000E+00 0.  1.
         25    1    1    2    0    0 -0.17209359072E+03  0.42970119658E+02 -0.34965961185E+03  0.41152093423E+03  0.12500000000E+03 0.  0.
         25    1    1    2    0    0  0.17209359072E+03 -0.42970119658E+02 -0.52113238820E+03  0.56450562547E+03  0.12500000000E+03 0.  0.
</event>
<event>
 4    0  0.2168146E-002  0.2359962E+03  0.7546771E-02  0.1122489E+00
         21   -1    0    0  502  501  0.00000000000E+00  0.00000000000E+00  0.29560654576E+02  0.29560654576E+02  0.00000000000E+00 0. -1.
         21   -1    0    0  501  502 -0.00000000000E+00 -0.00000000000E+00 -0.18840660391E+04  0.18840660391E+04  0.00000000000E+00 0. -1.
         25    1    1    2    0    0 -0.74761743156E+02 -0.17817859943E+03 -0.11391794739E+04  0.11621926713E+04  0.12500000000E+03 0.  0.
         25    1    1    2    0    0  0.74761743156E+02  0.17817859943E+03 -0.71532591066E+03  0.75143402238E+03  0.12500000000E+03 0.  0.
</event>
<event>
 4    0  0.2168146E-002  0.2756745E+03  0.7546771E-02  0.1098075E+00
         21   -1    0    0  502  501  0.00000000000E+00  0.00000000000E+00  0.18565870314E+03  0.18565870314E+03  0.00000000000E+00 0.  1.
         21   -1    0    0  501  502 -0.00000000000E+00 -0.00000000000E+00 -0.40933399518E+03  0.40933399518E+03  0.00000000000E+00 0. -1.
         25    1    1    2    0    0 -0.18672515762E+03  0.15497101253E+03 -0.15348139793E+03  0.31315146291E+03  0.12500000000E+03 0.  0.
         25    1    1    2    0    0  0.18672515762E+03 -0.15497101253E+03 -0.70193894109E+02  0.28184123542E+03  0.12500000000E+03 0.  0.
</event>
<event>
 4    0  0.2168146E-002  0.1830704E+03  0.7546771E-02  0.1164864E+00
         21   -1    0    0  502  501  0.00000000000E+00  0.00000000000E+00  0.34533507087E+02  0.34533507087E+02  0.00000000000E+00 0. -1.
         21   -1    0    0  501  502 -0.00000000000E+00 -0.00000000000E+00 -0.97049999739E+03  0.97049999739E+03  0.00000000000E+00 0. -1.
         25    1    1    2    0    0  0.46166723382E+02 -0.14500469515E+02 -0.81025545071E+03  0.82126763322E+03  0.12500000000E+03 0.  0.
         25    1    1    2    0    0 -0.46166723382E+02  0.14500469515E+02 -0.12571103959E+03  0.18376587126E+03  0.12500000000E+03 0.  0.
</event>
<event>
 4    0  0.2168146E-002  0.2771543E+03  0.7546771E-02  0.1097253E+00
         21   -1    0    0  502  501  0.00000000000E+00  0.00000000000E+00  0.13996837543E+03  0.13996837543E+03  0.00000000000E+00 0. -1.
         21   -1    0    0  501  502 -0.00000000000E+00 -0.00000000000E+00 -0.54879888404E+03  0.54879888404E+03  0.00000000000E+00 0. -1.
         25    1    1    2    0    0  0.15638456991E+03 -0.20738064712E+02  0.32336880683E+02  0.20385503399E+03  0.12500000000E+03 0.  0.
         25    1    1    2    0    0 -0.15638456991E+03  0.20738064712E+02 -0.44116738930E+03  0.48491222547E+03  0.12500000000E+03 0.  0.
</event>
<event>
 4    0  0.2168146E-002  0.1739406E+03  0.7546771E-02  0.1173800E+00
         21   -1    0    0  502  501  0.00000000000E+00  0.00000000000E+00  0.22734836913E+03  0.22734836913E+03  0.00000000000E+00 0. -1.
         21   -1    0    0  501  502 -0.00000000000E+00 -0.00000000000E+00 -0.13307922050E+03  0.13307922050E+03  0.00000000000E+00 0. -1.
         25    1    1    2    0    0  0.92148275345E+02 -0.69922836933E+02  0.10506549807E+02  0.17063380487E+03  0.12500000000E+03 0.  0.
         25    1    1    2    0    0 -0.92148275345E+02  0.69922836933E+02  0.83762598818E+02  0.18979378476E+03  0.12500000000E+03 0.  0.
</event>
<event>
 4    0  0.2168146E-002  0.2104961E+03  0.7546771E-02  0.1141174E+00
         21   -1    0    0  502  501  0.00000000000E+00  0.00000000000E+00  0.36347355112E+03  0.36347355112E+03  0.00000000000E+00 0. -1.
         21   -1    0    0  501  502 -0.00000000000E+00 -0.00000000000E+00 -0.12190330211E+03  0.12190330211E+03  0.00000000000E+00 0. -1.
         25    1    1    2    0    0  0.77775446418E+02 -0.45351803268E+02 -0.44603108014E+02  0.16037532033E+03  0.12500000000E+03 0.  0.
         25    1    1    2    0    0 -0.77775446418E+02  0.45351803268E+02  0.28617335702E+03  0.32500153291E+03  0.12500000000E+03 0.  0.
</event>
<event>
 4    0  0.2168146E-002  0.1907640E+03  0.7546771E-02  0.1157774E+00
         21   -1    0    0  502  501  0.00000000000E+00  0.00000000000E+00  0.19018296109E+03  0.19018296109E+03  0.00000000000E+00 0. -1.
         21   -1    0    0  501  502 -0.00000000000E+00 -0.00000000000E+00 -0.19134690439E+03  0.19134690439E+03  0.00000000000E+00 0. -1.
         25    1    1    2    0    0  0.20815068375E+02  0.14052555075E+03  0.23609531674E+02  0.19069113108E+03  0.12500000000E+03 0.  0.
         25    1    1    2    0    0 -0.20815068375E+02 -0.14052555075E+03 -0.24773474978E+02  0.19083873440E+03  0.12500000000E+03 0.  0.
</event>
<event>
 4    0  0.2168146E-002  0.2074772E+03  0.7546771E-02  0.1143579E+00
         21   -1    0    0  502  501  0.00000000000E+00  0.00000000000E+00  0.12724115915E+04  0.12724115915E+04  0.00000000000E+00 0. -1.
         21   -1    0    0  501  502 -0.00000000000E+00 -0.00000000000E+00 -0.33830863243E+02  0.33830863243E+02  0.00000000000E+00 0. -1.
         25    1    1    2    0    0  0.10768358255E+03 -0.95764840842E+01  0.22442646116E+03  0.27871078103E+03  0.12500000000E+03 0.  0.
         25    1    1    2    0    0 -0.10768358255E+03  0.95764840842E+01  0.10141542671E+04  0.10275316737E+04  0.12500000000E+03 0.  0.
</event>
<event>
 4    0  0.2168146E-002  0.2360720E+03  0.7546771E-02  0.1122438E+00
         21   -1    0    0  502  501  0.00000000000E+00  0.00000000000E+00  0.15856980829E+04  0.15856980829E+04  0.00000000000E+00 0.  1.
         21   -1    0    0  501  502 -0.00000000000E+00 -0.00000000000E+00 -0.35145403726E+02  0.35145403726E+02  0.00000000000E+00 0.  1.
         25    1    1    2    0    0  0.17308796144E+03 -0.13940802772E+02  0.11177321440E+04  0.11380263328E+04  0.12500000000E+03 0.  0.
         25    1    1    2    0    0 -0.17308796144E+03  0.13940802772E+02  0.43282053519E+03  0.48281715386E+03  0.12500000000E+03 0.  0.
</event>
<event>
 4    0  0.2168146E-002  0.5024806E+03  0.7546771E-02  0.1013133E+00
         21   -1    0    0  502  501  0.00000000000E+00  0.00000000000E+00  0.27930402229E+03  0.27930402229E+03  0.00000000000E+00 0.  1.
         21   -1    0    0  501  502 -0.00000000000E+00 -0.00000000000E+00 -0.90398550275E+03  0.90398550275E+03  0.00000000000E+00 0. -1.
         25    1    1    2    0    0 -0.46000975413E+03 -0.99861870869E+02 -0.45788977853E+03  0.66848292157E+03  0.12500000000E+03 0.  0.
         25    1    1    2    0    0  0.46000975413E+03  0.99861870869E+02 -0.16679170193E+03  0.51480660347E+03  0.12500000000E+03 0.  0.
</event>
<event>
 4    0  0.2168146E-002  0.3568331E+03  0.7546771E-02  0.1059845E+00
         21   -1    0    0  502  501  0.00000000000E+00  0.00000000000E+00  0.14517474453E+04  0.14517474453E+04  0.00000000000E+00 0.  1.
         21   -1    0    0  501  502 -0.00000000000E+00 -0.00000000000E+00 -0.87708000273E+02  0.87708000273E+02  0.00000000000E+00 0.  1.
         25    1    1    2    0    0  0.15527028222E+03  0.29338792584E+03  0.59793316091E+03  0.69522255464E+03  0.12500000000E+03 0.  0.
         25    1    1    2    0    0 -0.15527028222E+03 -0.29338792584E+03  0.76610628410E+03  0.84423289091E+03  0.12500000000E+03 0.  0.
</event>
<event>
 4    0  0.2168146E-002  0.3158743E+03  0.7546771E-02  0.1077564E+00
         21   -1    0    0  502  501  0.00000000000E+00  0.00000000000E+00  0.51493113352E+02  0.51493113352E+02  0.00000000000E+00 0.  1.
         21   -1    0    0  501  502 -0.00000000000E+00 -0.00000000000E+00 -0.19376683476E+04  0.19376683476E+04  0.00000000000E+00 0.  1.
         25    1    1    2    0    0  0.14916319513E+03 -0.24880073882E+03 -0.94204598293E+03  0.99359302553E+03  0.12500000000E+03 0.  0.
         25    1    1    2    0    0 -0.14916319513E+03  0.24880073882E+03 -0.94412925132E+03  0.99556843543E+03  0.12500000000E+03 0.  0.
</event>
<event>
 4    0  0.2168146E-002  0.1851892E+03  0.7546771E-02  0.1162873E+00
         21   -1    0    0  502  501  0.00000000000E+00  0.00000000000E+00  0.34362675170E+02  0.34362675170E+02  0.00000000000E+00 0. -1.
         21   -1    0    0  501  502 -0.00000000000E+00 -0.00000000000E+00 -0.99803220556E+03  0.99803220556E+03  0.00000000000E+00 0. -1.
         25    1    1    2    0    0  0.13287593733E+03  0.16012761058E+02 -0.40511105452E+03  0.44458113964E+03  0.12500000000E+03 0.  0.
         25    1    1    2    0    0 -0.13287593733E+03 -0.16012761058E+02 -0.55855847587E+03  0.58781374108E+03  0.12500000000E+03 0.  0.
</event>
<event>
 4    0  0.2168146E-002  0.2211622E+03  0.7546771E-02  0.1133020E+00
         21   -1    0    0  502  501  0.00000000000E+00  0.00000000000E+00  0.11328277320E+03  0.11328277320E+03  0.00000000000E+00 0.  1.
         21   -1    0    0  501  502 -0.00000000000E+00 -0.00000000000E+00 -0.43177545078E+03  0.43177545078E+03  0.00000000000E+00 0.  1.
         25    1    1    2    0    0  0.59198011626E+02 -0.86180759233E+02 -0.34349354588E+03  0.38018987875E+03  0.12500000000E+03 0.  0.
         25    1    1    2    0    0 -0.59198011626E+02  0.86180759233E+02  0.25000868307E+02  0.16486834523E+03  0.12500000000E+03 0.  0.
</event>
