<event>
 4    0  0.2134002E-002  0.1886321E+03  0.7546771E-02  0.1159701E+00
         21   -1    0    0  502  501  0.00000000000E+00  0.00000000000E+00  0.16473728184E+02  0.16473728184E+02  0.00000000000E+00 0. -1.
         21   -1    0    0  501  502 -0.00000000000E+00 -0.00000000000E+00 -0.21599270603E+04  0.21599270603E+04  0.00000000000E+00 0. -1.
         25    1    1    2    0    0 -0.11415416269E+03  0.83167871064E+02 -0.10544356757E+04  0.10711711636E+04  0.12500000000E+03 0.  0.
         25    1    1    2    0    0  0.11415416269E+03 -0.83167871064E+02 -0.10890176564E+04  0.11052296249E+04  0.12500000000E+03 0.  0.
</event>
<event>
 4    0  0.2134002E-002  0.3079731E+03  0.7546771E-02  0.1081321E+00
         21   -1    0    0  502  501  0.00000000000E+00  0.00000000000E+00  0.88015429141E+03  0.88015429141E+03  0.00000000000E+00 0.  1.
         21   -1    0    0  501  502 -0.00000000000E+00 -0.00000000000E+00 -0.10776228908E+03  0.10776228908E+03  0.00000000000E+00 0.  1.
         25    1    1    2    0    0  0.60401350718E+02 -0.27322264518E+03  0.33745472427E+03  0.45585044471E+03  0.12500000000E+03 0.  0.
         25    1    1    2    0    0 -0.60401350718E+02  0.27322264518E+03  0.43493727806E+03  0.53206613579E+03  0.12500000000E+03 0.  0.
</event>
<event>
 4    0  0.2134002E-002  0.1945937E+03  0.7546771E-02  0.1154382E+00
         21   -1    0    0  502  501  0.00000000000E+00  0.00000000000E+00  0.34391447489E+03  0.34391447489E+03  0.00000000000E+00 0. -1.
         21   -1    0    0  501  502 -0.00000000000E+00 -0.00000000000E+00 -0.11010500969E+03  0.11010500969E+03  0.00000000000E+00 0. -1.
         25    1    1    2    0    0 -0.10367306578E+03  0.26464168882E+02  0.23810172494E+03  0.28942337194E+03  0.12500000000E+03 0.  0.
         25    1    1    2    0    0  0.10367306578E+03 -0.26464168882E+02 -0.42922597407E+01  0.16459611264E+03  0.12500000000E+03 0.  0.
</event>
<event>
 4    0  0.2134002E-002  0.2296181E+03  0.7546771E-02  0.1126909E+00
         21   -1    0    0  502  501  0.00000000000E+00  0.00000000000E+00  0.43113044518E+03  0.43113044518E+03  0.00000000000E+00 0.  1.
         21   -1    0    0  501  502 -0.00000000000E+00 -0.00000000000E+00 -0.12229352162E+03  0.12229352162E+03  0.00000000000E+00 0.  1.
         25    1    1    2    0    0  0.47428252161E+02  0.17858655533E+03  0.21994806506E+03  0.31328062208E+03  0.12500000000E+03 0.  0.
         25    1    1    2    0    0 -0.47428252161E+02 -0.17858655533E+03  0.88888858498E+02  0.24014334472E+03  0.12500000000E+03 0.  0.
</event>
<event>
 4    0  0.2134002E-002  0.2470147E+03  0.7546771E-02  0.1115206E+00
         21   -1    0    0  502  501  0.00000000000E+00  0.00000000000E+00  0.70389513956E+03  0.70389513956E+03  0.00000000000E+00 0.  1.
         21   -1    0    0  501  502 -0.00000000000E+00 -0.00000000000E+00 -0.86683710210E+02  0.86683710210E+02  0.00000000000E+00 0.  1.
         25    1    1    2    0    0  0.11113028497E+03  0.12278171346E+03  0.52310092323E+03  0.56274760354E+03  0.12500000000E+03 0.  0.
         25    1    1    2    0    0 -0.11113028497E+03 -0.12278171346E+03  0.94110506111E+02  0.22783124623E+03  0.12500000000E+03 0.  0.
</event>
<event>
 4    0  0.2134002E-002  0.2261305E+03  0.7546771E-02  0.1129393E+00
         21   -1    0    0  502  501  0.00000000000E+00  0.00000000000E+00  0.19873437700E+03  0.19873437700E+03  0.00000000000E+00 0.  1.
         21   -1    0    0  501  502 -0.00000000000E+00 -0.00000000000E+00 -0.25730315741E+03  0.25730315741E+03  0.00000000000E+00 0.  1.
         25    1    1    2    0    0 -0.74432421211E+01  0.74820951539E+02 -0.20351734463E+03  0.25039545964E+03  0.12500000000E+03 0.  0.
         25    1    1    2    0    0  0.74432421211E+01 -0.74820951539E+02  0.14494856422E+03  0.20564207476E+03  0.12500000000E+03 0.  0.
</event>
<event>
 4    0  0.2134002E-002  0.2175984E+03  0.7546771E-02  0.1135686E+00
         21   -1    0    0  502  501  0.00000000000E+00  0.00000000000E+00  0.76651086348E+03  0.76651086348E+03  0.00000000000E+00 0.  1.
         21   -1    0    0  501  502 -0.00000000000E+00 -0.00000000000E+00 -0.61772183286E+02  0.61772183286E+02  0.00000000000E+00 0.  1.
         25    1    1    2    0    0  0.93738040822E+02 -0.15143944213E+03  0.35583961616E+03  0.41709418284E+03  0.12500000000E+03 0.  0.
         25    1    1    2    0    0 -0.93738040822E+02  0.15143944213E+03  0.34889906404E+03  0.41118886392E+03  0.12500000000E+03 0.  0.
</event>
<event>
 4    0  0.2134002E-002  0.1727561E+03  0.7546771E-02  0.1175004E+00
         21   -1    0    0  502  501  0.00000000000E+00  0.00000000000E+00  0.37578041744E+03  0.37578041744E+03  0.00000000000E+00 0. -1.
         21   -1    0    0  501  502 -0.00000000000E+00 -0.00000000000E+00 -0.79420477267E+02  0.79420477267E+02  0.00000000000E+00 0. -1.
         25    1    1    2    0    0 -0.77456995988E+02 -0.72637319040E+02  0.21966265543E+03  0.27413946913E+03  0.12500000000E+03 0.  0.
         25    1    1    2    0    0  0.77456995988E+02  0.72637319040E+02  0.76697284742E+02  0.18106142558E+03  0.12500000000E+03 0.  0.
</event>
<event>
 4    0  0.2134002E-002  0.2473860E+03  0.7546771E-02  0.1114968E+00
         21   -1    0    0  502  501  0.00000000000E+00  0.00000000000E+00  0.20871246609E+03  0.20871246609E+03  0.00000000000E+00 0. -1.
         21   -1    0    0  501  502 -0.00000000000E+00 -0.00000000000E+00 -0.29322559299E+03  0.29322559299E+03  0.00000000000E+00 0. -1.
         25    1    1    2    0    0  0.17445019165E+03 -0.54782161865E+02  0.69524984426E+02  0.23214796593E+03  0.12500000000E+03 0.  0.
         25    1    1    2    0    0 -0.17445019165E+03  0.54782161865E+02 -0.15403811132E+03  0.26979009316E+03  0.12500000000E+03 0.  0.
</event>
<event>
 4    0  0.2134002E-002  0.2737845E+03  0.7546771E-02  0.1099133E+00
         21   -1    0    0  502  501  0.00000000000E+00  0.00000000000E+00  0.61552414935E+03  0.61552414935E+03  0.00000000000E+00 0. -1.
         21   -1    0    0  501  502 -0.00000000000E+00 -0.00000000000E+00 -0.12177905635E+03  0.12177905635E+03  0.00000000000E+00 0. -1.
         25    1    1    2    0    0 -0.99255249122E+02 -0.45835178326E+02  0.53996660407E+03  0.56492601424E+03  0.12500000000E+03 0.  0.
         25    1    1    2    0    0  0.99255249122E+02  0.45835178326E+02 -0.46221511077E+02  0.17237719146E+03  0.12500000000E+03 0.  0.
</event>
<event>
 4    0  0.2134002E-002  0.1975396E+03  0.7546771E-02  0.1151832E+00
         21   -1    0    0  502  501  0.00000000000E+00  0.00000000000E+00  0.49913294989E+02  0.49913294989E+02  0.00000000000E+00 0.  1.
         21   -1    0    0  501  502 -0.00000000000E+00 -0.00000000000E+00 -0.78179388424E+03  0.78179388424E+03  0.00000000000E+00 0.  1.
         25    1    1    2    0    0 -0.12132322150E+03 -0.88831522725E+02 -0.42498052709E+03  0.46780745175E+03  0.12500000000E+03 0.  0.
         25    1    1    2    0    0  0.12132322150E+03  0.88831522725E+02 -0.30690006216E+03  0.36389972748E+03  0.12500000000E+03 0.  0.
</event>
<event>
 4    0  0.2134002E-002  0.2191780E+03  0.7546771E-02  0.1134497E+00
         21   -1    0    0  502  501  0.00000000000E+00  0.00000000000E+00  0.52295155570E+02  0.52295155570E+02  0.00000000000E+00 0. -1.
         21   -1    0    0  501  502 -0.00000000000E+00 -0.00000000000E+00 -0.91861268787E+03  0.91861268787E+03  0.00000000000E+00 0. -1.
         25    1    1    2    0    0 -0.16378204142E+02 -0.14509587613E+02 -0.82896808841E+03  0.83862498491E+03  0.12500000000E+03 0.  0.
         25    1    1    2    0    0  0.16378204142E+02  0.14509587613E+02 -0.37349443890E+02  0.13228285854E+03  0.12500000000E+03 0.  0.
</event>
<event>
 4    0  0.2134002E-002  0.3319573E+03  0.7546771E-02  0.1070274E+00
         21   -1    0    0  502  501  0.00000000000E+00  0.00000000000E+00  0.83079967621E+03  0.83079967621E+03  0.00000000000E+00 0. -1.
         21   -1    0    0  501  502 -0.00000000000E+00 -0.00000000000E+00 -0.13263805874E+03  0.13263805874E+03  0.00000000000E+00 0. -1.
         25    1    1    2    0    0 -0.13003113137E+03 -0.21351920822E+03  0.89199420828E+02  0.29339407642E+03  0.12500000000E+03 0.  0.
         25    1    1    2    0    0  0.13003113137E+03  0.21351920822E+03  0.60896219664E+03  0.67004365853E+03  0.12500000000E+03 0.  0.
</event>
<event>
 4    0  0.2134002E-002  0.1723633E+03  0.7546771E-02  0.1175405E+00
         21   -1    0    0  502  501  0.00000000000E+00  0.00000000000E+00  0.46777112716E+03  0.46777112716E+03  0.00000000000E+00 0. -1.
         21   -1    0    0  501  502 -0.00000000000E+00 -0.00000000000E+00 -0.63512081949E+02  0.63512081949E+02  0.00000000000E+00 0. -1.
         25    1    1    2    0    0 -0.72041570934E+02  0.93189391998E+02  0.17980286333E+03  0.24865301202E+03  0.12500000000E+03 0.  0.
         25    1    1    2    0    0  0.72041570934E+02 -0.93189391998E+02  0.22445618188E+03  0.28263019709E+03  0.12500000000E+03 0.  0.
</event>
<event>
 4    0  0.2134002E-002  0.2336126E+03  0.7546771E-02  0.1124123E+00
         21   -1    0    0  502  501  0.00000000000E+00  0.00000000000E+00  0.63387215846E+02  0.63387215846E+02  0.00000000000E+00 0.  1.
         21   -1    0    0  501  502 -0.00000000000E+00 -0.00000000000E+00 -0.86097538041E+03  0.86097538041E+03  0.00000000000E+00 0.  1.
         25    1    1    2    0    0  0.93382577008E+02 -0.94076937938E+02 -0.10951939748E+03  0.21258004225E+03  0.12500000000E+03 0.  0.
         25    1    1    2    0    0 -0.93382577008E+02  0.94076937938E+02 -0.68806876709E+03  0.71178255400E+03  0.12500000000E+03 0.  0.
</event>
<event>
 4    0  0.2134002E-002  0.2224825E+03  0.7546771E-02  0.1132046E+00
         21   -1    0    0  502  501  0.00000000000E+00  0.00000000000E+00  0.25981003311E+03  0.25981003311E+03  0.00000000000E+00 0.  1.
         21   -1    0    0  501  502 -0.00000000000E+00 -0.00000000000E+00 -0.19051788312E+03  0.19051788312E+03  0.00000000000E+00 0.  1.
         25    1    1    2    0    0  0.77583414558E+02 -0.13431467250E+03 -0.65612731300E+02  0.20973709251E+03  0.12500000000E+03 0.  0.
         25    1    1    2    0    0 -0.77583414558E+02  0.13431467250E+03  0.13490488129E+03  0.24059082373E+03  0.12500000000E+03 0.  0.
</event>
<event>
 4    0  0.2134002E-002  0.1820859E+03  0.7546771E-02  0.1165799E+00
         21   -1    0    0  502  501  0.00000000000E+00  0.00000000000E+00  0.27970402892E+02  0.27970402892E+02  0.00000000000E+00 0.  1.
         21   -1    0    0  501  502 -0.00000000000E+00 -0.00000000000E+00 -0.11853695459E+04  0.11853695459E+04  0.00000000000E+00 0.  1.
         25    1    1    2    0    0 -0.44223121951E+02  0.38413874365E+02 -0.18308735257E+03  0.22929738100E+03  0.12500000000E+03 0.  0.
         25    1    1    2    0    0  0.44223121951E+02 -0.38413874365E+02 -0.97431179043E+03  0.98404256779E+03  0.12500000000E+03 0.  0.
</event>
<event>
 4    0  0.2134002E-002  0.1656397E+03  0.7546771E-02  0.1182473E+00
         21   -1    0    0  502  501  0.00000000000E+00  0.00000000000E+00  0.18322562760E+03  0.18322562760E+03  0.00000000000E+00 0. -1.
         21   -1    0    0  501  502 -0.00000000000E+00 -0.00000000000E+00 -0.14974171032E+03  0.14974171032E+03  0.00000000000E+00 0. -1.
         25    1    1    2    0    0  0.33762246268E+02  0.10201827872E+03  0.41417835584E+00  0.16484171198E+03  0.12500000000E+03 0.  0.
         25    1    1    2    0    0 -0.33762246268E+02 -0.10201827872E+03  0.33069738920E+02  0.16812562594E+03  0.12500000000E+03 0.  0.
</event>
<event>
 4    0  0.2134002E-002  0.1925146E+03  0.7546771E-02  0.1156213E+00
         21   -1    0    0  502  501  0.00000000000E+00  0.00000000000E+00  0.39929992672E+02  0.39929992672E+02  0.00000000000E+00 0.  1.
         21   -1    0    0  501  502 -0.00000000000E+00 -0.00000000000E+00 -0.92817169261E+03  0.92817169261E+03  0.00000000000E+00 0.  1.
         25    1    1    2    0    0  0.12770940972E+03  0.20746058947E+02 -0.27180386717E+03  0.32594851511E+03  0.12500000000E+03 0.  0.
         25    1    1    2    0    0 -0.12770940972E+03 -0.20746058947E+02 -0.61643783278E+03  0.64215317018E+03  0.12500000000E+03 0.  0.
</event>
<event>
 4    0  0.2134002E-002  0.2840231E+03  0.7546771E-02  0.1093512E+00
         21   -1    0    0  502  501  0.00000000000E+00  0.00000000000E+00  0.69832679897E+02  0.69832679897E+02  0.00000000000E+00 0. -1.
         21   -1    0    0  501  502 -0.00000000000E+00 -0.00000000000E+00 -0.11551775536E+04  0.11551775536E+04  0.00000000000E+00 0. -1.
         25    1    1    2    0    0 -0.73510113054E+02 -0.10679423873E+03 -0.10163021389E+04  0.10321355452E+04  0.12500000000E+03 0.  0.
         25    1    1    2    0    0  0.73510113054E+02  0.10679423873E+03 -0.69042734779E+02  0.19287468827E+03  0.12500000000E+03 0.  0.
</event>
<event>
 4    0  0.2134002E-002  0.2531840E+03  0.7546771E-02  0.1111309E+00
         21   -1    0    0  502  501  0.00000000000E+00  0.00000000000E+00  0.73751556546E+02  0.73751556546E+02  0.00000000000E+00 0. -1.
         21   -1    0    0  501  502 -0.00000000000E+00 -0.00000000000E+00 -0.86916331193E+03  0.86916331193E+03  0.00000000000E+00 0. -1.
         25    1    1    2    0    0  0.17489021264E+03 -0.12750047133E+03 -0.32242970357E+03  0.40795694676E+03  0.12500000000E+03 0.  0.
         25    1    1    2    0    0 -0.17489021264E+03  0.12750047133E+03 -0.47298205181E+03  0.53495792171E+03  0.12500000000E+03 0.  0.
</event>
<event>
 4    0  0.2134002E-002  0.2926111E+03  0.7546771E-02  0.1088994E+00
         21   -1    0    0  502  501  0.00000000000E+00  0.00000000000E+00  0.22618017389E+03  0.22618017389E+03  0.00000000000E+00 0.  1.
         21   -1    0    0  501  502 -0.00000000000E+00 -0.00000000000E+00 -0.37855323871E+03  0.37855323871E+03  0.00000000000E+00 0.  1.
         25    1    1    2    0    0  0.11798541134E+03  0.23521678203E+03 -0.10446203529E+03  0.30949120934E+03  0.12500000000E+03 0.  0.
         25    1    1    2    0    0 -0.11798541134E+03 -0.23521678203E+03 -0.47911029530E+02  0.29524220327E+03  0.12500000000E+03 0.  0.
</event>
<event>
 4    0  0.2134002E-002  0.2460666E+03  0.7546771E-02  0.1115816E+00
         21   -1    0    0  502  501  0.00000000000E+00  0.00000000000E+00  0.70004061659E+02  0.70004061659E+02  0.00000000000E+00 0.  1.
         21   -1    0    0  501  502 -0.00000000000E+00 -0.00000000000E+00 -0.86493205075E+03  0.86493205075E+03  0.00000000000E+00 0.  1.
         25    1    1    2    0    0 -0.16368498736E+02  0.65919831886E+02 -0.16040093645E+02  0.14316297214E+03  0.12500000000E+03 0.  0.
         25    1    1    2    0    0  0.16368498736E+02 -0.65919831886E+02 -0.77888789545E+03  0.79177314028E+03  0.12500000000E+03 0.  0.
</event>
<event>
 4    0  0.2134002E-002  0.3991207E+03  0.7546771E-02  0.1044085E+00
         21   -1    0    0  502  501  0.00000000000E+00  0.00000000000E+00  0.10785315808E+03  0.10785315808E+03  0.00000000000E+00 0. -1.
         21   -1    0    0  501  502 -0.00000000000E+00 -0.00000000000E+00 -0.14769832848E+04  0.14769832848E+04  0.00000000000E+00 0. -1.
         25    1    1    2    0    0 -0.25522282294E+03  0.17102975322E+03 -0.11253191593E+04  0.11731828826E+04  0.12500000000E+03 0.  0.
         25    1    1    2    0    0  0.25522282294E+03 -0.17102975322E+03 -0.24381096747E+03  0.41165356028E+03  0.12500000000E+03 0.  0.
</event>
<event>
 4    0  0.2134002E-002  0.1696921E+03  0.7546771E-02  0.1178169E+00
         21   -1    0    0  502  501  0.00000000000E+00  0.00000000000E+00  0.90394836489E+03  0.90394836489E+03  0.00000000000E+00 0.  1.
         21   -1    0    0  501  502 -0.00000000000E+00 -0.00000000000E+00 -0.31855133527E+02  0.31855133527E+02  0.00000000000E+00 0.  1.
         25    1    1    2    0    0 -0.64623032714E+02  0.71542510533E+02  0.60771132855E+03  0.62787938811E+03  0.12500000000E+03 0.  0.
         25    1    1    2    0    0  0.64623032714E+02 -0.71542510533E+02  0.26438190281E+03  0.30792411030E+03  0.12500000000E+03 0.  0.
</event>
<event>
 4    0  0.2134002E-002  0.2303912E+03  0.7546771E-02  0.1126365E+00
         21   -1    0    0  502  501  0.00000000000E+00  0.00000000000E+00  0.63589477874E+02  0.63589477874E+02  0.00000000000E+00 0. -1.
         21   -1    0    0  501  502 -0.00000000000E+00 -0.00000000000E+00 -0.83473076375E+03  0.83473076375E+03  0.00000000000E+00 0. -1.
         25    1    1    2    0    0  0.10471657453E+03  0.30933305715E+02 -0.69708883065E+03  0.71657537510E+03  0.12500000000E+03 0.  0.
         25    1    1    2    0    0 -0.10471657453E+03 -0.30933305715E+02 -0.74052455229E+02  0.18174486653E+03  0.12500000000E+03 0.  0.
</event>
<event>
 4    0  0.2134002E-002  0.2045154E+03  0.7546771E-02  0.1145984E+00
         21   -1    0    0  502  501  0.00000000000E+00  0.00000000000E+00  0.30169693173E+02  0.30169693173E+02  0.00000000000E+00 0. -1.
         21   -1    0    0  501  502 -0.00000000000E+00 -0.00000000000E+00 -0.13863765967E+04  0.13863765967E+04  0.00000000000E+00 0. -1.
         25    1    1    2    0    0 -0.92025318845E+02  0.29133589464E+02 -0.11281050731E+04  0.11391064398E+04  0.12500000000E+03 0.  0.
         25    1    1    2    0    0  0.92025318845E+02 -0.29133589464E+02 -0.22810183048E+03  0.27743985008E+03  0.12500000000E+03 0.  0.
</event>
<event>
 4    0  0.2134002E-002  0.2311671E+03  0.7546771E-02  0.1125821E+00
         21   -1    0    0  502  501  0.00000000000E+00  0.00000000000E+00  0.84000216196E+02  0.84000216196E+02  0.00000000000E+00 0. -1.
         21   -1    0    0  501  502 -0.00000000000E+00 -0.00000000000E+00 -0.63616794947E+03  0.63616794947E+03  0.00000000000E+00 0. -1.
         25    1    1    2    0    0  0.78856729875E+02  0.10417678417E+03 -0.51745391704E+02  0.18807916357E+03  0.12500000000E+03 0.  0.
         25    1    1    2    0    0 -0.78856729875E+02 -0.10417678417E+03 -0.50042234157E+03  0.53208900210E+03  0.12500000000E+03 0.  0.
</event>
<event>
 4    0  0.2134002E-002  0.1989909E+03  0.7546771E-02  0.1150593E+00
         21   -1    0    0  502  501  0.00000000000E+00  0.00000000000E+00  0.11387931146E+04  0.11387931146E+04  0.00000000000E+00 0. -1.
         21   -1    0    0  501  502 -0.00000000000E+00 -0.00000000000E+00 -0.34771360177E+02  0.34771360177E+02  0.00000000000E+00 0. -1.
         25    1    1    2    0    0 -0.64297350417E+02 -0.86640406349E+02  0.22455351416E+03  0.27872924139E+03  0.12500000000E+03 0.  0.
         25    1    1    2    0    0  0.64297350417E+02  0.86640406349E+02  0.87946824023E+03  0.89483523336E+03  0.12500000000E+03 0.  0.
</event>
<event>
 4    0  0.2134002E-002  0.1647602E+03  0.7546771E-02  0.1183425E+00
         21   -1    0    0  502  501  0.00000000000E+00  0.00000000000E+00  0.18067902229E+03  0.18067902229E+03  0.00000000000E+00 0.  1.
         21   -1    0    0  501  502 -0.00000000000E+00 -0.00000000000E+00 -0.15024384589E+03  0.15024384589E+03  0.00000000000E+00 0.  1.
         25    1    1    2    0    0  0.23369732538E+02 -0.27053721023E+02  0.11685538760E+03  0.17480912400E+03  0.12500000000E+03 0.  0.
         25    1    1    2    0    0 -0.23369732538E+02  0.27053721023E+02 -0.86420211203E+02  0.15611374419E+03  0.12500000000E+03 0.  0.
</event>
<event>
 4    0  0.2134002E-002  0.1972398E+03  0.7546771E-02  0.1152089E+00
         21   -1    0    0  502  501  0.00000000000E+00  0.00000000000E+00  0.43497047156E+03  0.43497047156E+03  0.00000000000E+00 0.  1.
         21   -1    0    0  501  502 -0.00000000000E+00 -0.00000000000E+00 -0.89439493664E+02  0.89439493664E+02  0.00000000000E+00 0.  1.
         25    1    1    2    0    0 -0.27384793405E+02 -0.15006260471E+03  0.16859827620E+03  0.25945922797E+03  0.12500000000E+03 0.  0.
         25    1    1    2    0    0  0.27384793405E+02  0.15006260471E+03  0.17693270170E+03  0.26495073725E+03  0.12500000000E+03 0.  0.
</event>
<event>
 4    0  0.2134002E-002  0.1929491E+03  0.7546771E-02  0.1155828E+00
         21   -1    0    0  502  501  0.00000000000E+00  0.00000000000E+00  0.72395518404E+02  0.72395518404E+02  0.00000000000E+00 0. -1.
         21   -1    0    0  501  502 -0.00000000000E+00 -0.00000000000E+00 -0.51424935766E+03  0.51424935766E+03  0.00000000000E+00 0.  1.
         25    1    1    2    0    0 -0.12436097715E+03 -0.77648486547E+02 -0.23682807074E+03  0.30529899311E+03  0.12500000000E+03 0.  0.
         25    1    1    2    0    0  0.12436097715E+03  0.77648486547E+02 -0.20502576851E+03  0.28134588295E+03  0.12500000000E+03 0.  0.
</event>
<event>
 4    0  0.2134002E-002  0.2871988E+03  0.7546771E-02  0.1091821E+00
         21   -1    0    0  502  501  0.00000000000E+00  0.00000000000E+00  0.38631769815E+03  0.38631769815E+03  0.00000000000E+00 0.  1.
         21   -1    0    0  501  502 -0.00000000000E+00 -0.00000000000E+00 -0.21351121176E+03  0.21351121176E+03  0.00000000000E+00 0.  1.
         25    1    1    2    0    0  0.10615554026E+03  0.16808855140E+03 -0.86251084890E+02  0.25017395845E+03  0.12500000000E+03 0.  0.
         25    1    1    2    0    0 -0.10615554026E+03 -0.16808855140E+03  0.25905757128E+03  0.34965495146E+03  0.12500000000E+03 0.  0.
</event>
<event>
 4    0  0.2134002E-002  0.2109266E+03  0.7546771E-02  0.1140834E+00
         21   -1    0    0  502  501  0.00000000000E+00  0.00000000000E+00  0.47849511886E+02  0.47849511886E+02  0.00000000000E+00 0.  1.
         21   -1    0    0  501  502 -0.00000000000E+00 -0.00000000000E+00 -0.92979027111E+03  0.92979027111E+03  0.00000000000E+00 0.  1.
         25    1    1    2    0    0 -0.12041932899E+02  0.16306807102E+03 -0.54789697262E+03  0.58527967378E+03  0.12500000000E+03 0.  0.
         25    1    1    2    0    0  0.12041932899E+02 -0.16306807102E+03 -0.33404378660E+03  0.39236010921E+03  0.12500000000E+03 0.  0.
</event>
<event>
 4    0  0.2134002E-002  0.2512620E+03  0.7546771E-02  0.1112510E+00
         21   -1    0    0  502  501  0.00000000000E+00  0.00000000000E+00  0.16774064478E+03  0.16774064478E+03  0.00000000000E+00 0. -1.
         21   -1    0    0  501  502 -0.00000000000E+00 -0.00000000000E+00 -0.37637019806E+03  0.37637019806E+03  0.00000000000E+00 0. -1.
         25    1    1    2    0    0  0.21146323591E+03  0.42996475438E+02 -0.13754996694E+03  0.28479885963E+03  0.12500000000E+03 0.  0.
         25    1    1    2    0    0 -0.21146323591E+03 -0.42996475438E+02 -0.71079586342E+02  0.25931198321E+03  0.12500000000E+03 0.  0.
</event>
<event>
 4    0  0.2134002E-002  0.2438157E+03  0.7546771E-02  0.1117277E+00
         21   -1    0    0  502  501  0.00000000000E+00  0.00000000000E+00  0.26945428658E+04  0.26945428658E+04  0.00000000000E+00 0. -1.
         21   -1    0    0  501  502 -0.00000000000E+00 -0.00000000000E+00 -0.22061664706E+02  0.22061664706E+02  0.00000000000E+00 0. -1.
         25    1    1    2    0    0  0.13413529150E+02 -0.18416883712E+03  0.78690811871E+03  0.81789208984E+03  0.12500000000E+03 0.  0.
         25    1    1    2    0    0 -0.13413529150E+02  0.18416883712E+03  0.18855730824E+04  0.18987124407E+04  0.12500000000E+03 0.  0.
</event>
<event>
 4    0  0.2134002E-002  0.2238840E+03  0.7546771E-02  0.1131020E+00
         21   -1    0    0  502  501  0.00000000000E+00  0.00000000000E+00  0.28645057842E+03  0.28645057842E+03  0.00000000000E+00 0.  1.
         21   -1    0    0  501  502 -0.00000000000E+00 -0.00000000000E+00 -0.17498315035E+03  0.17498315035E+03  0.00000000000E+00 0.  1.
         25    1    1    2    0    0  0.74809636093E+02  0.16999239801E+03  0.58067243772E+02  0.23128056951E+03  0.12500000000E+03 0.  0.
         25    1    1    2    0    0 -0.74809636093E+02 -0.16999239801E+03  0.53400184299E+02  0.23015315926E+03  0.12500000000E+03 0.  0.
</event>
<event>
 4    0  0.2134002E-002  0.2663889E+03  0.7546771E-02  0.1103364E+00
         21   -1    0    0  502  501  0.00000000000E+00  0.00000000000E+00  0.30371423991E+03  0.30371423991E+03  0.00000000000E+00 0. -1.
         21   -1    0    0  501  502 -0.00000000000E+00 -0.00000000000E+00 -0.23365070312E+03  0.23365070312E+03  0.00000000000E+00 0. -1.
         25    1    1    2    0    0 -0.21933451670E+03 -0.55424244311E+02  0.10007395717E+03  0.27716290152E+03  0.12500000000E+03 0.  0.
         25    1    1    2    0    0  0.21933451670E+03  0.55424244311E+02 -0.30010420376E+02  0.26020204151E+03  0.12500000000E+03 0.  0.
</event>
<event>
 4    0  0.2134002E-002  0.3031838E+03  0.7546771E-02  0.1083660E+00
         21   -1    0    0  502  501  0.00000000000E+00  0.00000000000E+00  0.17033970487E+04  0.17033970487E+04  0.00000000000E+00 0.  1.
         21   -1    0    0  501  502 -0.00000000000E+00 -0.00000000000E+00 -0.53962987093E+02  0.53962987093E+02  0.00000000000E+00 0.  1.
         25    1    1    2    0    0  0.14621976875E+03  0.51023800896E+02  0.16185306126E+03  0.25652497436E+03  0.12500000000E+03 0.  0.
         25    1    1    2    0    0 -0.14621976875E+03 -0.51023800896E+02  0.14875810004E+04  0.15008350615E+04  0.12500000000E+03 0.  0.
</event>
<event>
 4    0  0.2134002E-002  0.2918336E+03  0.7546771E-02  0.1089396E+00
         21   -1    0    0  502  501  0.00000000000E+00  0.00000000000E+00  0.10406970538E+04  0.10406970538E+04  0.00000000000E+00 0.  1.
         21   -1    0    0  501  502 -0.00000000000E+00 -0.00000000000E+00 -0.81836358991E+02  0.81836358991E+02  0.00000000000E+00 0.  1.
         25    1    1    2    0    0  0.40924669540E+02  0.33057258753E+01 -0.21558918641E+02  0.13332495405E+03  0.12500000000E+03 0.  0.
         25    1    1    2    0    0 -0.40924669540E+02 -0.33057258753E+01  0.98041961348E+03  0.98920845876E+03  0.12500000000E+03 0.  0.
</event>
<event>
 4    0  0.2134002E-002  0.2133878E+03  0.7546771E-02  0.1138911E+00
         21   -1    0    0  502  501  0.00000000000E+00  0.00000000000E+00  0.12869126944E+04  0.12869126944E+04  0.00000000000E+00 0. -1.
         21   -1    0    0  501  502 -0.00000000000E+00 -0.00000000000E+00 -0.35382619845E+02  0.35382619845E+02  0.00000000000E+00 0. -1.
         25    1    1    2    0    0 -0.14690337282E+03  0.96746012206E+01  0.90693214981E+03  0.92726755752E+03  0.12500000000E+03 0.  0.
         25    1    1    2    0    0  0.14690337282E+03 -0.96746012206E+01  0.34459792479E+03  0.39502775677E+03  0.12500000000E+03 0.  0.
</event>
<event>
 4    0  0.2134002E-002  0.1893498E+03  0.7546771E-02  0.1159049E+00
         21   -1    0    0  502  501  0.00000000000E+00  0.00000000000E+00  0.97995125881E+02  0.97995125881E+02  0.00000000000E+00 0. -1.
         21   -1    0    0  501  502 -0.00000000000E+00 -0.00000000000E+00 -0.36586873172E+03  0.36586873172E+03  0.00000000000E+00 0. -1.
         25    1    1    2    0    0 -0.63550737301E+02  0.10155791593E+03 -0.22782769445E+03  0.28615234554E+03  0.12500000000E+03 0.  0.
         25    1    1    2    0    0  0.63550737301E+02 -0.10155791593E+03 -0.40045911387E+02  0.17771151206E+03  0.12500000000E+03 0.  0.
</event>
<event>
 4    0  0.2134002E-002  0.2345395E+03  0.7546771E-02  0.1123485E+00
         21   -1    0    0  502  501  0.00000000000E+00  0.00000000000E+00  0.12610497872E+03  0.12610497872E+03  0.00000000000E+00 0. -1.
         21   -1    0    0  501  502 -0.00000000000E+00 -0.00000000000E+00 -0.43621404692E+03  0.43621404692E+03  0.00000000000E+00 0. -1.
         25    1    1    2    0    0  0.13200973769E+03 -0.13192099204E+03 -0.74156967307E+02  0.23654592532E+03  0.12500000000E+03 0.  0.
         25    1    1    2    0    0 -0.13200973769E+03  0.13192099204E+03 -0.23595210089E+03  0.32577310033E+03  0.12500000000E+03 0.  0.
</event>
<event>
 4    0  0.2134002E-002  0.3278034E+03  0.7546771E-02  0.1072113E+00
         21   -1    0    0  502  501  0.00000000000E+00  0.00000000000E+00  0.83544803115E+03  0.83544803115E+03  0.00000000000E+00 0.  1.
         21   -1    0    0  501  502 -0.00000000000E+00 -0.00000000000E+00 -0.12861966288E+03  0.12861966288E+03  0.00000000000E+00 0.  1.
         25    1    1    2    0    0  0.10386048917E+03 -0.13744326222E+03  0.72001468722E+03  0.75081542429E+03  0.12500000000E+03 0.  0.
         25    1    1    2    0    0 -0.10386048917E+03  0.13744326222E+03 -0.13186318963E+02  0.21325226974E+03  0.12500000000E+03 0.  0.
</event>
<event>
 4    0  0.2134002E-002  0.1927425E+03  0.7546771E-02  0.1156011E+00
         21   -1    0    0  502  501  0.00000000000E+00  0.00000000000E+00  0.48060350065E+03  0.48060350065E+03  0.00000000000E+00 0. -1.
         21   -1    0    0  501  502 -0.00000000000E+00 -0.00000000000E+00 -0.77297971283E+02  0.77297971283E+02  0.00000000000E+00 0. -1.
         25    1    1    2    0    0  0.52440700497E+02  0.86836555380E+01  0.37453765107E+01  0.13588399754E+03  0.12500000000E+03 0.  0.
         25    1    1    2    0    0 -0.52440700497E+02 -0.86836555380E+01  0.39956015285E+03  0.42201747439E+03  0.12500000000E+03 0.  0.
</event>
<event>
 4    0  0.2134002E-002  0.2436751E+03  0.7546771E-02  0.1117369E+00
         21   -1    0    0  502  501  0.00000000000E+00  0.00000000000E+00  0.12661250633E+04  0.12661250633E+04  0.00000000000E+00 0. -1.
         21   -1    0    0  501  502 -0.00000000000E+00 -0.00000000000E+00 -0.46897060228E+02  0.46897060228E+02  0.00000000000E+00 0. -1.
         25    1    1    2    0    0 -0.11668410403E+03 -0.13474868864E+03  0.90450542240E+03  0.93033727667E+03  0.12500000000E+03 0.  0.
         25    1    1    2    0    0  0.11668410403E+03  0.13474868864E+03  0.31472258068E+03  0.38268484686E+03  0.12500000000E+03 0.  0.
</event>
<event>
 4    0  0.2134002E-002  0.2488812E+03  0.7546771E-02  0.1114014E+00
         21   -1    0    0  502  501  0.00000000000E+00  0.00000000000E+00  0.43762234672E+02  0.43762234672E+02  0.00000000000E+00 0. -1.
         21   -1    0    0  501  502 -0.00000000000E+00 -0.00000000000E+00 -0.14154183805E+04  0.14154183805E+04  0.00000000000E+00 0. -1.
         25    1    1    2    0    0 -0.54352715890E+02  0.14705921043E+03 -0.25363368060E+03  0.32331976901E+03  0.12500000000E+03 0.  0.
         25    1    1    2    0    0  0.54352715890E+02 -0.14705921043E+03 -0.11180224652E+04  0.11358608461E+04  0.12500000000E+03 0.  0.
</event>
<event>
 4    0  0.2134002E-002  0.2159655E+03  0.7546771E-02  0.1136927E+00
         21   -1    0    0  502  501  0.00000000000E+00  0.00000000000E+00  0.40488723198E+03  0.40488723198E+03  0.00000000000E+00 0. -1.
         21   -1    0    0  501  502 -0.00000000000E+00 -0.00000000000E+00 -0.11519525552E+03  0.11519525552E+03  0.00000000000E+00 0. -1.
         25    1    1    2    0    0  0.81275127301E+02 -0.15494238464E+03  0.12066513524E+03  0.24657222824E+03  0.12500000000E+03 0.  0.
         25    1    1    2    0    0 -0.81275127301E+02  0.15494238464E+03  0.16902684122E+03  0.27351025927E+03  0.12500000000E+03 0.  0.
</event>
<event>
 4    0  0.2134002E-002  0.2483400E+03  0.7546771E-02  0.1114358E+00
         21   -1    0    0  502  501  0.00000000000E+00  0.00000000000E+00  0.99961349404E+02  0.99961349404E+02  0.00000000000E+00 0.  1.
         21   -1    0    0  501  502 -0.00000000000E+00 -0.00000000000E+00 -0.61696582323E+03  0.61696582323E+03  0.00000000000E+00 0.  1.
         25    1    1    2    0    0  0.62851848485E+02 -0.13101983170E+03 -0.48641565698E+03  0.52282094689E+03  0.12500000000E+03 0.  0.
         25    1    1    2    0    0 -0.62851848485E+02  0.13101983170E+03 -0.30588816850E+02  0.19410622574E+03  0.12500000000E+03 0.  0.
</event>
<event>
 4    0  0.2134002E-002  0.2074371E+03  0.7546771E-02  0.1143612E+00
         21   -1    0    0  502  501  0.00000000000E+00  0.00000000000E+00  0.60865527318E+02  0.60865527318E+02  0.00000000000E+00 0. -1.
         21   -1    0    0  501  502 -0.00000000000E+00 -0.00000000000E+00 -0.70697057504E+03  0.70697057504E+03  0.00000000000E+00 0. -1.
         25    1    1    2    0    0  0.10594111627E+03  0.48389345022E+02 -0.10532085826E+03  0.20070508716E+03  0.12500000000E+03 0.  0.
         25    1    1    2    0    0 -0.10594111627E+03 -0.48389345022E+02 -0.54078418946E+03  0.56713101520E+03  0.12500000000E+03 0.  0.
</event>
<event>
 4    0  0.2134002E-002  0.1626144E+03  0.7546771E-02  0.1185776E+00
         21   -1    0    0  502  501  0.00000000000E+00  0.00000000000E+00  0.20261092534E+03  0.20261092534E+03  0.00000000000E+00 0. -1.
         21   -1    0    0  501  502 -0.00000000000E+00 -0.00000000000E+00 -0.13051342271E+03  0.13051342271E+03  0.00000000000E+00 0. -1.
         25    1    1    2    0    0  0.22410052108E+02  0.10090651834E+03  0.47910455227E+02  0.16912938124E+03  0.12500000000E+03 0.  0.
         25    1    1    2    0    0 -0.22410052108E+02 -0.10090651834E+03  0.24187047403E+02  0.16399496681E+03  0.12500000000E+03 0.  0.
</event>
<event>
 4    0  0.2134002E-002  0.1883761E+03  0.7546771E-02  0.1159934E+00
         21   -1    0    0  502  501  0.00000000000E+00  0.00000000000E+00  0.28629085198E+03  0.28629085198E+03  0.00000000000E+00 0.  1.
         21   -1    0    0  501  502 -0.00000000000E+00 -0.00000000000E+00 -0.12394933518E+03  0.12394933518E+03  0.00000000000E+00 0.  1.
         25    1    1    2    0    0  0.32006587238E+02 -0.58650942903E+01 -0.68136660852E+02  0.14603569944E+03  0.12500000000E+03 0.  0.
         25    1    1    2    0    0 -0.32006587238E+02  0.58650942903E+01  0.23047817766E+03  0.26420448773E+03  0.12500000000E+03 0.  0.
</event>
<event>
 4    0  0.2134002E-002  0.1838609E+03  0.7546771E-02  0.1164118E+00
         21   -1    0    0  502  501  0.00000000000E+00  0.00000000000E+00  0.11606768291E+03  0.11606768291E+03  0.00000000000E+00 0.  1.
         21   -1    0    0  501  502 -0.00000000000E+00 -0.00000000000E+00 -0.29125104571E+03  0.29125104571E+03  0.00000000000E+00 0.  1.
         25    1    1    2    0    0  0.67973722768E+02  0.60605511117E+02 -0.19772877426E+03  0.25102813216E+03  0.12500000000E+03 0.  0.
         25    1    1    2    0    0 -0.67973722768E+02 -0.60605511117E+02  0.22545411452E+02  0.15629059646E+03  0.12500000000E+03 0.  0.
</event>
<event>
 4    0  0.2134002E-002  0.2831976E+03  0.7546771E-02  0.1093955E+00
         21   -1    0    0  502  501  0.00000000000E+00  0.00000000000E+00  0.50545626638E+02  0.50545626638E+02  0.00000000000E+00 0.  1.
         21   -1    0    0  501  502 -0.00000000000E+00 -0.00000000000E+00 -0.15867028152E+04  0.15867028152E+04  0.00000000000E+00 0.  1.
         25    1    1    2    0    0 -0.18952618468E+03 -0.10502115195E+03 -0.11518523069E+04  0.11787019784E+04  0.12500000000E+03 0.  0.
         25    1    1    2    0    0  0.18952618468E+03  0.10502115195E+03 -0.38430488165E+03  0.45854646340E+03  0.12500000000E+03 0.  0.
</event>
<event>
 4    0  0.2134002E-002  0.2166189E+03  0.7546771E-02  0.1136429E+00
         21   -1    0    0  502  501  0.00000000000E+00  0.00000000000E+00  0.89259127793E+02  0.89259127793E+02  0.00000000000E+00 0. -1.
         21   -1    0    0  501  502 -0.00000000000E+00 -0.00000000000E+00 -0.52570273015E+03  0.52570273015E+03  0.00000000000E+00 0. -1.
         25    1    1    2    0    0  0.95653691394E+02  0.11422049029E+03 -0.82793421969E+02  0.21136626931E+03  0.12500000000E+03 0.  0.
         25    1    1    2    0    0 -0.95653691394E+02 -0.11422049029E+03 -0.35365018039E+03  0.40359558864E+03  0.12500000000E+03 0.  0.
</event>
<event>
 4    0  0.2134002E-002  0.1488705E+03  0.7546771E-02  0.1201868E+00
         21   -1    0    0  502  501  0.00000000000E+00  0.00000000000E+00  0.22753094995E+03  0.22753094995E+03  0.00000000000E+00 0.  1.
         21   -1    0    0  501  502 -0.00000000000E+00 -0.00000000000E+00 -0.97404029289E+02  0.97404029289E+02  0.00000000000E+00 0.  1.
         25    1    1    2    0    0  0.30086097404E+02  0.55018717793E+02  0.12076641075E+03  0.18477488609E+03  0.12500000000E+03 0.  0.
         25    1    1    2    0    0 -0.30086097404E+02 -0.55018717793E+02  0.93605099086E+01  0.14016009314E+03  0.12500000000E+03 0.  0.
</event>
<event>
 4    0  0.2134002E-002  0.3417993E+03  0.7546771E-02  0.1066032E+00
         21   -1    0    0  502  501  0.00000000000E+00  0.00000000000E+00  0.22318114076E+04  0.22318114076E+04  0.00000000000E+00 0.  1.
         21   -1    0    0  501  502 -0.00000000000E+00 -0.00000000000E+00 -0.52346167669E+02  0.52346167669E+02  0.00000000000E+00 0.  1.
         25    1    1    2    0    0 -0.17829953358E+03 -0.21957592220E+03  0.60325055399E+03  0.67789419542E+03  0.12500000000E+03 0.  0.
         25    1    1    2    0    0  0.17829953358E+03  0.21957592220E+03  0.15762146859E+04  0.16062633798E+04  0.12500000000E+03 0.  0.
</event>
<event>
 4    0  0.2134002E-002  0.2039231E+03  0.7546771E-02  0.1146471E+00
         21   -1    0    0  502  501  0.00000000000E+00  0.00000000000E+00  0.30063971059E+02  0.30063971059E+02  0.00000000000E+00 0. -1.
         21   -1    0    0  501  502 -0.00000000000E+00 -0.00000000000E+00 -0.13832050371E+04  0.13832050371E+04  0.00000000000E+00 0. -1.
         25    1    1    2    0    0 -0.13062496105E+02 -0.11406102997E+03 -0.28484820115E+03  0.33157811306E+03  0.12500000000E+03 0.  0.
         25    1    1    2    0    0  0.13062496105E+02  0.11406102997E+03 -0.10682928649E+04  0.10816908951E+04  0.12500000000E+03 0.  0.
</event>
<event>
 4    0  0.2134002E-002  0.2661777E+03  0.7546771E-02  0.1103487E+00
         21   -1    0    0  502  501  0.00000000000E+00  0.00000000000E+00  0.42961810546E+03  0.42961810546E+03  0.00000000000E+00 0.  1.
         21   -1    0    0  501  502 -0.00000000000E+00 -0.00000000000E+00 -0.16491519358E+03  0.16491519358E+03  0.00000000000E+00 0.  1.
         25    1    1    2    0    0  0.11441863281E+02  0.10470392416E+03 -0.10226043394E+03  0.19281085115E+03  0.12500000000E+03 0.  0.
         25    1    1    2    0    0 -0.11441863281E+02 -0.10470392416E+03  0.36696334582E+03  0.40172244790E+03  0.12500000000E+03 0.  0.
</event>
<event>
 4    0  0.2134002E-002  0.1915310E+03  0.7546771E-02  0.1157088E+00
         21   -1    0    0  502  501  0.00000000000E+00  0.00000000000E+00  0.12775609001E+03  0.12775609001E+03  0.00000000000E+00 0. -1.
         21   -1    0    0  501  502 -0.00000000000E+00 -0.00000000000E+00 -0.28714179309E+03  0.28714179309E+03  0.00000000000E+00 0. -1.
         25    1    1    2    0    0  0.52115505164E+01 -0.11130014302E+03 -0.18039422342E+03  0.24613402434E+03  0.12500000000E+03 0.  0.
         25    1    1    2    0    0 -0.52115505164E+01  0.11130014302E+03  0.21008520337E+02  0.16876385876E+03  0.12500000000E+03 0.  0.
</event>
<event>
 4    0  0.2134002E-002  0.2663369E+03  0.7546771E-02  0.1103395E+00
         21   -1    0    0  502  501  0.00000000000E+00  0.00000000000E+00  0.28425980852E+02  0.28425980852E+02  0.00000000000E+00 0.  1.
         21   -1    0    0  501  502 -0.00000000000E+00 -0.00000000000E+00 -0.24954397127E+04  0.24954397127E+04  0.00000000000E+00 0.  1.
         25    1    1    2    0    0 -0.10166566776E+03 -0.98744266553E+02 -0.34425618299E+03  0.39271320032E+03  0.12500000000E+03 0.  0.
         25    1    1    2    0    0  0.10166566776E+03  0.98744266553E+02 -0.21227575489E+04  0.21311524933E+04  0.12500000000E+03 0.  0.
</event>
<event>
 4    0  0.2134002E-002  0.1749575E+03  0.7546771E-02  0.1172774E+00
         21   -1    0    0  502  501  0.00000000000E+00  0.00000000000E+00  0.92958650221E+02  0.92958650221E+02  0.00000000000E+00 0.  1.
         21   -1    0    0  501  502 -0.00000000000E+00 -0.00000000000E+00 -0.32928771373E+03  0.32928771373E+03  0.00000000000E+00 0.  1.
         25    1    1    2    0    0 -0.95128641972E+02 -0.58198356195E+02 -0.17908412705E+03  0.24521955825E+03  0.12500000000E+03 0.  0.
         25    1    1    2    0    0  0.95128641972E+02  0.58198356195E+02 -0.57244936464E+02  0.17702680571E+03  0.12500000000E+03 0.  0.
</event>
<event>
 4    0  0.2134002E-002  0.2279159E+03  0.7546771E-02  0.1128115E+00
         21   -1    0    0  502  501  0.00000000000E+00  0.00000000000E+00  0.28327723275E+03  0.28327723275E+03  0.00000000000E+00 0.  1.
         21   -1    0    0  501  502 -0.00000000000E+00 -0.00000000000E+00 -0.18337397443E+03  0.18337397443E+03  0.00000000000E+00 0.  1.
         25    1    1    2    0    0  0.37130365599E+02  0.18332330323E+03  0.87350554332E+02  0.24133217129E+03  0.12500000000E+03 0.  0.
         25    1    1    2    0    0 -0.37130365599E+02 -0.18332330323E+03  0.12552703987E+02  0.22531903589E+03  0.12500000000E+03 0.  0.
</event>
<event>
 4    0  0.2134002E-002  0.2411470E+03  0.7546771E-02  0.1119031E+00
         21   -1    0    0  502  501  0.00000000000E+00  0.00000000000E+00  0.11714194668E+03  0.11714194668E+03  0.00000000000E+00 0.  1.
         21   -1    0    0  501  502 -0.00000000000E+00 -0.00000000000E+00 -0.49642246817E+03  0.49642246817E+03  0.00000000000E+00 0.  1.
         25    1    1    2    0    0 -0.19503764204E+03  0.64390843952E+01 -0.10481586267E+03  0.25434722072E+03  0.12500000000E+03 0.  0.
         25    1    1    2    0    0  0.19503764204E+03 -0.64390843952E+01 -0.27446465882E+03  0.35921719414E+03  0.12500000000E+03 0.  0.
</event>
<event>
 4    0  0.2134002E-002  0.2261145E+03  0.7546771E-02  0.1129405E+00
         21   -1    0    0  502  501  0.00000000000E+00  0.00000000000E+00  0.54357548442E+02  0.54357548442E+02  0.00000000000E+00 0. -1.
         21   -1    0    0  501  502 -0.00000000000E+00 -0.00000000000E+00 -0.94058284060E+03  0.94058284060E+03  0.00000000000E+00 0. -1.
         25    1    1    2    0    0  0.13817713029E+03 -0.45542021877E+02 -0.70653298643E+03  0.73210713424E+03  0.12500000000E+03 0.  0.
         25    1    1    2    0    0 -0.13817713029E+03  0.45542021877E+02 -0.17969230573E+03  0.26283325480E+03  0.12500000000E+03 0.  0.
</event>
<event>
 4    0  0.2134002E-002  0.2976859E+03  0.7546771E-02  0.1086403E+00
         21   -1    0    0  502  501  0.00000000000E+00  0.00000000000E+00  0.35571138604E+03  0.35571138604E+03  0.00000000000E+00 0.  1.
         21   -1    0    0  501  502 -0.00000000000E+00 -0.00000000000E+00 -0.24912588623E+03  0.24912588623E+03  0.00000000000E+00 0.  1.
         25    1    1    2    0    0 -0.68759084178E+02  0.12446437647E+03  0.28666810132E+03  0.34354445561E+03  0.12500000000E+03 0.  0.
         25    1    1    2    0    0  0.68759084178E+02 -0.12446437647E+03 -0.18008260151E+03  0.26129281665E+03  0.12500000000E+03 0.  0.
</event>
<event>
 4    0  0.2134002E-002  0.2451701E+03  0.7546771E-02  0.1116396E+00
         21   -1    0    0  502  501  0.00000000000E+00  0.00000000000E+00  0.95365880939E+03  0.95365880939E+03  0.00000000000E+00 0. -1.
         21   -1    0    0  501  502 -0.00000000000E+00 -0.00000000000E+00 -0.63029212410E+02  0.63029212410E+02  0.00000000000E+00 0. -1.
         25    1    1    2    0    0  0.55608784395E+02  0.17810099085E+03  0.24141002956E+03  0.32972124927E+03  0.12500000000E+03 0.  0.
         25    1    1    2    0    0 -0.55608784395E+02 -0.17810099085E+03  0.64921956741E+03  0.68696677253E+03  0.12500000000E+03 0.  0.
</event>
<event>
 4    0  0.2134002E-002  0.1937370E+03  0.7546771E-02  0.1155133E+00
         21   -1    0    0  502  501  0.00000000000E+00  0.00000000000E+00  0.58446762532E+02  0.58446762532E+02  0.00000000000E+00 0.  1.
         21   -1    0    0  501  502 -0.00000000000E+00 -0.00000000000E+00 -0.64219136541E+03  0.64219136541E+03  0.00000000000E+00 0.  1.
         25    1    1    2    0    0  0.10910353795E+02  0.25572227450E+01 -0.55875133319E+03  0.57267235620E+03  0.12500000000E+03 0.  0.
         25    1    1    2    0    0 -0.10910353795E+02 -0.25572227450E+01 -0.24993269682E+02  0.12796577174E+03  0.12500000000E+03 0.  0.
</event>
<event>
 4    0  0.2134002E-002  0.1759139E+03  0.7546771E-02  0.1171817E+00
         21   -1    0    0  502  501  0.00000000000E+00  0.00000000000E+00  0.78594113671E+03  0.78594113671E+03  0.00000000000E+00 0.  1.
         21   -1    0    0  501  502 -0.00000000000E+00 -0.00000000000E+00 -0.39374058648E+02  0.39374058648E+02  0.00000000000E+00 0.  1.
         25    1    1    2    0    0 -0.70644524098E+02  0.10081192571E+03  0.40359780218E+03  0.44007940088E+03  0.12500000000E+03 0.  0.
         25    1    1    2    0    0  0.70644524098E+02 -0.10081192571E+03  0.34296927588E+03  0.38523579448E+03  0.12500000000E+03 0.  0.
</event>
<event>
 4    0  0.2134002E-002  0.2034516E+03  0.7546771E-02  0.1146859E+00
         21   -1    0    0  502  501  0.00000000000E+00  0.00000000000E+00  0.10863852504E+04  0.10863852504E+04  0.00000000000E+00 0.  1.
         21   -1    0    0  501  502 -0.00000000000E+00 -0.00000000000E+00 -0.38101171250E+02  0.38101171250E+02  0.00000000000E+00 0. -1.
         25    1    1    2    0    0  0.14827697700E+03 -0.54866953651E+02  0.60088174989E+03  0.63378255093E+03  0.12500000000E+03 0.  0.
         25    1    1    2    0    0 -0.14827697700E+03  0.54866953651E+02  0.44740232926E+03  0.49070387072E+03  0.12500000000E+03 0.  0.
</event>
<event>
 4    0  0.2134002E-002  0.2136772E+03  0.7546771E-02  0.1138687E+00
         21   -1    0    0  502  501  0.00000000000E+00  0.00000000000E+00  0.49846890205E+02  0.49846890205E+02  0.00000000000E+00 0.  1.
         21   -1    0    0  501  502 -0.00000000000E+00 -0.00000000000E+00 -0.91596393359E+03  0.91596393359E+03  0.00000000000E+00 0.  1.
         25    1    1    2    0    0  0.94302763147E+01 -0.92200828162E+01 -0.42540051424E+02  0.13269738510E+03  0.12500000000E+03 0.  0.
         25    1    1    2    0    0 -0.94302763147E+01  0.92200828162E+01 -0.82357699196E+03  0.83311343869E+03  0.12500000000E+03 0.  0.
</event>
<event>
 4    0  0.2134002E-002  0.2509400E+03  0.7546771E-02  0.1112712E+00
         21   -1    0    0  502  501  0.00000000000E+00  0.00000000000E+00  0.10593681854E+03  0.10593681854E+03  0.00000000000E+00 0.  1.
         21   -1    0    0  501  502 -0.00000000000E+00 -0.00000000000E+00 -0.59441937043E+03  0.59441937043E+03  0.00000000000E+00 0.  1.
         25    1    1    2    0    0  0.16164961697E+03  0.14771007632E+02 -0.44644951890E+03  0.49121375618E+03  0.12500000000E+03 0.  0.
         25    1    1    2    0    0 -0.16164961697E+03 -0.14771007632E+02 -0.42033032982E+02  0.20914243279E+03  0.12500000000E+03 0.  0.
</event>
<event>
 4    0  0.2134002E-002  0.2635657E+03  0.7546771E-02  0.1105020E+00
         21   -1    0    0  502  501  0.00000000000E+00  0.00000000000E+00  0.54958194612E+03  0.54958194612E+03  0.00000000000E+00 0.  1.
         21   -1    0    0  501  502 -0.00000000000E+00 -0.00000000000E+00 -0.12639953517E+03  0.12639953517E+03  0.00000000000E+00 0.  1.
         25    1    1    2    0    0  0.15519333426E+03  0.11399834914E+03  0.45567620338E+02  0.23405555458E+03  0.12500000000E+03 0.  0.
         25    1    1    2    0    0 -0.15519333426E+03 -0.11399834914E+03  0.37761479062E+03  0.44192592671E+03  0.12500000000E+03 0.  0.
</event>
<event>
 4    0  0.2134002E-002  0.2179597E+03  0.7546771E-02  0.1135413E+00
         21   -1    0    0  502  501  0.00000000000E+00  0.00000000000E+00  0.73365530476E+03  0.73365530476E+03  0.00000000000E+00 0.  1.
         21   -1    0    0  501  502 -0.00000000000E+00 -0.00000000000E+00 -0.64753061530E+02  0.64753061530E+02  0.00000000000E+00 0.  1.
         25    1    1    2    0    0 -0.16659967533E+03 -0.57065385857E+02  0.28044314093E+03  0.35395658686E+03  0.12500000000E+03 0.  0.
         25    1    1    2    0    0  0.16659967533E+03  0.57065385857E+02  0.38845910229E+03  0.44445177943E+03  0.12500000000E+03 0.  0.
</event>
<event>
 4    0  0.2134002E-002  0.1663301E+03  0.7546771E-02  0.1181730E+00
         21   -1    0    0  502  501  0.00000000000E+00  0.00000000000E+00  0.92452505195E+02  0.92452505195E+02  0.00000000000E+00 0. -1.
         21   -1    0    0  501  502 -0.00000000000E+00 -0.00000000000E+00 -0.29924234413E+03  0.29924234413E+03  0.00000000000E+00 0. -1.
         25    1    1    2    0    0  0.99832264956E+02  0.58830026627E+01 -0.50218273538E+02  0.16777355526E+03  0.12500000000E+03 0.  0.
         25    1    1    2    0    0 -0.99832264956E+02 -0.58830026627E+01 -0.15657156540E+03  0.22392129407E+03  0.12500000000E+03 0.  0.
</event>
<event>
 4    0  0.2134002E-002  0.1801386E+03  0.7546771E-02  0.1167669E+00
         21   -1    0    0  502  501  0.00000000000E+00  0.00000000000E+00  0.72807049332E+03  0.72807049332E+03  0.00000000000E+00 0. -1.
         21   -1    0    0  501  502 -0.00000000000E+00 -0.00000000000E+00 -0.44569746544E+02  0.44569746544E+02  0.00000000000E+00 0. -1.
         25    1    1    2    0    0 -0.11003862154E+03 -0.67223925299E+02  0.37187858735E+03  0.41297244229E+03  0.12500000000E+03 0.  0.
         25    1    1    2    0    0  0.11003862154E+03  0.67223925299E+02  0.31162215943E+03  0.35966779757E+03  0.12500000000E+03 0.  0.
</event>
<event>
 4    0  0.2134002E-002  0.3087013E+03  0.7546771E-02  0.1080970E+00
         21   -1    0    0  502  501  0.00000000000E+00  0.00000000000E+00  0.11856642077E+03  0.11856642077E+03  0.00000000000E+00 0.  1.
         21   -1    0    0  501  502 -0.00000000000E+00 -0.00000000000E+00 -0.80373931159E+03  0.80373931159E+03  0.00000000000E+00 0.  1.
         25    1    1    2    0    0  0.27223737498E+03  0.72422153219E+02 -0.31614335870E+03  0.44150852750E+03  0.12500000000E+03 0.  0.
         25    1    1    2    0    0 -0.27223737498E+03 -0.72422153219E+02 -0.36902953213E+03  0.48079720485E+03  0.12500000000E+03 0.  0.
</event>
<event>
 4    0  0.2134002E-002  0.2031737E+03  0.7546771E-02  0.1147089E+00
         21   -1    0    0  502  501  0.00000000000E+00  0.00000000000E+00  0.20598760907E+03  0.20598760907E+03  0.00000000000E+00 0.  1.
         21   -1    0    0  501  502 -0.00000000000E+00 -0.00000000000E+00 -0.20039815056E+03  0.20039815056E+03  0.00000000000E+00 0.  1.
         25    1    1    2    0    0  0.19286322748E+02  0.84948349678E+02  0.13721857341E+03  0.20504175488E+03  0.12500000000E+03 0.  0.
         25    1    1    2    0    0 -0.19286322748E+02 -0.84948349678E+02 -0.13162911490E+03  0.20134400474E+03  0.12500000000E+03 0.  0.
</event>
<event>
 4    0  0.2134002E-002  0.1778891E+03  0.7546771E-02  0.1169862E+00
         21   -1    0    0  502  501  0.00000000000E+00  0.00000000000E+00  0.19678798516E+04  0.19678798516E+04  0.00000000000E+00 0.  1.
         21   -1    0    0  501  502 -0.00000000000E+00 -0.00000000000E+00 -0.16080517764E+02  0.16080517764E+02  0.00000000000E+00 0.  1.
         25    1    1    2    0    0  0.62771416593E+02 -0.64494611738E+02  0.47964038739E+03  0.50376552770E+03  0.12500000000E+03 0.  0.
         25    1    1    2    0    0 -0.62771416593E+02  0.64494611738E+02  0.14721589465E+04  0.14801948417E+04  0.12500000000E+03 0.  0.
</event>
<event>
 4    0  0.2134002E-002  0.1759670E+03  0.7546771E-02  0.1171764E+00
         21   -1    0    0  502  501  0.00000000000E+00  0.00000000000E+00  0.21624830614E+03  0.21624830614E+03  0.00000000000E+00 0.  1.
         21   -1    0    0  501  502 -0.00000000000E+00 -0.00000000000E+00 -0.14318903457E+03  0.14318903457E+03  0.00000000000E+00 0.  1.
         25    1    1    2    0    0 -0.37328791748E+02  0.91963734810E+02 -0.39135096601E+02  0.16433904892E+03  0.12500000000E+03 0.  0.
         25    1    1    2    0    0  0.37328791748E+02 -0.91963734810E+02  0.11219436817E+03  0.19509829180E+03  0.12500000000E+03 0.  0.
</event>
<event>
 4    0  0.2134002E-002  0.3399030E+03  0.7546771E-02  0.1066837E+00
         21   -1    0    0  502  501  0.00000000000E+00  0.00000000000E+00  0.75527925605E+03  0.75527925605E+03  0.00000000000E+00 0. -1.
         21   -1    0    0  501  502 -0.00000000000E+00 -0.00000000000E+00 -0.15296861133E+03  0.15296861133E+03  0.00000000000E+00 0.  1.
         25    1    1    2    0    0 -0.62996260241E+01 -0.20884764316E+03 -0.15719999487E+02  0.24398594576E+03  0.12500000000E+03 0.  0.
         25    1    1    2    0    0  0.62996260241E+01  0.20884764316E+03  0.61803064420E+03  0.66426192162E+03  0.12500000000E+03 0.  0.
</event>
<event>
 4    0  0.2134002E-002  0.1699026E+03  0.7546771E-02  0.1177949E+00
         21   -1    0    0  502  501  0.00000000000E+00  0.00000000000E+00  0.17085968632E+03  0.17085968632E+03  0.00000000000E+00 0. -1.
         21   -1    0    0  501  502 -0.00000000000E+00 -0.00000000000E+00 -0.16895097190E+03  0.16895097190E+03  0.00000000000E+00 0. -1.
         25    1    1    2    0    0  0.55196303801E+02 -0.31639918808E+02 -0.94933513444E+02  0.16936672752E+03  0.12500000000E+03 0.  0.
         25    1    1    2    0    0 -0.55196303801E+02  0.31639918808E+02  0.96842227859E+02  0.17044393070E+03  0.12500000000E+03 0.  0.
</event>
<event>
 4    0  0.2134002E-002  0.3556490E+03  0.7546771E-02  0.1060320E+00
         21   -1    0    0  502  501  0.00000000000E+00  0.00000000000E+00  0.53570767093E+03  0.53570767093E+03  0.00000000000E+00 0. -1.
         21   -1    0    0  501  502 -0.00000000000E+00 -0.00000000000E+00 -0.23611054870E+03  0.23611054870E+03  0.00000000000E+00 0. -1.
         25    1    1    2    0    0  0.26518490179E+03  0.12135163530E+02  0.36787330506E+03  0.47055930860E+03  0.12500000000E+03 0.  0.
         25    1    1    2    0    0 -0.26518490179E+03 -0.12135163530E+02 -0.68276182821E+02  0.30125891103E+03  0.12500000000E+03 0.  0.
</event>
<event>
 4    0  0.2134002E-002  0.2407107E+03  0.7546771E-02  0.1119320E+00
         21   -1    0    0  502  501  0.00000000000E+00  0.00000000000E+00  0.49657875409E+03  0.49657875409E+03  0.00000000000E+00 0.  1.
         21   -1    0    0  501  502 -0.00000000000E+00 -0.00000000000E+00 -0.11668171891E+03  0.11668171891E+03  0.00000000000E+00 0.  1.
         25    1    1    2    0    0  0.16697350940E+03  0.10783373278E+03  0.25745549477E+03  0.34844884640E+03  0.12500000000E+03 0.  0.
         25    1    1    2    0    0 -0.16697350940E+03 -0.10783373278E+03  0.12244154040E+03  0.26481162660E+03  0.12500000000E+03 0.  0.
</event>
<event>
 4    0  0.2134002E-002  0.3265031E+03  0.7546771E-02  0.1072695E+00
         21   -1    0    0  502  501  0.00000000000E+00  0.00000000000E+00  0.38978934729E+03  0.38978934729E+03  0.00000000000E+00 0.  1.
         21   -1    0    0  501  502 -0.00000000000E+00 -0.00000000000E+00 -0.27349200864E+03  0.27349200864E+03  0.00000000000E+00 0.  1.
         25    1    1    2    0    0 -0.90947476285E+02 -0.26542074717E+03 -0.54316907871E+02  0.31192137303E+03  0.12500000000E+03 0.  0.
         25    1    1    2    0    0  0.90947476285E+02  0.26542074717E+03  0.17061424652E+03  0.35135998291E+03  0.12500000000E+03 0.  0.
</event>
<event>
 4    0  0.2134002E-002  0.2092702E+03  0.7546771E-02  0.1142145E+00
         21   -1    0    0  502  501  0.00000000000E+00  0.00000000000E+00  0.26546525834E+03  0.26546525834E+03  0.00000000000E+00 0.  1.
         21   -1    0    0  501  502 -0.00000000000E+00 -0.00000000000E+00 -0.16497081623E+03  0.16497081623E+03  0.00000000000E+00 0.  1.
         25    1    1    2    0    0 -0.14846964930E+03 -0.66237936589E+02  0.93125371125E+02  0.22522885196E+03  0.12500000000E+03 0.  0.
         25    1    1    2    0    0  0.14846964930E+03  0.66237936589E+02  0.73690709902E+01  0.20520722262E+03  0.12500000000E+03 0.  0.
</event>
<event>
 4    0  0.2134002E-002  0.2040760E+03  0.7546771E-02  0.1146345E+00
         21   -1    0    0  502  501  0.00000000000E+00  0.00000000000E+00  0.48696492057E+03  0.48696492057E+03  0.00000000000E+00 0. -1.
         21   -1    0    0  501  502 -0.00000000000E+00 -0.00000000000E+00 -0.85523637009E+02  0.85523637009E+02  0.00000000000E+00 0. -1.
         25    1    1    2    0    0  0.50486618714E+01  0.42817905746E+02 -0.17312072997E+02  0.13335505206E+03  0.12500000000E+03 0.  0.
         25    1    1    2    0    0 -0.50486618714E+01 -0.42817905746E+02  0.41875335656E+03  0.43913350551E+03  0.12500000000E+03 0.  0.
</event>
<event>
 4    0  0.2134002E-002  0.3701217E+03  0.7546771E-02  0.1054646E+00
         21   -1    0    0  502  501  0.00000000000E+00  0.00000000000E+00  0.87671141395E+03  0.87671141395E+03  0.00000000000E+00 0. -1.
         21   -1    0    0  501  502 -0.00000000000E+00 -0.00000000000E+00 -0.15625448221E+03  0.15625448221E+03  0.00000000000E+00 0.  1.
         25    1    1    2    0    0 -0.70017909964E+02  0.33439455419E+03  0.26514514883E+03  0.45016572008E+03  0.12500000000E+03 0.  0.
         25    1    1    2    0    0  0.70017909964E+02 -0.33439455419E+03  0.45531178290E+03  0.58280017608E+03  0.12500000000E+03 0.  0.
</event>
<event>
 4    0  0.2134002E-002  0.2018249E+03  0.7546771E-02  0.1148208E+00
         21   -1    0    0  502  501  0.00000000000E+00  0.00000000000E+00  0.73482470537E+03  0.73482470537E+03  0.00000000000E+00 0. -1.
         21   -1    0    0  501  502 -0.00000000000E+00 -0.00000000000E+00 -0.55432654932E+02  0.55432654932E+02  0.00000000000E+00 0. -1.
         25    1    1    2    0    0  0.96330476821E+02  0.92241125068E+02  0.50720120145E+03  0.53913453299E+03  0.12500000000E+03 0.  0.
         25    1    1    2    0    0 -0.96330476821E+02 -0.92241125068E+02  0.17219084899E+03  0.25112282730E+03  0.12500000000E+03 0.  0.
</event>
<event>
 4    0  0.2134002E-002  0.2940256E+03  0.7546771E-02  0.1088266E+00
         21   -1    0    0  502  501  0.00000000000E+00  0.00000000000E+00  0.16934457784E+03  0.16934457784E+03  0.00000000000E+00 0.  1.
         21   -1    0    0  501  502 -0.00000000000E+00 -0.00000000000E+00 -0.51050391337E+03  0.51050391337E+03  0.00000000000E+00 0.  1.
         25    1    1    2    0    0 -0.24386332661E+03  0.80476443194E+02 -0.25134402835E+03  0.38045315160E+03  0.12500000000E+03 0.  0.
         25    1    1    2    0    0  0.24386332661E+03 -0.80476443194E+02 -0.89815307171E+02  0.29939533961E+03  0.12500000000E+03 0.  0.
</event>
<event>
 4    0  0.2134002E-002  0.3538435E+03  0.7546771E-02  0.1061048E+00
         21   -1    0    0  502  501  0.00000000000E+00  0.00000000000E+00  0.21331488812E+03  0.21331488812E+03  0.00000000000E+00 0. -1.
         21   -1    0    0  501  502 -0.00000000000E+00 -0.00000000000E+00 -0.58695038837E+03  0.58695038837E+03  0.00000000000E+00 0. -1.
         25    1    1    2    0    0 -0.17208314117E+03 -0.10148653366E+02  0.13275519368E+03  0.25092736815E+03  0.12500000000E+03 0.  0.
         25    1    1    2    0    0  0.17208314117E+03  0.10148653366E+02 -0.50639069392E+03  0.54933790833E+03  0.12500000000E+03 0.  0.
</event>
<event>
 4    0  0.2134002E-002  0.2522231E+03  0.7546771E-02  0.1111908E+00
         21   -1    0    0  502  501  0.00000000000E+00  0.00000000000E+00  0.10333158828E+03  0.10333158828E+03  0.00000000000E+00 0.  1.
         21   -1    0    0  501  502 -0.00000000000E+00 -0.00000000000E+00 -0.61565407526E+03  0.61565407526E+03  0.00000000000E+00 0.  1.
         25    1    1    2    0    0  0.23333063063E+02  0.55609132087E+02  0.44014196513E+02  0.14559895912E+03  0.12500000000E+03 0.  0.
         25    1    1    2    0    0 -0.23333063063E+02 -0.55609132087E+02 -0.55633668349E+03  0.57338670442E+03  0.12500000000E+03 0.  0.
</event>
<event>
 4    0  0.2134002E-002  0.1925630E+03  0.7546771E-02  0.1156170E+00
         21   -1    0    0  502  501  0.00000000000E+00  0.00000000000E+00  0.40480562880E+03  0.40480562880E+03  0.00000000000E+00 0.  1.
         21   -1    0    0  501  502 -0.00000000000E+00 -0.00000000000E+00 -0.91600782588E+02  0.91600782588E+02  0.00000000000E+00 0.  1.
         25    1    1    2    0    0  0.13413277413E+03  0.23699017060E+02  0.22604139329E+03  0.29201533519E+03  0.12500000000E+03 0.  0.
         25    1    1    2    0    0 -0.13413277413E+03 -0.23699017060E+02  0.87163452928E+02  0.20439107620E+03  0.12500000000E+03 0.  0.
</event>
<event>
 4    0  0.2134002E-002  0.2064655E+03  0.7546771E-02  0.1144396E+00
         21   -1    0    0  502  501  0.00000000000E+00  0.00000000000E+00  0.26525197555E+03  0.26525197555E+03  0.00000000000E+00 0. -1.
         21   -1    0    0  501  502 -0.00000000000E+00 -0.00000000000E+00 -0.16070763827E+03  0.16070763827E+03  0.00000000000E+00 0. -1.
         25    1    1    2    0    0 -0.15181546752E+03  0.60876350981E+02  0.68554750211E+02  0.21697608178E+03  0.12500000000E+03 0.  0.
         25    1    1    2    0    0  0.15181546752E+03 -0.60876350981E+02  0.35989587070E+02  0.20898353204E+03  0.12500000000E+03 0.  0.
</event>
<event>
 4    0  0.2134002E-002  0.2535962E+03  0.7546771E-02  0.1111053E+00
         21   -1    0    0  502  501  0.00000000000E+00  0.00000000000E+00  0.52689978403E+03  0.52689978403E+03  0.00000000000E+00 0. -1.
         21   -1    0    0  501  502 -0.00000000000E+00 -0.00000000000E+00 -0.12205549341E+03  0.12205549341E+03  0.00000000000E+00 0. -1.
         25    1    1    2    0    0  0.79610148137E+02  0.19054308181E+03  0.10296933641E+03  0.26243499376E+03  0.12500000000E+03 0.  0.
         25    1    1    2    0    0 -0.79610148137E+02 -0.19054308181E+03  0.30187495421E+03  0.38652028367E+03  0.12500000000E+03 0.  0.
</event>
<event>
 4    0  0.2134002E-002  0.4572650E+03  0.7546771E-02  0.1025577E+00
         21   -1    0    0  502  501  0.00000000000E+00  0.00000000000E+00  0.12329859229E+03  0.12329859229E+03  0.00000000000E+00 0. -1.
         21   -1    0    0  501  502 -0.00000000000E+00 -0.00000000000E+00 -0.16958123334E+04  0.16958123334E+04  0.00000000000E+00 0. -1.
         25    1    1    2    0    0  0.97713017161E+02  0.20911828234E+03 -0.15310173581E+04  0.15533568297E+04  0.12500000000E+03 0.  0.
         25    1    1    2    0    0 -0.97713017161E+02 -0.20911828234E+03 -0.41496383062E+02  0.26575409600E+03  0.12500000000E+03 0.  0.
</event>
<event>
 4    0  0.2134002E-002  0.1955955E+03  0.7546771E-02  0.1153509E+00
         21   -1    0    0  502  501  0.00000000000E+00  0.00000000000E+00  0.22496311327E+03  0.22496311327E+03  0.00000000000E+00 0.  1.
         21   -1    0    0  501  502 -0.00000000000E+00 -0.00000000000E+00 -0.17006173706E+03  0.17006173706E+03  0.00000000000E+00 0.  1.
         25    1    1    2    0    0 -0.14959902870E+02 -0.14916078761E+03  0.40218914515E+02  0.19928697985E+03  0.12500000000E+03 0.  0.
         25    1    1    2    0    0  0.14959902870E+02  0.14916078761E+03  0.14682461695E+02  0.19573787047E+03  0.12500000000E+03 0.  0.
</event>
<event>
 4    0  0.2134002E-002  0.1806664E+03  0.7546771E-02  0.1167160E+00
         21   -1    0    0  502  501  0.00000000000E+00  0.00000000000E+00  0.31090977371E+03  0.31090977371E+03  0.00000000000E+00 0. -1.
         21   -1    0    0  501  502 -0.00000000000E+00 -0.00000000000E+00 -0.10498339959E+03  0.10498339959E+03  0.00000000000E+00 0. -1.
         25    1    1    2    0    0  0.11251648553E+03 -0.44244815257E+02  0.46601895693E+02  0.18003971749E+03  0.12500000000E+03 0.  0.
         25    1    1    2    0    0 -0.11251648553E+03  0.44244815257E+02  0.15932447843E+03  0.23585345581E+03  0.12500000000E+03 0.  0.
</event>
<event>
 4    0  0.2134002E-002  0.1754581E+03  0.7546771E-02  0.1172273E+00
         21   -1    0    0  502  501  0.00000000000E+00  0.00000000000E+00  0.50394003372E+02  0.50394003372E+02  0.00000000000E+00 0. -1.
         21   -1    0    0  501  502 -0.00000000000E+00 -0.00000000000E+00 -0.61089680202E+03  0.61089680202E+03  0.00000000000E+00 0. -1.
         25    1    1    2    0    0 -0.65031200880E+02  0.97925919747E+02 -0.34928558429E+03  0.38915801706E+03  0.12500000000E+03 0.  0.
         25    1    1    2    0    0  0.65031200880E+02 -0.97925919747E+02 -0.21121721435E+03  0.27213278833E+03  0.12500000000E+03 0.  0.
</event>
<event>
 4    0  0.2134002E-002  0.3430127E+03  0.7546771E-02  0.1065520E+00
         21   -1    0    0  502  501  0.00000000000E+00  0.00000000000E+00  0.36052280157E+03  0.36052280157E+03  0.00000000000E+00 0. -1.
         21   -1    0    0  501  502 -0.00000000000E+00 -0.00000000000E+00 -0.32635308196E+03  0.32635308196E+03  0.00000000000E+00 0. -1.
         25    1    1    2    0    0  0.18953897709E+03  0.14570252547E+03  0.22919288628E+03  0.35398958867E+03  0.12500000000E+03 0.  0.
         25    1    1    2    0    0 -0.18953897709E+03 -0.14570252547E+03 -0.19502316667E+03  0.33288629486E+03  0.12500000000E+03 0.  0.
</event>
<event>
 4    0  0.2134002E-002  0.2118822E+03  0.7546771E-02  0.1140084E+00
         21   -1    0    0  502  501  0.00000000000E+00  0.00000000000E+00  0.51682333396E+03  0.51682333396E+03  0.00000000000E+00 0.  1.
         21   -1    0    0  501  502 -0.00000000000E+00 -0.00000000000E+00 -0.86865425469E+02  0.86865425469E+02  0.00000000000E+00 0.  1.
         25    1    1    2    0    0  0.59484098557E+02  0.13382677008E+03  0.88992765839E+02  0.21211476786E+03  0.12500000000E+03 0.  0.
         25    1    1    2    0    0 -0.59484098557E+02 -0.13382677008E+03  0.34096514266E+03  0.39157399158E+03  0.12500000000E+03 0.  0.
</event>
<event>
 4    0  0.2134002E-002  0.2105799E+03  0.7546771E-02  0.1141108E+00
         21   -1    0    0  502  501  0.00000000000E+00  0.00000000000E+00  0.41035458670E+03  0.41035458670E+03  0.00000000000E+00 0.  1.
         21   -1    0    0  501  502 -0.00000000000E+00 -0.00000000000E+00 -0.10806242889E+03  0.10806242889E+03  0.00000000000E+00 0.  1.
         25    1    1    2    0    0 -0.55256530127E+02 -0.15991369977E+03  0.13926028024E+03  0.25227782532E+03  0.12500000000E+03 0.  0.
         25    1    1    2    0    0  0.55256530127E+02  0.15991369977E+03  0.16303187757E+03  0.26613919027E+03  0.12500000000E+03 0.  0.
</event>
<event>
 4    0  0.2134002E-002  0.3882035E+03  0.7546771E-02  0.1047943E+00
         21   -1    0    0  502  501  0.00000000000E+00  0.00000000000E+00  0.10036351775E+04  0.10036351775E+04  0.00000000000E+00 0. -1.
         21   -1    0    0  501  502 -0.00000000000E+00 -0.00000000000E+00 -0.15015611925E+03  0.15015611925E+03  0.00000000000E+00 0. -1.
         25    1    1    2    0    0  0.22186528448E+03 -0.81023581497E+02  0.84518740729E+03  0.88642866529E+03  0.12500000000E+03 0.  0.
         25    1    1    2    0    0 -0.22186528448E+03  0.81023581497E+02  0.82916509490E+01  0.26736263144E+03  0.12500000000E+03 0.  0.
</event>
<event>
 4    0  0.2134002E-002  0.2253650E+03  0.7546771E-02  0.1129945E+00
         21   -1    0    0  502  501  0.00000000000E+00  0.00000000000E+00  0.58763659378E+02  0.58763659378E+02  0.00000000000E+00 0. -1.
         21   -1    0    0  501  502 -0.00000000000E+00 -0.00000000000E+00 -0.86429954878E+03  0.86429954878E+03  0.00000000000E+00 0. -1.
         25    1    1    2    0    0 -0.15494171861E+03  0.10328797737E+03 -0.35747852257E+03  0.42200857401E+03  0.12500000000E+03 0.  0.
         25    1    1    2    0    0  0.15494171861E+03 -0.10328797737E+03 -0.44805736683E+03  0.50105463415E+03  0.12500000000E+03 0.  0.
</event>
<event>
 4    0  0.2134002E-002  0.1729420E+03  0.7546771E-02  0.1174814E+00
         21   -1    0    0  502  501  0.00000000000E+00  0.00000000000E+00  0.30284453907E+03  0.30284453907E+03  0.00000000000E+00 0. -1.
         21   -1    0    0  501  502 -0.00000000000E+00 -0.00000000000E+00 -0.98759989643E+02  0.98759989643E+02  0.00000000000E+00 0. -1.
         25    1    1    2    0    0 -0.26189051050E+02 -0.83799616925E+02  0.19619623553E+03  0.24864875835E+03  0.12500000000E+03 0.  0.
         25    1    1    2    0    0  0.26189051050E+02  0.83799616925E+02  0.78883138965E+01  0.15295577036E+03  0.12500000000E+03 0.  0.
</event>
<event>
 4    0  0.2134002E-002  0.3564511E+03  0.7546771E-02  0.1059998E+00
         21   -1    0    0  502  501  0.00000000000E+00  0.00000000000E+00  0.20106065878E+03  0.20106065878E+03  0.00000000000E+00 0. -1.
         21   -1    0    0  501  502 -0.00000000000E+00 -0.00000000000E+00 -0.63193570115E+03  0.63193570115E+03  0.00000000000E+00 0. -1.
         25    1    1    2    0    0 -0.15333160352E+03 -0.65141866370E+02 -0.55343985931E+03  0.59133300370E+03  0.12500000000E+03 0.  0.
         25    1    1    2    0    0  0.15333160352E+03  0.65141866370E+02  0.12256481694E+03  0.24166335623E+03  0.12500000000E+03 0.  0.
</event>
<event>
 4    0  0.2134002E-002  0.3612060E+03  0.7546771E-02  0.1058107E+00
         21   -1    0    0  502  501  0.00000000000E+00  0.00000000000E+00  0.24583281655E+03  0.24583281655E+03  0.00000000000E+00 0. -1.
         21   -1    0    0  501  502 -0.00000000000E+00 -0.00000000000E+00 -0.53072570549E+03  0.53072570549E+03  0.00000000000E+00 0. -1.
         25    1    1    2    0    0  0.16894716988E+03 -0.27687905703E+03 -0.24798703856E+03  0.42699851256E+03  0.12500000000E+03 0.  0.
         25    1    1    2    0    0 -0.16894716988E+03  0.27687905703E+03 -0.36905850377E+02  0.34956000948E+03  0.12500000000E+03 0.  0.
</event>
<event>
 4    0  0.2134002E-002  0.2005939E+03  0.7546771E-02  0.1149239E+00
         21   -1    0    0  502  501  0.00000000000E+00  0.00000000000E+00  0.79985288596E+02  0.79985288596E+02  0.00000000000E+00 0.  1.
         21   -1    0    0  501  502 -0.00000000000E+00 -0.00000000000E+00 -0.50306636959E+03  0.50306636959E+03  0.00000000000E+00 0.  1.
         25    1    1    2    0    0  0.58199730939E+02  0.80977285410E+02 -0.38755583415E+03  0.41924820097E+03  0.12500000000E+03 0.  0.
         25    1    1    2    0    0 -0.58199730939E+02 -0.80977285410E+02 -0.35525246849E+02  0.16380345722E+03  0.12500000000E+03 0.  0.
</event>
<event>
 4    0  0.2134002E-002  0.1794426E+03  0.7546771E-02  0.1168344E+00
         21   -1    0    0  502  501  0.00000000000E+00  0.00000000000E+00  0.12988816354E+02  0.12988816354E+02  0.00000000000E+00 0. -1.
         21   -1    0    0  501  502 -0.00000000000E+00 -0.00000000000E+00 -0.24790283772E+04  0.24790283772E+04  0.00000000000E+00 0. -1.
         25    1    1    2    0    0  0.27446191419E+02  0.27916897265E+02 -0.38139505650E+03  0.40326149792E+03  0.12500000000E+03 0.  0.
         25    1    1    2    0    0 -0.27446191419E+02 -0.27916897265E+02 -0.20846445044E+04  0.20887556957E+04  0.12500000000E+03 0.  0.
</event>
<event>
 4    0  0.2134002E-002  0.1893225E+03  0.7546771E-02  0.1159074E+00
         21   -1    0    0  502  501  0.00000000000E+00  0.00000000000E+00  0.52260617396E+02  0.52260617396E+02  0.00000000000E+00 0.  1.
         21   -1    0    0  501  502 -0.00000000000E+00 -0.00000000000E+00 -0.68585115126E+03  0.68585115126E+03  0.00000000000E+00 0.  1.
         25    1    1    2    0    0  0.86892395357E+02  0.59721558273E+02 -0.13082833711E+03  0.20942303284E+03  0.12500000000E+03 0.  0.
         25    1    1    2    0    0 -0.86892395357E+02 -0.59721558273E+02 -0.50276219675E+03  0.52868873581E+03  0.12500000000E+03 0.  0.
</event>
<event>
 4    0  0.2134002E-002  0.2550564E+03  0.7546771E-02  0.1110150E+00
         21   -1    0    0  502  501  0.00000000000E+00  0.00000000000E+00  0.20063850514E+03  0.20063850514E+03  0.00000000000E+00 0.  1.
         21   -1    0    0  501  502 -0.00000000000E+00 -0.00000000000E+00 -0.32423371165E+03  0.32423371165E+03  0.00000000000E+00 0.  1.
         25    1    1    2    0    0  0.59136416995E+02 -0.15798301563E+03 -0.21080843198E+03  0.29752469483E+03  0.12500000000E+03 0.  0.
         25    1    1    2    0    0 -0.59136416995E+02  0.15798301563E+03  0.87213225474E+02  0.22734752196E+03  0.12500000000E+03 0.  0.
</event>
<event>
 4    0  0.2134002E-002  0.1687891E+03  0.7546771E-02  0.1179117E+00
         21   -1    0    0  502  501  0.00000000000E+00  0.00000000000E+00  0.24753990842E+03  0.24753990842E+03  0.00000000000E+00 0.  1.
         21   -1    0    0  501  502 -0.00000000000E+00 -0.00000000000E+00 -0.11509158632E+03  0.11509158632E+03  0.00000000000E+00 0.  1.
         25    1    1    2    0    0 -0.55455595211E+02  0.66936327800E+02 -0.12045974147E+02  0.15272819161E+03  0.12500000000E+03 0.  0.
         25    1    1    2    0    0  0.55455595211E+02 -0.66936327800E+02  0.14449429624E+03  0.20990330313E+03  0.12500000000E+03 0.  0.
</event>
<event>
 4    0  0.2134002E-002  0.2368446E+03  0.7546771E-02  0.1121913E+00
         21   -1    0    0  502  501  0.00000000000E+00  0.00000000000E+00  0.40356456356E+03  0.40356456356E+03  0.00000000000E+00 0.  1.
         21   -1    0    0  501  502 -0.00000000000E+00 -0.00000000000E+00 -0.13899974457E+03  0.13899974457E+03  0.00000000000E+00 0.  1.
         25    1    1    2    0    0  0.13114097385E+03 -0.11934208440E+03  0.23439842346E+02  0.21820841950E+03  0.12500000000E+03 0.  0.
         25    1    1    2    0    0 -0.13114097385E+03  0.11934208440E+03  0.24112497664E+03  0.32435588864E+03  0.12500000000E+03 0.  0.
</event>
<event>
 4    0  0.2134002E-002  0.3669042E+03  0.7546771E-02  0.1055883E+00
         21   -1    0    0  502  501  0.00000000000E+00  0.00000000000E+00  0.48550746162E+03  0.48550746162E+03  0.00000000000E+00 0. -1.
         21   -1    0    0  501  502 -0.00000000000E+00 -0.00000000000E+00 -0.27727415869E+03  0.27727415869E+03  0.00000000000E+00 0. -1.
         25    1    1    2    0    0  0.16403664168E+03 -0.13227674526E+03 -0.17977561004E+03  0.30389048540E+03  0.12500000000E+03 0.  0.
         25    1    1    2    0    0 -0.16403664168E+03  0.13227674526E+03  0.38800891297E+03  0.45889113490E+03  0.12500000000E+03 0.  0.
</event>
<event>
 4    0  0.2134002E-002  0.2521796E+03  0.7546771E-02  0.1111935E+00
         21   -1    0    0  502  501  0.00000000000E+00  0.00000000000E+00  0.14953782868E+03  0.14953782868E+03  0.00000000000E+00 0.  1.
         21   -1    0    0  501  502 -0.00000000000E+00 -0.00000000000E+00 -0.42527402234E+03  0.42527402234E+03  0.00000000000E+00 0.  1.
         25    1    1    2    0    0  0.42650808191E+02  0.18918475914E+03 -0.25386783949E+03  0.34305078991E+03  0.12500000000E+03 0.  0.
         25    1    1    2    0    0 -0.42650808191E+02 -0.18918475914E+03 -0.21868354163E+02  0.23176106111E+03  0.12500000000E+03 0.  0.
</event>
<event>
 4    0  0.2134002E-002  0.2305434E+03  0.7546771E-02  0.1126258E+00
         21   -1    0    0  502  501  0.00000000000E+00  0.00000000000E+00  0.23322794580E+03  0.23322794580E+03  0.00000000000E+00 0. -1.
         21   -1    0    0  501  502 -0.00000000000E+00 -0.00000000000E+00 -0.22788980509E+03  0.22788980509E+03  0.00000000000E+00 0. -1.
         25    1    1    2    0    0  0.18257298477E+03  0.41644604861E+02 -0.46913514248E+02  0.22998488146E+03  0.12500000000E+03 0.  0.
         25    1    1    2    0    0 -0.18257298477E+03 -0.41644604861E+02  0.52251654960E+02  0.23113286942E+03  0.12500000000E+03 0.  0.
</event>
<event>
 4    0  0.2134002E-002  0.3168948E+03  0.7546771E-02  0.1077087E+00
         21   -1    0    0  502  501  0.00000000000E+00  0.00000000000E+00  0.74787174524E+03  0.74787174524E+03  0.00000000000E+00 0.  1.
         21   -1    0    0  501  502 -0.00000000000E+00 -0.00000000000E+00 -0.13427743019E+03  0.13427743019E+03  0.00000000000E+00 0.  1.
         25    1    1    2    0    0 -0.21135859040E+03  0.18377485555E+03  0.19586944314E+03  0.36391687241E+03  0.12500000000E+03 0.  0.
         25    1    1    2    0    0  0.21135859040E+03 -0.18377485555E+03  0.41772487192E+03  0.51823230302E+03  0.12500000000E+03 0.  0.
</event>
<event>
 4    0  0.2134002E-002  0.1946694E+03  0.7546771E-02  0.1154316E+00
         21   -1    0    0  502  501  0.00000000000E+00  0.00000000000E+00  0.78795274724E+02  0.78795274724E+02  0.00000000000E+00 0.  1.
         21   -1    0    0  501  502 -0.00000000000E+00 -0.00000000000E+00 -0.48094457053E+03  0.48094457053E+03  0.00000000000E+00 0.  1.
         25    1    1    2    0    0 -0.10257137771E+02  0.22889895586E+02 -0.41257318009E+03  0.43182263156E+03  0.12500000000E+03 0.  0.
         25    1    1    2    0    0  0.10257137771E+02 -0.22889895586E+02  0.10423884288E+02  0.12791721369E+03  0.12500000000E+03 0.  0.
</event>
<event>
 4    0  0.2134002E-002  0.3658967E+03  0.7546771E-02  0.1056273E+00
         21   -1    0    0  502  501  0.00000000000E+00  0.00000000000E+00  0.10779985927E+04  0.10779985927E+04  0.00000000000E+00 0.  1.
         21   -1    0    0  501  502 -0.00000000000E+00 -0.00000000000E+00 -0.12419345952E+03  0.12419345952E+03  0.00000000000E+00 0.  1.
         25    1    1    2    0    0  0.33668774538E+03  0.69424713426E+02  0.46249210069E+03  0.58966293077E+03  0.12500000000E+03 0.  0.
         25    1    1    2    0    0 -0.33668774538E+03 -0.69424713426E+02  0.49131303245E+03  0.61252912141E+03  0.12500000000E+03 0.  0.
</event>
<event>
 4    0  0.2134002E-002  0.2801917E+03  0.7546771E-02  0.1095584E+00
         21   -1    0    0  502  501  0.00000000000E+00  0.00000000000E+00  0.21846482017E+03  0.21846482017E+03  0.00000000000E+00 0.  1.
         21   -1    0    0  501  502 -0.00000000000E+00 -0.00000000000E+00 -0.35935928200E+03  0.35935928200E+03  0.00000000000E+00 0. -1.
         25    1    1    2    0    0  0.15072401351E+01  0.24761671221E+03 -0.11125226015E+03  0.29886179637E+03  0.12500000000E+03 0.  0.
         25    1    1    2    0    0 -0.15072401351E+01 -0.24761671221E+03 -0.29642201675E+02  0.27896230580E+03  0.12500000000E+03 0.  0.
</event>
<event>
 4    0  0.2134002E-002  0.2554241E+03  0.7546771E-02  0.1109924E+00
         21   -1    0    0  502  501  0.00000000000E+00  0.00000000000E+00  0.94264069395E+02  0.94264069395E+02  0.00000000000E+00 0.  1.
         21   -1    0    0  501  502 -0.00000000000E+00 -0.00000000000E+00 -0.69211405004E+03  0.69211405004E+03  0.00000000000E+00 0.  1.
         25    1    1    2    0    0 -0.19072507489E+03 -0.97257538058E+02 -0.20426509135E+03  0.32122314743E+03  0.12500000000E+03 0.  0.
         25    1    1    2    0    0  0.19072507489E+03  0.97257538058E+02 -0.39358488929E+03  0.46515497200E+03  0.12500000000E+03 0.  0.
</event>
<event>
 4    0  0.2134002E-002  0.2550856E+03  0.7546771E-02  0.1110132E+00
         21   -1    0    0  502  501  0.00000000000E+00  0.00000000000E+00  0.74623939568E+02  0.74623939568E+02  0.00000000000E+00 0. -1.
         21   -1    0    0  501  502 -0.00000000000E+00 -0.00000000000E+00 -0.87195414916E+03  0.87195414916E+03  0.00000000000E+00 0. -1.
         25    1    1    2    0    0  0.17707298404E+03 -0.71074876027E+02 -0.61051696062E+03  0.65173801399E+03  0.12500000000E+03 0.  0.
         25    1    1    2    0    0 -0.17707298404E+03  0.71074876027E+02 -0.18681324897E+03  0.29484007473E+03  0.12500000000E+03 0.  0.
</event>
<event>
 4    0  0.2134002E-002  0.2092439E+03  0.7546771E-02  0.1142166E+00
         21   -1    0    0  502  501  0.00000000000E+00  0.00000000000E+00  0.25271580410E+04  0.25271580410E+04  0.00000000000E+00 0. -1.
         21   -1    0    0  501  502 -0.00000000000E+00 -0.00000000000E+00 -0.17324998248E+02  0.17324998248E+02  0.00000000000E+00 0. -1.
         25    1    1    2    0    0 -0.44152533185E+02  0.13352127997E+03  0.18115317750E+04  0.18212769560E+04  0.12500000000E+03 0.  0.
         25    1    1    2    0    0  0.44152533185E+02 -0.13352127997E+03  0.69830126769E+03  0.72320608325E+03  0.12500000000E+03 0.  0.
</event>
<event>
 4    0  0.2134002E-002  0.1799522E+03  0.7546771E-02  0.1167849E+00
         21   -1    0    0  502  501  0.00000000000E+00  0.00000000000E+00  0.10804935977E+02  0.10804935977E+02  0.00000000000E+00 0. -1.
         21   -1    0    0  501  502 -0.00000000000E+00 -0.00000000000E+00 -0.29970364033E+04  0.29970364033E+04  0.00000000000E+00 0. -1.
         25    1    1    2    0    0  0.97320068056E+02  0.73403547732E+02 -0.11289708067E+04  0.11423919463E+04  0.12500000000E+03 0.  0.
         25    1    1    2    0    0 -0.97320068056E+02 -0.73403547732E+02 -0.18572606606E+04  0.18654493930E+04  0.12500000000E+03 0.  0.
</event>
<event>
 4    0  0.2134002E-002  0.2151259E+03  0.7546771E-02  0.1137570E+00
         21   -1    0    0  502  501  0.00000000000E+00  0.00000000000E+00  0.17031772845E+03  0.17031772845E+03  0.00000000000E+00 0. -1.
         21   -1    0    0  501  502 -0.00000000000E+00 -0.00000000000E+00 -0.27172247596E+03  0.27172247596E+03  0.00000000000E+00 0. -1.
         25    1    1    2    0    0 -0.95593861319E+01  0.70561438272E+02  0.11362959957E+03  0.18332207814E+03  0.12500000000E+03 0.  0.
         25    1    1    2    0    0  0.95593861319E+01 -0.70561438272E+02 -0.21503434708E+03  0.25871812627E+03  0.12500000000E+03 0.  0.
</event>
<event>
 4    0  0.2134002E-002  0.2318716E+03  0.7546771E-02  0.1125329E+00
         21   -1    0    0  502  501  0.00000000000E+00  0.00000000000E+00  0.22285859772E+03  0.22285859772E+03  0.00000000000E+00 0.  1.
         21   -1    0    0  501  502 -0.00000000000E+00 -0.00000000000E+00 -0.24124912317E+03  0.24124912317E+03  0.00000000000E+00 0.  1.
         25    1    1    2    0    0 -0.15977237588E+03 -0.75456376074E+02  0.74048025388E+02  0.22875529906E+03  0.12500000000E+03 0.  0.
         25    1    1    2    0    0  0.15977237588E+03  0.75456376074E+02 -0.92438550838E+02  0.23535242184E+03  0.12500000000E+03 0.  0.
</event>
<event>
 4    0  0.2134002E-002  0.2488338E+03  0.7546771E-02  0.1114044E+00
         21   -1    0    0  502  501  0.00000000000E+00  0.00000000000E+00  0.11775909479E+04  0.11775909479E+04  0.00000000000E+00 0. -1.
         21   -1    0    0  501  502 -0.00000000000E+00 -0.00000000000E+00 -0.52580466037E+02  0.52580466037E+02  0.00000000000E+00 0. -1.
         25    1    1    2    0    0 -0.11492176065E+03  0.17577305442E+03  0.67818529186E+03  0.72087687424E+03  0.12500000000E+03 0.  0.
         25    1    1    2    0    0  0.11492176065E+03 -0.17577305442E+03  0.44682518997E+03  0.50929453966E+03  0.12500000000E+03 0.  0.
</event>
<event>
 4    0  0.2134002E-002  0.1715476E+03  0.7546771E-02  0.1176243E+00
         21   -1    0    0  502  501  0.00000000000E+00  0.00000000000E+00  0.48931917863E+03  0.48931917863E+03  0.00000000000E+00 0.  1.
         21   -1    0    0  501  502 -0.00000000000E+00 -0.00000000000E+00 -0.60141918318E+02  0.60141918318E+02  0.00000000000E+00 0.  1.
         25    1    1    2    0    0  0.39720760905E+02 -0.49910275455E+02  0.56578056238E+02  0.15131044541E+03  0.12500000000E+03 0.  0.
         25    1    1    2    0    0 -0.39720760905E+02  0.49910275455E+02  0.37259920407E+03  0.39815065153E+03  0.12500000000E+03 0.  0.
</event>
<event>
 4    0  0.2134002E-002  0.2100633E+03  0.7546771E-02  0.1141516E+00
         21   -1    0    0  502  501  0.00000000000E+00  0.00000000000E+00  0.32814284092E+03  0.32814284092E+03  0.00000000000E+00 0.  1.
         21   -1    0    0  501  502 -0.00000000000E+00 -0.00000000000E+00 -0.13447374410E+03  0.13447374410E+03  0.00000000000E+00 0.  1.
         25    1    1    2    0    0 -0.93769329601E+02  0.13280863641E+03  0.14694259583E+03  0.25228544855E+03  0.12500000000E+03 0.  0.
         25    1    1    2    0    0  0.93769329601E+02 -0.13280863641E+03  0.46726500992E+02  0.21033113648E+03  0.12500000000E+03 0.  0.
</event>
<event>
 4    0  0.2134002E-002  0.1816963E+03  0.7546771E-02  0.1166171E+00
         21   -1    0    0  502  501  0.00000000000E+00  0.00000000000E+00  0.41742443752E+02  0.41742443752E+02  0.00000000000E+00 0. -1.
         21   -1    0    0  501  502 -0.00000000000E+00 -0.00000000000E+00 -0.79088673600E+03  0.79088673600E+03  0.00000000000E+00 0. -1.
         25    1    1    2    0    0  0.12102965980E+03  0.50651949862E+02 -0.34428350334E+03  0.38906288598E+03  0.12500000000E+03 0.  0.
         25    1    1    2    0    0 -0.12102965980E+03 -0.50651949862E+02 -0.40486078891E+03  0.44356629378E+03  0.12500000000E+03 0.  0.
</event>
<event>
 4    0  0.2134002E-002  0.5662692E+03  0.7546771E-02  0.9977968E-01
         21   -1    0    0  502  501  0.00000000000E+00  0.00000000000E+00  0.50126049730E+03  0.50126049730E+03  0.00000000000E+00 0. -1.
         21   -1    0    0  501  502 -0.00000000000E+00 -0.00000000000E+00 -0.63970895261E+03  0.63970895261E+03  0.00000000000E+00 0. -1.
         25    1    1    2    0    0  0.47108077316E+03 -0.19624695570E+03 -0.28199748873E+03  0.59630323336E+03  0.12500000000E+03 0.  0.
         25    1    1    2    0    0 -0.47108077316E+03  0.19624695570E+03  0.14354903343E+03  0.54466621656E+03  0.12500000000E+03 0.  0.
</event>
<event>
 4    0  0.2134002E-002  0.1890273E+03  0.7546771E-02  0.1159342E+00
         21   -1    0    0  502  501  0.00000000000E+00  0.00000000000E+00  0.34018274763E+02  0.34018274763E+02  0.00000000000E+00 0.  1.
         21   -1    0    0  501  502 -0.00000000000E+00 -0.00000000000E+00 -0.10503562004E+04  0.10503562004E+04  0.00000000000E+00 0.  1.
         25    1    1    2    0    0  0.30516294704E+02 -0.16063939609E+02 -0.11366523657E+03  0.17243572832E+03  0.12500000000E+03 0.  0.
         25    1    1    2    0    0 -0.30516294704E+02  0.16063939609E+02 -0.90267268904E+03  0.91193874681E+03  0.12500000000E+03 0.  0.
</event>
<event>
 4    0  0.2134002E-002  0.2580579E+03  0.7546771E-02  0.1108316E+00
         21   -1    0    0  502  501  0.00000000000E+00  0.00000000000E+00  0.37532758867E+03  0.37532758867E+03  0.00000000000E+00 0. -1.
         21   -1    0    0  501  502 -0.00000000000E+00 -0.00000000000E+00 -0.17742866283E+03  0.17742866283E+03  0.00000000000E+00 0. -1.
         25    1    1    2    0    0 -0.13533252838E+03  0.15407428878E+03 -0.21734239936E+01  0.24017390257E+03  0.12500000000E+03 0.  0.
         25    1    1    2    0    0  0.13533252838E+03 -0.15407428878E+03  0.20007234983E+03  0.31258234894E+03  0.12500000000E+03 0.  0.
</event>
<event>
 4    0  0.2134002E-002  0.1853552E+03  0.7546771E-02  0.1162719E+00
         21   -1    0    0  502  501  0.00000000000E+00  0.00000000000E+00  0.14417663025E+03  0.14417663025E+03  0.00000000000E+00 0. -1.
         21   -1    0    0  501  502 -0.00000000000E+00 -0.00000000000E+00 -0.23829474316E+03  0.23829474316E+03  0.00000000000E+00 0. -1.
         25    1    1    2    0    0  0.11690412459E+03 -0.27948637673E+01  0.26310700791E+02  0.17318094175E+03  0.12500000000E+03 0.  0.
         25    1    1    2    0    0 -0.11690412459E+03  0.27948637673E+01 -0.12042881370E+03  0.20929043165E+03  0.12500000000E+03 0.  0.
</event>
<event>
 4    0  0.2134002E-002  0.1961655E+03  0.7546771E-02  0.1153015E+00
         21   -1    0    0  502  501  0.00000000000E+00  0.00000000000E+00  0.42282348140E+03  0.42282348140E+03  0.00000000000E+00 0. -1.
         21   -1    0    0  501  502 -0.00000000000E+00 -0.00000000000E+00 -0.91009415818E+02  0.91009415818E+02  0.00000000000E+00 0. -1.
         25    1    1    2    0    0  0.17746197235E+00  0.12517439859E+03  0.27693969922E+03  0.32861719152E+03  0.12500000000E+03 0.  0.
         25    1    1    2    0    0 -0.17746197235E+00 -0.12517439859E+03  0.54874366361E+02  0.18521570570E+03  0.12500000000E+03 0.  0.
</event>
<event>
 4    0  0.2134002E-002  0.2845487E+03  0.7546771E-02  0.1093230E+00
         21   -1    0    0  502  501  0.00000000000E+00  0.00000000000E+00  0.35181942098E+03  0.35181942098E+03  0.00000000000E+00 0. -1.
         21   -1    0    0  501  502 -0.00000000000E+00 -0.00000000000E+00 -0.23014071898E+03  0.23014071898E+03  0.00000000000E+00 0. -1.
         25    1    1    2    0    0 -0.25268711191E+03  0.34929452158E+02  0.77708605464E+02  0.29450716547E+03  0.12500000000E+03 0.  0.
         25    1    1    2    0    0  0.25268711191E+03 -0.34929452158E+02  0.43970096536E+02  0.28745297449E+03  0.12500000000E+03 0.  0.
</event>
<event>
 4    0  0.2134002E-002  0.2013351E+03  0.7546771E-02  0.1148617E+00
         21   -1    0    0  502  501  0.00000000000E+00  0.00000000000E+00  0.67894553716E+02  0.67894553716E+02  0.00000000000E+00 0. -1.
         21   -1    0    0  501  502 -0.00000000000E+00 -0.00000000000E+00 -0.59704061081E+03  0.59704061081E+03  0.00000000000E+00 0. -1.
         25    1    1    2    0    0 -0.15190037435E+03 -0.41455541754E+02 -0.24659566507E+03  0.31816144911E+03  0.12500000000E+03 0.  0.
         25    1    1    2    0    0  0.15190037435E+03  0.41455541754E+02 -0.28255039202E+03  0.34677371541E+03  0.12500000000E+03 0.  0.
</event>
<event>
 4    0  0.2134002E-002  0.2591010E+03  0.7546771E-02  0.1107685E+00
         21   -1    0    0  502  501  0.00000000000E+00  0.00000000000E+00  0.17977505703E+03  0.17977505703E+03  0.00000000000E+00 0.  1.
         21   -1    0    0  501  502 -0.00000000000E+00 -0.00000000000E+00 -0.37342972089E+03  0.37342972089E+03  0.00000000000E+00 0.  1.
         25    1    1    2    0    0 -0.84071046249E+02 -0.94426097071E+02  0.10438214768E+03  0.20616707152E+03  0.12500000000E+03 0.  0.
         25    1    1    2    0    0  0.84071046249E+02  0.94426097071E+02 -0.29803681154E+03  0.34703770639E+03  0.12500000000E+03 0.  0.
</event>
<event>
 4    0  0.2134002E-002  0.2928209E+03  0.7546771E-02  0.1088885E+00
         21   -1    0    0  502  501  0.00000000000E+00  0.00000000000E+00  0.48286863035E+03  0.48286863035E+03  0.00000000000E+00 0. -1.
         21   -1    0    0  501  502 -0.00000000000E+00 -0.00000000000E+00 -0.17757222333E+03  0.17757222333E+03  0.00000000000E+00 0. -1.
         25    1    1    2    0    0  0.23410573514E+03 -0.57554073321E+02  0.27618953076E+03  0.38732883120E+03  0.12500000000E+03 0.  0.
         25    1    1    2    0    0 -0.23410573514E+03  0.57554073321E+02  0.29106876265E+02  0.27311202249E+03  0.12500000000E+03 0.  0.
</event>
<event>
 4    0  0.2134002E-002  0.2295313E+03  0.7546771E-02  0.1126970E+00
         21   -1    0    0  502  501  0.00000000000E+00  0.00000000000E+00  0.14220299384E+03  0.14220299384E+03  0.00000000000E+00 0.  1.
         21   -1    0    0  501  502 -0.00000000000E+00 -0.00000000000E+00 -0.37048865027E+03  0.37048865027E+03  0.00000000000E+00 0.  1.
         25    1    1    2    0    0  0.18927751545E+03  0.26077145774E+02 -0.87865427261E+02  0.24464531202E+03  0.12500000000E+03 0.  0.
         25    1    1    2    0    0 -0.18927751545E+03 -0.26077145774E+02 -0.14042022916E+03  0.26804633209E+03  0.12500000000E+03 0.  0.
</event>
<event>
 4    0  0.2134002E-002  0.1878644E+03  0.7546771E-02  0.1160402E+00
         21   -1    0    0  502  501  0.00000000000E+00  0.00000000000E+00  0.18319081455E+04  0.18319081455E+04  0.00000000000E+00 0.  1.
         21   -1    0    0  501  502 -0.00000000000E+00 -0.00000000000E+00 -0.19265730337E+02  0.19265730337E+02  0.00000000000E+00 0.  1.
         25    1    1    2    0    0  0.11477661121E+03 -0.79331556303E+02  0.83649102558E+03  0.85721024386E+03  0.12500000000E+03 0.  0.
         25    1    1    2    0    0 -0.11477661121E+03  0.79331556303E+02  0.97615138957E+03  0.99396363196E+03  0.12500000000E+03 0.  0.
</event>
<event>
 4    0  0.2134002E-002  0.1718265E+03  0.7546771E-02  0.1175956E+00
         21   -1    0    0  502  501  0.00000000000E+00  0.00000000000E+00  0.30507421742E+03  0.30507421742E+03  0.00000000000E+00 0. -1.
         21   -1    0    0  501  502 -0.00000000000E+00 -0.00000000000E+00 -0.96777611435E+02  0.96777611435E+02  0.00000000000E+00 0. -1.
         25    1    1    2    0    0  0.34660103917E+02 -0.11145422998E+03  0.12357456262E+03  0.21099535708E+03  0.12500000000E+03 0.  0.
         25    1    1    2    0    0 -0.34660103917E+02  0.11145422998E+03  0.84722043367E+02  0.19085647177E+03  0.12500000000E+03 0.  0.
</event>
<event>
 4    0  0.2134002E-002  0.1730798E+03  0.7546771E-02  0.1174674E+00
         21   -1    0    0  502  501  0.00000000000E+00  0.00000000000E+00  0.23178284511E+02  0.23178284511E+02  0.00000000000E+00 0. -1.
         21   -1    0    0  501  502 -0.00000000000E+00 -0.00000000000E+00 -0.12924439424E+04  0.12924439424E+04  0.00000000000E+00 0. -1.
         25    1    1    2    0    0  0.58274414886E+02 -0.87507673230E+02 -0.85223739091E+03  0.86774827615E+03  0.12500000000E+03 0.  0.
         25    1    1    2    0    0 -0.58274414886E+02  0.87507673230E+02 -0.41702826695E+03  0.44787395073E+03  0.12500000000E+03 0.  0.
</event>
<event>
 4    0  0.2134002E-002  0.3395900E+03  0.7546771E-02  0.1066971E+00
         21   -1    0    0  502  501  0.00000000000E+00  0.00000000000E+00  0.12689588509E+03  0.12689588509E+03  0.00000000000E+00 0. -1.
         21   -1    0    0  501  502 -0.00000000000E+00 -0.00000000000E+00 -0.90878719202E+03  0.90878719202E+03  0.00000000000E+00 0. -1.
         25    1    1    2    0    0  0.18581995284E+02 -0.62688527765E+02  0.80101607107E+02  0.16222333224E+03  0.12500000000E+03 0.  0.
         25    1    1    2    0    0 -0.18581995284E+02  0.62688527765E+02 -0.86199291404E+03  0.87345974488E+03  0.12500000000E+03 0.  0.
</event>
<event>
 4    0  0.2134002E-002  0.1757922E+03  0.7546771E-02  0.1171939E+00
         21   -1    0    0  502  501  0.00000000000E+00  0.00000000000E+00  0.71090854308E+03  0.71090854308E+03  0.00000000000E+00 0.  1.
         21   -1    0    0  501  502 -0.00000000000E+00 -0.00000000000E+00 -0.43469567580E+02  0.43469567580E+02  0.00000000000E+00 0.  1.
         25    1    1    2    0    0  0.98341267826E+02  0.18818142581E+02  0.17821128048E+03  0.23960256246E+03  0.12500000000E+03 0.  0.
         25    1    1    2    0    0 -0.98341267826E+02 -0.18818142581E+02  0.48922769503E+03  0.51477554821E+03  0.12500000000E+03 0.  0.
</event>
<event>
 4    0  0.2134002E-002  0.2138898E+03  0.7546771E-02  0.1138522E+00
         21   -1    0    0  502  501  0.00000000000E+00  0.00000000000E+00  0.10763861856E+03  0.10763861856E+03  0.00000000000E+00 0. -1.
         21   -1    0    0  501  502 -0.00000000000E+00 -0.00000000000E+00 -0.42502276604E+03  0.42502276604E+03  0.00000000000E+00 0. -1.
         25    1    1    2    0    0  0.78008722092E+02  0.72694095472E+02 -0.32921345558E+03  0.36793517306E+03  0.12500000000E+03 0.  0.
         25    1    1    2    0    0 -0.78008722092E+02 -0.72694095472E+02  0.11829308108E+02  0.16472621154E+03  0.12500000000E+03 0.  0.
</event>
<event>
 4    0  0.2134002E-002  0.2143285E+03  0.7546771E-02  0.1138183E+00
         21   -1    0    0  502  501  0.00000000000E+00  0.00000000000E+00  0.33790559245E+03  0.33790559245E+03  0.00000000000E+00 0.  1.
         21   -1    0    0  501  502 -0.00000000000E+00 -0.00000000000E+00 -0.13594540976E+03  0.13594540976E+03  0.00000000000E+00 0.  1.
         25    1    1    2    0    0  0.15186410037E+02  0.12862430652E+03  0.22959492268E+03  0.29174246828E+03  0.12500000000E+03 0.  0.
         25    1    1    2    0    0 -0.15186410037E+02 -0.12862430652E+03 -0.27634739988E+02  0.18210853393E+03  0.12500000000E+03 0.  0.
</event>
<event>
 4    0  0.2134002E-002  0.2112389E+03  0.7546771E-02  0.1140589E+00
         21   -1    0    0  502  501  0.00000000000E+00  0.00000000000E+00  0.10702355638E+03  0.10702355638E+03  0.00000000000E+00 0.  1.
         21   -1    0    0  501  502 -0.00000000000E+00 -0.00000000000E+00 -0.41693491925E+03  0.41693491925E+03  0.00000000000E+00 0.  1.
         25    1    1    2    0    0 -0.43785195668E+01 -0.14357283400E+03 -0.41529382062E+02  0.19488976287E+03  0.12500000000E+03 0.  0.
         25    1    1    2    0    0  0.43785195668E+01  0.14357283400E+03 -0.26838198081E+03  0.32906871276E+03  0.12500000000E+03 0.  0.
</event>
<event>
 4    0  0.2134002E-002  0.1650518E+03  0.7546771E-02  0.1183109E+00
         21   -1    0    0  502  501  0.00000000000E+00  0.00000000000E+00  0.16184749141E+03  0.16184749141E+03  0.00000000000E+00 0. -1.
         21   -1    0    0  501  502 -0.00000000000E+00 -0.00000000000E+00 -0.16831949157E+03  0.16831949157E+03  0.00000000000E+00 0. -1.
         25    1    1    2    0    0  0.34936445950E+02 -0.60571221199E+02  0.78802073059E+02  0.16347536454E+03  0.12500000000E+03 0.  0.
         25    1    1    2    0    0 -0.34936445950E+02  0.60571221199E+02 -0.85274073226E+02  0.16669161844E+03  0.12500000000E+03 0.  0.
</event>
<event>
 4    0  0.2134002E-002  0.3063836E+03  0.7546771E-02  0.1082092E+00
         21   -1    0    0  502  501  0.00000000000E+00  0.00000000000E+00  0.86019056602E+03  0.86019056602E+03  0.00000000000E+00 0.  1.
         21   -1    0    0  501  502 -0.00000000000E+00 -0.00000000000E+00 -0.10912806993E+03  0.10912806993E+03  0.00000000000E+00 0.  1.
         25    1    1    2    0    0 -0.23082710613E+03  0.94490178671E+02  0.17521125822E+03  0.32944427722E+03  0.12500000000E+03 0.  0.
         25    1    1    2    0    0  0.23082710613E+03 -0.94490178671E+02  0.57585123788E+03  0.63987435873E+03  0.12500000000E+03 0.  0.
</event>
<event>
 4    0  0.2134002E-002  0.2532899E+03  0.7546771E-02  0.1111243E+00
         21   -1    0    0  502  501  0.00000000000E+00  0.00000000000E+00  0.50320140490E+03  0.50320140490E+03  0.00000000000E+00 0. -1.
         21   -1    0    0  501  502 -0.00000000000E+00 -0.00000000000E+00 -0.12749517747E+03  0.12749517747E+03  0.00000000000E+00 0. -1.
         25    1    1    2    0    0  0.20009952290E+03  0.83539319877E+02  0.13943976231E+03  0.28650843677E+03  0.12500000000E+03 0.  0.
         25    1    1    2    0    0 -0.20009952290E+03 -0.83539319877E+02  0.23626646511E+03  0.34418814560E+03  0.12500000000E+03 0.  0.
</event>
<event>
 4    0  0.2134002E-002  0.2539370E+03  0.7546771E-02  0.1110842E+00
         21   -1    0    0  502  501  0.00000000000E+00  0.00000000000E+00  0.65721394149E+03  0.65721394149E+03  0.00000000000E+00 0. -1.
         21   -1    0    0  501  502 -0.00000000000E+00 -0.00000000000E+00 -0.98117237626E+02  0.98117237626E+02  0.00000000000E+00 0. -1.
         25    1    1    2    0    0  0.15942354529E+03 -0.13105240686E+03  0.39729818311E+03  0.46482410269E+03  0.12500000000E+03 0.  0.
         25    1    1    2    0    0 -0.15942354529E+03  0.13105240686E+03  0.16179852075E+03  0.29050707643E+03  0.12500000000E+03 0.  0.
</event>
<event>
 4    0  0.2134002E-002  0.3934669E+03  0.7546771E-02  0.1046066E+00
         21   -1    0    0  502  501  0.00000000000E+00  0.00000000000E+00  0.16986273441E+03  0.16986273441E+03  0.00000000000E+00 0. -1.
         21   -1    0    0  501  502 -0.00000000000E+00 -0.00000000000E+00 -0.91141934354E+03  0.91141934354E+03  0.00000000000E+00 0.  1.
         25    1    1    2    0    0  0.29915320733E+03 -0.22268040956E+03 -0.35623836579E+03  0.53066936931E+03  0.12500000000E+03 0.  0.
         25    1    1    2    0    0 -0.29915320733E+03  0.22268040956E+03 -0.38531824335E+03  0.55061270864E+03  0.12500000000E+03 0.  0.
</event>
<event>
 4    0  0.2134002E-002  0.2078357E+03  0.7546771E-02  0.1143291E+00
         21   -1    0    0  502  501  0.00000000000E+00  0.00000000000E+00  0.50321953054E+03  0.50321953054E+03  0.00000000000E+00 0. -1.
         21   -1    0    0  501  502 -0.00000000000E+00 -0.00000000000E+00 -0.85838655685E+02  0.85838655685E+02  0.00000000000E+00 0. -1.
         25    1    1    2    0    0  0.57853551858E+02  0.12290334666E+03  0.73368612985E+02  0.19864596511E+03  0.12500000000E+03 0.  0.
         25    1    1    2    0    0 -0.57853551858E+02 -0.12290334666E+03  0.34401226187E+03  0.39041222112E+03  0.12500000000E+03 0.  0.
</event>
<event>
 4    0  0.2134002E-002  0.2570880E+03  0.7546771E-02  0.1108906E+00
         21   -1    0    0  502  501  0.00000000000E+00  0.00000000000E+00  0.90883284501E+03  0.90883284501E+03  0.00000000000E+00 0.  1.
         21   -1    0    0  501  502 -0.00000000000E+00 -0.00000000000E+00 -0.72724335162E+02  0.72724335162E+02  0.00000000000E+00 0.  1.
         25    1    1    2    0    0  0.13888766167E+03  0.16014780217E+03  0.56004211648E+03  0.61172646937E+03  0.12500000000E+03 0.  0.
         25    1    1    2    0    0 -0.13888766167E+03 -0.16014780217E+03  0.27606639337E+03  0.36983071080E+03  0.12500000000E+03 0.  0.
</event>
<event>
 4    0  0.2134002E-002  0.1926492E+03  0.7546771E-02  0.1156093E+00
         21   -1    0    0  502  501  0.00000000000E+00  0.00000000000E+00  0.69555148497E+03  0.69555148497E+03  0.00000000000E+00 0. -1.
         21   -1    0    0  501  502 -0.00000000000E+00 -0.00000000000E+00 -0.53358708651E+02  0.53358708651E+02  0.00000000000E+00 0. -1.
         25    1    1    2    0    0  0.10135670555E+03  0.54759339494E+02  0.14490361562E+03  0.22336925670E+03  0.12500000000E+03 0.  0.
         25    1    1    2    0    0 -0.10135670555E+03 -0.54759339494E+02  0.49728916070E+03  0.52554093691E+03  0.12500000000E+03 0.  0.
</event>
<event>
 4    0  0.2134002E-002  0.2324304E+03  0.7546771E-02  0.1124941E+00
         21   -1    0    0  502  501  0.00000000000E+00  0.00000000000E+00  0.21302638475E+03  0.21302638475E+03  0.00000000000E+00 0. -1.
         21   -1    0    0  501  502 -0.00000000000E+00 -0.00000000000E+00 -0.25360186743E+03  0.25360186743E+03  0.00000000000E+00 0. -1.
         25    1    1    2    0    0 -0.88925892822E+02  0.12813933084E+03 -0.13936163563E+03  0.24366815140E+03  0.12500000000E+03 0.  0.
         25    1    1    2    0    0  0.88925892822E+02 -0.12813933084E+03  0.98786152947E+02  0.22296010077E+03  0.12500000000E+03 0.  0.
</event>
<event>
 4    0  0.2134002E-002  0.2110153E+03  0.7546771E-02  0.1140765E+00
         21   -1    0    0  502  501  0.00000000000E+00  0.00000000000E+00  0.20796013776E+03  0.20796013776E+03  0.00000000000E+00 0.  1.
         21   -1    0    0  501  502 -0.00000000000E+00 -0.00000000000E+00 -0.21411530944E+03  0.21411530944E+03  0.00000000000E+00 0.  1.
         25    1    1    2    0    0  0.49605176567E+02  0.13697851697E+03 -0.90714877788E+02  0.21231574766E+03  0.12500000000E+03 0.  0.
         25    1    1    2    0    0 -0.49605176567E+02 -0.13697851697E+03  0.84559706106E+02  0.20975969954E+03  0.12500000000E+03 0.  0.
</event>
<event>
 4    0  0.2134002E-002  0.2519648E+03  0.7546771E-02  0.1112069E+00
         21   -1    0    0  502  501  0.00000000000E+00  0.00000000000E+00  0.21167495575E+04  0.21167495575E+04  0.00000000000E+00 0. -1.
         21   -1    0    0  501  502 -0.00000000000E+00 -0.00000000000E+00 -0.29992323145E+02  0.29992323145E+02  0.00000000000E+00 0. -1.
         25    1    1    2    0    0 -0.16508725353E+03 -0.13160886815E+03  0.79915953890E+03  0.83597587529E+03  0.12500000000E+03 0.  0.
         25    1    1    2    0    0  0.16508725353E+03  0.13160886815E+03  0.12875976955E+04  0.13107660054E+04  0.12500000000E+03 0.  0.
</event>
<event>
 4    0  0.2134002E-002  0.2289881E+03  0.7546771E-02  0.1127354E+00
         21   -1    0    0  502  501  0.00000000000E+00  0.00000000000E+00  0.64124962957E+02  0.64124962957E+02  0.00000000000E+00 0. -1.
         21   -1    0    0  501  502 -0.00000000000E+00 -0.00000000000E+00 -0.81770867859E+03  0.81770867859E+03  0.00000000000E+00 0. -1.
         25    1    1    2    0    0  0.16911800147E+03  0.78460898171E+02 -0.28953610108E+03  0.36635114957E+03  0.12500000000E+03 0.  0.
         25    1    1    2    0    0 -0.16911800147E+03 -0.78460898171E+02 -0.46404761455E+03  0.51548249198E+03  0.12500000000E+03 0.  0.
</event>
<event>
 4    0  0.2134002E-002  0.4328083E+03  0.7546771E-02  0.1032976E+00
         21   -1    0    0  502  501  0.00000000000E+00  0.00000000000E+00  0.14232068962E+03  0.14232068962E+03  0.00000000000E+00 0.  1.
         21   -1    0    0  501  502 -0.00000000000E+00 -0.00000000000E+00 -0.13162039613E+04  0.13162039613E+04  0.00000000000E+00 0.  1.
         25    1    1    2    0    0  0.46613824811E+02  0.27811458148E+03 -0.10985063631E+04  0.11409915858E+04  0.12500000000E+03 0.  0.
         25    1    1    2    0    0 -0.46613824811E+02 -0.27811458148E+03 -0.75376908569E+02  0.31753306511E+03  0.12500000000E+03 0.  0.
</event>
<event>
 4    0  0.2134002E-002  0.2085312E+03  0.7546771E-02  0.1142734E+00
         21   -1    0    0  502  501  0.00000000000E+00  0.00000000000E+00  0.70816064146E+02  0.70816064146E+02  0.00000000000E+00 0.  1.
         21   -1    0    0  501  502 -0.00000000000E+00 -0.00000000000E+00 -0.61405956086E+03  0.61405956086E+03  0.00000000000E+00 0. -1.
         25    1    1    2    0    0  0.15811140376E+03  0.33723770188E+02 -0.20344275951E+03  0.28835822352E+03  0.12500000000E+03 0.  0.
         25    1    1    2    0    0 -0.15811140376E+03 -0.33723770188E+02 -0.33980073721E+03  0.39651740149E+03  0.12500000000E+03 0.  0.
</event>
<event>
 4    0  0.2134002E-002  0.2438060E+03  0.7546771E-02  0.1117283E+00
         21   -1    0    0  502  501  0.00000000000E+00  0.00000000000E+00  0.53911694867E+02  0.53911694867E+02  0.00000000000E+00 0.  1.
         21   -1    0    0  501  502 -0.00000000000E+00 -0.00000000000E+00 -0.11025691905E+04  0.11025691905E+04  0.00000000000E+00 0. -1.
         25    1    1    2    0    0 -0.19589740739E+03  0.50589411354E+02 -0.65163730784E+03  0.69367951082E+03  0.12500000000E+03 0.  0.
         25    1    1    2    0    0  0.19589740739E+03 -0.50589411354E+02 -0.39702018779E+03  0.46280137454E+03  0.12500000000E+03 0.  0.
</event>
<event>
 4    0  0.2134002E-002  0.2186033E+03  0.7546771E-02  0.1134929E+00
         21   -1    0    0  502  501  0.00000000000E+00  0.00000000000E+00  0.77351095933E+03  0.77351095933E+03  0.00000000000E+00 0. -1.
         21   -1    0    0  501  502 -0.00000000000E+00 -0.00000000000E+00 -0.61779838091E+02  0.61779838091E+02  0.00000000000E+00 0. -1.
         25    1    1    2    0    0 -0.74742696923E+02 -0.21419853155E+02  0.47110868259E+02  0.15456297992E+03  0.12500000000E+03 0.  0.
         25    1    1    2    0    0  0.74742696923E+02  0.21419853155E+02  0.66462025298E+03  0.68072781750E+03  0.12500000000E+03 0.  0.
</event>
<event>
 4    0  0.2134002E-002  0.1354834E+03  0.7546771E-02  0.1219539E+00
         21   -1    0    0  502  501  0.00000000000E+00  0.00000000000E+00  0.66008907726E+01  0.66008907726E+01  0.00000000000E+00 0.  1.
         21   -1    0    0  501  502 -0.00000000000E+00 -0.00000000000E+00 -0.27807980319E+04  0.27807980319E+04  0.00000000000E+00 0.  1.
         25    1    1    2    0    0  0.18119534610E+02  0.19855558199E+01 -0.18908909077E+04  0.18951057186E+04  0.12500000000E+03 0.  0.
         25    1    1    2    0    0 -0.18119534610E+02 -0.19855558199E+01 -0.88330623342E+03  0.89229320403E+03  0.12500000000E+03 0.  0.
</event>
<event>
 4    0  0.2134002E-002  0.1683483E+03  0.7546771E-02  0.1179581E+00
         21   -1    0    0  502  501  0.00000000000E+00  0.00000000000E+00  0.11247829962E+03  0.11247829962E+03  0.00000000000E+00 0. -1.
         21   -1    0    0  501  502 -0.00000000000E+00 -0.00000000000E+00 -0.25197003312E+03  0.25197003312E+03  0.00000000000E+00 0. -1.
         25    1    1    2    0    0 -0.46569113570E+02 -0.84790492938E+02 -0.13247088386E+03  0.20623201765E+03  0.12500000000E+03 0.  0.
         25    1    1    2    0    0  0.46569113570E+02  0.84790492938E+02 -0.70208496444E+01  0.15821631509E+03  0.12500000000E+03 0.  0.
</event>
<event>
 4    0  0.2134002E-002  0.1993168E+03  0.7546771E-02  0.1150317E+00
         21   -1    0    0  502  501  0.00000000000E+00  0.00000000000E+00  0.50388778283E+02  0.50388778283E+02  0.00000000000E+00 0.  1.
         21   -1    0    0  501  502 -0.00000000000E+00 -0.00000000000E+00 -0.78841349421E+03  0.78841349421E+03  0.00000000000E+00 0.  1.
         25    1    1    2    0    0 -0.44916963453E+01  0.71709779940E+02 -0.65859498059E+03  0.67419197291E+03  0.12500000000E+03 0.  0.
         25    1    1    2    0    0  0.44916963453E+01 -0.71709779940E+02 -0.79429735345E+02  0.16461029959E+03  0.12500000000E+03 0.  0.
</event>
<event>
 4    0  0.2134002E-002  0.1558502E+03  0.7546771E-02  0.1193463E+00
         21   -1    0    0  502  501  0.00000000000E+00  0.00000000000E+00  0.44134030203E+03  0.44134030203E+03  0.00000000000E+00 0.  1.
         21   -1    0    0  501  502 -0.00000000000E+00 -0.00000000000E+00 -0.55035297004E+02  0.55035297004E+02  0.00000000000E+00 0.  1.
         25    1    1    2    0    0 -0.65983494993E+02 -0.60188068549E+02  0.15138620567E+03  0.21568312051E+03  0.12500000000E+03 0.  0.
         25    1    1    2    0    0  0.65983494993E+02  0.60188068549E+02  0.23491879936E+03  0.28069247852E+03  0.12500000000E+03 0.  0.
</event>
<event>
 4    0  0.2134002E-002  0.1595972E+03  0.7546771E-02  0.1189152E+00
         21   -1    0    0  502  501  0.00000000000E+00  0.00000000000E+00  0.37998960125E+03  0.37998960125E+03  0.00000000000E+00 0. -1.
         21   -1    0    0  501  502 -0.00000000000E+00 -0.00000000000E+00 -0.67031510425E+02  0.67031510425E+02  0.00000000000E+00 0. -1.
         25    1    1    2    0    0 -0.61520387995E+02  0.60317140157E+02  0.22542071097E+03  0.27177640160E+03  0.12500000000E+03 0.  0.
         25    1    1    2    0    0  0.61520387995E+02 -0.60317140157E+02  0.87537379860E+02  0.17524471007E+03  0.12500000000E+03 0.  0.
</event>
<event>
 4    0  0.2134002E-002  0.2504807E+03  0.7546771E-02  0.1113001E+00
         21   -1    0    0  502  501  0.00000000000E+00  0.00000000000E+00  0.12138563440E+03  0.12138563440E+03  0.00000000000E+00 0.  1.
         21   -1    0    0  501  502 -0.00000000000E+00 -0.00000000000E+00 -0.51686970536E+03  0.51686970536E+03  0.00000000000E+00 0.  1.
         25    1    1    2    0    0 -0.71394760646E+01 -0.28232930182E+01  0.78634146426E+02  0.14787586715E+03  0.12500000000E+03 0.  0.
         25    1    1    2    0    0  0.71394760646E+01  0.28232930182E+01 -0.47411821739E+03  0.49037947261E+03  0.12500000000E+03 0.  0.
</event>
<event>
 4    0  0.2134002E-002  0.1857854E+03  0.7546771E-02  0.1162319E+00
         21   -1    0    0  502  501  0.00000000000E+00  0.00000000000E+00  0.61061934060E+03  0.61061934060E+03  0.00000000000E+00 0. -1.
         21   -1    0    0  501  502 -0.00000000000E+00 -0.00000000000E+00 -0.56526547379E+02  0.56526547379E+02  0.00000000000E+00 0. -1.
         25    1    1    2    0    0 -0.54471898487E+02 -0.56912952010E+02  0.47926605344E+03  0.50152489650E+03  0.12500000000E+03 0.  0.
         25    1    1    2    0    0  0.54471898487E+02  0.56912952010E+02  0.74826739780E+02  0.16562099148E+03  0.12500000000E+03 0.  0.
</event>
<event>
 4    0  0.2134002E-002  0.2811758E+03  0.7546771E-02  0.1095048E+00
         21   -1    0    0  502  501  0.00000000000E+00  0.00000000000E+00  0.37671838599E+03  0.37671838599E+03  0.00000000000E+00 0. -1.
         21   -1    0    0  501  502 -0.00000000000E+00 -0.00000000000E+00 -0.20986452992E+03  0.20986452992E+03  0.00000000000E+00 0. -1.
         25    1    1    2    0    0  0.21150244731E+03  0.12024983555E+03  0.15493710656E+02  0.27396781424E+03  0.12500000000E+03 0.  0.
         25    1    1    2    0    0 -0.21150244731E+03 -0.12024983555E+03  0.15136014542E+03  0.31261510167E+03  0.12500000000E+03 0.  0.
</event>
<event>
 4    0  0.2134002E-002  0.2186225E+03  0.7546771E-02  0.1134914E+00
         21   -1    0    0  502  501  0.00000000000E+00  0.00000000000E+00  0.10685366900E+03  0.10685366900E+03  0.00000000000E+00 0. -1.
         21   -1    0    0  501  502 -0.00000000000E+00 -0.00000000000E+00 -0.44730131199E+03  0.44730131199E+03  0.00000000000E+00 0. -1.
         25    1    1    2    0    0 -0.25016220807E+02  0.17203907451E+03 -0.11429331823E+03  0.24271633042E+03  0.12500000000E+03 0.  0.
         25    1    1    2    0    0  0.25016220807E+02 -0.17203907451E+03 -0.22615432475E+03  0.31143865057E+03  0.12500000000E+03 0.  0.
</event>
<event>
 4    0  0.2134002E-002  0.2614041E+03  0.7546771E-02  0.1106303E+00
         21   -1    0    0  502  501  0.00000000000E+00  0.00000000000E+00  0.49410905659E+03  0.49410905659E+03  0.00000000000E+00 0.  1.
         21   -1    0    0  501  502 -0.00000000000E+00 -0.00000000000E+00 -0.13829355738E+03  0.13829355738E+03  0.00000000000E+00 0.  1.
         25    1    1    2    0    0  0.49967784740E+02 -0.22239601022E+03  0.21104211654E+03  0.33484405300E+03  0.12500000000E+03 0.  0.
         25    1    1    2    0    0 -0.49967784740E+02  0.22239601022E+03  0.14477338267E+03  0.29755856096E+03  0.12500000000E+03 0.  0.
</event>
<event>
 4    0  0.2134002E-002  0.2182865E+03  0.7546771E-02  0.1135167E+00
         21   -1    0    0  502  501  0.00000000000E+00  0.00000000000E+00  0.12921893800E+03  0.12921893800E+03  0.00000000000E+00 0. -1.
         21   -1    0    0  501  502 -0.00000000000E+00 -0.00000000000E+00 -0.36874619369E+03  0.36874619369E+03  0.00000000000E+00 0. -1.
         25    1    1    2    0    0 -0.31582265101E+02 -0.17245698322E+03 -0.78873593757E+02  0.22931396452E+03  0.12500000000E+03 0.  0.
         25    1    1    2    0    0  0.31582265101E+02  0.17245698322E+03 -0.16065366193E+03  0.26865116717E+03  0.12500000000E+03 0.  0.
</event>
<event>
 4    0  0.2134002E-002  0.1801253E+03  0.7546771E-02  0.1167682E+00
         21   -1    0    0  502  501  0.00000000000E+00  0.00000000000E+00  0.47688799174E+03  0.47688799174E+03  0.00000000000E+00 0.  1.
         21   -1    0    0  501  502 -0.00000000000E+00 -0.00000000000E+00 -0.68035092229E+02  0.68035092229E+02  0.00000000000E+00 0.  1.
         25    1    1    2    0    0  0.94764960012E+02 -0.31424231619E+02  0.79214215850E+02  0.17851546704E+03  0.12500000000E+03 0.  0.
         25    1    1    2    0    0 -0.94764960012E+02  0.31424231619E+02  0.32963868366E+03  0.36640761693E+03  0.12500000000E+03 0.  0.
</event>
<event>
 4    0  0.2134002E-002  0.1918986E+03  0.7546771E-02  0.1156760E+00
         21   -1    0    0  502  501  0.00000000000E+00  0.00000000000E+00  0.48483522184E+02  0.48483522184E+02  0.00000000000E+00 0. -1.
         21   -1    0    0  501  502 -0.00000000000E+00 -0.00000000000E+00 -0.75953816529E+03  0.75953816529E+03  0.00000000000E+00 0. -1.
         25    1    1    2    0    0 -0.14333069279E+03  0.17448936770E+02 -0.39502311897E+03  0.43876692835E+03  0.12500000000E+03 0.  0.
         25    1    1    2    0    0  0.14333069279E+03 -0.17448936770E+02 -0.31603152413E+03  0.36925475912E+03  0.12500000000E+03 0.  0.
</event>
<event>
 4    0  0.2134002E-002  0.3864855E+03  0.7546771E-02  0.1048562E+00
         21   -1    0    0  502  501  0.00000000000E+00  0.00000000000E+00  0.43243131920E+03  0.43243131920E+03  0.00000000000E+00 0.  1.
         21   -1    0    0  501  502 -0.00000000000E+00 -0.00000000000E+00 -0.34542149198E+03  0.34542149198E+03  0.00000000000E+00 0.  1.
         25    1    1    2    0    0 -0.15575180290E+03 -0.10387118684E+03 -0.27264193025E+03  0.35356254000E+03  0.12500000000E+03 0.  0.
         25    1    1    2    0    0  0.15575180290E+03  0.10387118684E+03  0.35965175747E+03  0.42429027118E+03  0.12500000000E+03 0.  0.
</event>
<event>
 4    0  0.2134002E-002  0.2526045E+03  0.7546771E-02  0.1111670E+00
         21   -1    0    0  502  501  0.00000000000E+00  0.00000000000E+00  0.61041998585E+02  0.61041998585E+02  0.00000000000E+00 0.  1.
         21   -1    0    0  501  502 -0.00000000000E+00 -0.00000000000E+00 -0.10453299988E+04  0.10453299988E+04  0.00000000000E+00 0.  1.
         25    1    1    2    0    0 -0.21759932781E+03 -0.25276048186E+02 -0.46150953956E+03  0.52593193588E+03  0.12500000000E+03 0.  0.
         25    1    1    2    0    0  0.21759932781E+03  0.25276048186E+02 -0.52277846065E+03  0.58044006150E+03  0.12500000000E+03 0.  0.
</event>
<event>
 4    0  0.2134002E-002  0.2308303E+03  0.7546771E-02  0.1126057E+00
         21   -1    0    0  502  501  0.00000000000E+00  0.00000000000E+00  0.15750382345E+04  0.15750382345E+04  0.00000000000E+00 0.  1.
         21   -1    0    0  501  502 -0.00000000000E+00 -0.00000000000E+00 -0.33829422177E+02  0.33829422177E+02  0.00000000000E+00 0.  1.
         25    1    1    2    0    0  0.90606800925E+02  0.16994565621E+03  0.85355188095E+03  0.88389305456E+03  0.12500000000E+03 0.  0.
         25    1    1    2    0    0 -0.90606800925E+02 -0.16994565621E+03  0.68765693137E+03  0.72497460210E+03  0.12500000000E+03 0.  0.
</event>
<event>
 4    0  0.2134002E-002  0.1765453E+03  0.7546771E-02  0.1171189E+00
         21   -1    0    0  502  501  0.00000000000E+00  0.00000000000E+00  0.13380371610E+03  0.13380371610E+03  0.00000000000E+00 0. -1.
         21   -1    0    0  501  502 -0.00000000000E+00 -0.00000000000E+00 -0.23294003231E+03  0.23294003231E+03  0.00000000000E+00 0. -1.
         25    1    1    2    0    0 -0.10151572040E+03 -0.42588545534E+02  0.11209572411E+02  0.16694274532E+03  0.12500000000E+03 0.  0.
         25    1    1    2    0    0  0.10151572040E+03  0.42588545534E+02 -0.11034588862E+03  0.19980100309E+03  0.12500000000E+03 0.  0.
</event>
<event>
 4    0  0.2134002E-002  0.1896883E+03  0.7546771E-02  0.1158743E+00
         21   -1    0    0  502  501  0.00000000000E+00  0.00000000000E+00  0.34106393232E+03  0.34106393232E+03  0.00000000000E+00 0. -1.
         21   -1    0    0  501  502 -0.00000000000E+00 -0.00000000000E+00 -0.10549826419E+03  0.10549826419E+03  0.00000000000E+00 0. -1.
         25    1    1    2    0    0  0.28855562033E+02 -0.11807273146E+03  0.20573346815E+03  0.26967586710E+03  0.12500000000E+03 0.  0.
         25    1    1    2    0    0 -0.28855562033E+02  0.11807273146E+03  0.29832199976E+02  0.17688632941E+03  0.12500000000E+03 0.  0.
</event>
<event>
 4    0  0.2134002E-002  0.3710052E+03  0.7546771E-02  0.1054309E+00
         21   -1    0    0  502  501  0.00000000000E+00  0.00000000000E+00  0.17554344323E+03  0.17554344323E+03  0.00000000000E+00 0. -1.
         21   -1    0    0  501  502 -0.00000000000E+00 -0.00000000000E+00 -0.78410710750E+03  0.78410710750E+03  0.00000000000E+00 0.  1.
         25    1    1    2    0    0 -0.23555815013E+03 -0.21977006423E+03 -0.47891881290E+03  0.59057154738E+03  0.12500000000E+03 0.  0.
         25    1    1    2    0    0  0.23555815013E+03  0.21977006423E+03 -0.12964485137E+03  0.36907900335E+03  0.12500000000E+03 0.  0.
</event>
<event>
 4    0  0.2134002E-002  0.3328240E+03  0.7546771E-02  0.1069894E+00
         21   -1    0    0  502  501  0.00000000000E+00  0.00000000000E+00  0.15750884526E+04  0.15750884526E+04  0.00000000000E+00 0. -1.
         21   -1    0    0  501  502 -0.00000000000E+00 -0.00000000000E+00 -0.70327343914E+02  0.70327343914E+02  0.00000000000E+00 0. -1.
         25    1    1    2    0    0  0.27268847799E+03 -0.14416448752E+03  0.74720618096E+03  0.81797584460E+03  0.12500000000E+03 0.  0.
         25    1    1    2    0    0 -0.27268847799E+03  0.14416448752E+03  0.75755492769E+03  0.82743995187E+03  0.12500000000E+03 0.  0.
</event>
<event>
 4    0  0.2134002E-002  0.2279184E+03  0.7546771E-02  0.1128114E+00
         21   -1    0    0  502  501  0.00000000000E+00  0.00000000000E+00  0.85837265547E+02  0.85837265547E+02  0.00000000000E+00 0. -1.
         21   -1    0    0  501  502 -0.00000000000E+00 -0.00000000000E+00 -0.60517777041E+03  0.60517777041E+03  0.00000000000E+00 0. -1.
         25    1    1    2    0    0 -0.13429423525E+03 -0.13380667164E+03 -0.23001701463E+03  0.32322127717E+03  0.12500000000E+03 0.  0.
         25    1    1    2    0    0  0.13429423525E+03  0.13380667164E+03 -0.28932349024E+03  0.36779375879E+03  0.12500000000E+03 0.  0.
</event>
<event>
 4    0  0.2134002E-002  0.3273731E+03  0.7546771E-02  0.1072305E+00
         21   -1    0    0  502  501  0.00000000000E+00  0.00000000000E+00  0.99541808652E+02  0.99541808652E+02  0.00000000000E+00 0. -1.
         21   -1    0    0  501  502 -0.00000000000E+00 -0.00000000000E+00 -0.10766645631E+04  0.10766645631E+04  0.00000000000E+00 0. -1.
         25    1    1    2    0    0  0.97411837116E+02  0.12619085965E+03 -0.26578332320E+02  0.20431496964E+03  0.12500000000E+03 0.  0.
         25    1    1    2    0    0 -0.97411837116E+02 -0.12619085965E+03 -0.95054442209E+03  0.97189140208E+03  0.12500000000E+03 0.  0.
</event>
<event>
 4    0  0.2134002E-002  0.2564927E+03  0.7546771E-02  0.1109269E+00
         21   -1    0    0  502  501  0.00000000000E+00  0.00000000000E+00  0.45389606495E+02  0.45389606495E+02  0.00000000000E+00 0.  1.
         21   -1    0    0  501  502 -0.00000000000E+00 -0.00000000000E+00 -0.14494179904E+04  0.14494179904E+04  0.00000000000E+00 0.  1.
         25    1    1    2    0    0 -0.35250624158E+02  0.97096638249E+01 -0.13458996771E+04  0.13521863130E+04  0.12500000000E+03 0.  0.
         25    1    1    2    0    0  0.35250624158E+02 -0.97096638249E+01 -0.58128706759E+02  0.14262128391E+03  0.12500000000E+03 0.  0.
</event>
<event>
 4    0  0.2134002E-002  0.2676331E+03  0.7546771E-02  0.1102642E+00
         21   -1    0    0  502  501  0.00000000000E+00  0.00000000000E+00  0.69759311694E+02  0.69759311694E+02  0.00000000000E+00 0.  1.
         21   -1    0    0  501  502 -0.00000000000E+00 -0.00000000000E+00 -0.10267799783E+04  0.10267799783E+04  0.00000000000E+00 0.  1.
         25    1    1    2    0    0 -0.14675508501E+03  0.13116917948E+03 -0.74764863761E+03  0.78316402749E+03  0.12500000000E+03 0.  0.
         25    1    1    2    0    0  0.14675508501E+03 -0.13116917948E+03 -0.20937202897E+03  0.31337526248E+03  0.12500000000E+03 0.  0.
</event>
<event>
 4    0  0.2134002E-002  0.3075811E+03  0.7546771E-02  0.1081511E+00
         21   -1    0    0  502  501  0.00000000000E+00  0.00000000000E+00  0.29562644621E+03  0.29562644621E+03  0.00000000000E+00 0. -1.
         21   -1    0    0  501  502 -0.00000000000E+00 -0.00000000000E+00 -0.32001915918E+03  0.32001915918E+03  0.00000000000E+00 0. -1.
         25    1    1    2    0    0 -0.15022762721E+03  0.16770541079E+03  0.15612523825E+03  0.30115367307E+03  0.12500000000E+03 0.  0.
         25    1    1    2    0    0  0.15022762721E+03 -0.16770541079E+03 -0.18051795123E+03  0.31449193232E+03  0.12500000000E+03 0.  0.
</event>
<event>
 4    0  0.2134002E-002  0.2221688E+03  0.7546771E-02  0.1132276E+00
         21   -1    0    0  502  501  0.00000000000E+00  0.00000000000E+00  0.52662441592E+03  0.52662441592E+03  0.00000000000E+00 0.  1.
         21   -1    0    0  501  502 -0.00000000000E+00 -0.00000000000E+00 -0.93727112565E+02  0.93727112565E+02  0.00000000000E+00 0.  1.
         25    1    1    2    0    0 -0.97627225809E+02  0.51186961331E+02  0.42155480847E+03  0.45330413275E+03  0.12500000000E+03 0.  0.
         25    1    1    2    0    0  0.97627225809E+02 -0.51186961331E+02  0.11342494885E+02  0.16704739573E+03  0.12500000000E+03 0.  0.
</event>
<event>
 4    0  0.2134002E-002  0.2240191E+03  0.7546771E-02  0.1130922E+00
         21   -1    0    0  502  501  0.00000000000E+00  0.00000000000E+00  0.17420397502E+03  0.17420397502E+03  0.00000000000E+00 0. -1.
         21   -1    0    0  501  502 -0.00000000000E+00 -0.00000000000E+00 -0.28807939554E+03  0.28807939554E+03  0.00000000000E+00 0. -1.
         25    1    1    2    0    0  0.17143129786E+03 -0.67246319470E+02 -0.83219488345E+02  0.23761574150E+03  0.12500000000E+03 0.  0.
         25    1    1    2    0    0 -0.17143129786E+03  0.67246319470E+02 -0.30655932175E+02  0.22466762906E+03  0.12500000000E+03 0.  0.
</event>
<event>
 4    0  0.2134002E-002  0.2421211E+03  0.7546771E-02  0.1118388E+00
         21   -1    0    0  502  501  0.00000000000E+00  0.00000000000E+00  0.28304282737E+03  0.28304282737E+03  0.00000000000E+00 0.  1.
         21   -1    0    0  501  502 -0.00000000000E+00 -0.00000000000E+00 -0.20711568351E+03  0.20711568351E+03  0.00000000000E+00 0.  1.
         25    1    1    2    0    0 -0.17998004397E+03 -0.37655555651E+02 -0.59055548176E+02  0.23005067891E+03  0.12500000000E+03 0.  0.
         25    1    1    2    0    0  0.17998004397E+03  0.37655555651E+02  0.13498269204E+03  0.26010783196E+03  0.12500000000E+03 0.  0.
</event>
<event>
 4    0  0.2134002E-002  0.2523973E+03  0.7546771E-02  0.1111799E+00
         21   -1    0    0  502  501  0.00000000000E+00  0.00000000000E+00  0.13749813351E+04  0.13749813351E+04  0.00000000000E+00 0.  1.
         21   -1    0    0  501  502 -0.00000000000E+00 -0.00000000000E+00 -0.46331115329E+02  0.46331115329E+02  0.00000000000E+00 0.  1.
         25    1    1    2    0    0 -0.14781239040E+03 -0.10608863464E+03  0.10088926857E+04  0.10327597748E+04  0.12500000000E+03 0.  0.
         25    1    1    2    0    0  0.14781239040E+03  0.10608863464E+03  0.31975753408E+03  0.38855267566E+03  0.12500000000E+03 0.  0.
</event>
<event>
 4    0  0.2134002E-002  0.2677603E+03  0.7546771E-02  0.1102568E+00
         21   -1    0    0  502  501  0.00000000000E+00  0.00000000000E+00  0.76742845165E+03  0.76742845165E+03  0.00000000000E+00 0. -1.
         21   -1    0    0  501  502 -0.00000000000E+00 -0.00000000000E+00 -0.93423110217E+02  0.93423110217E+02  0.00000000000E+00 0. -1.
         25    1    1    2    0    0  0.23025892131E+03 -0.18055282831E+01  0.42575266694E+03  0.49991275657E+03  0.12500000000E+03 0.  0.
         25    1    1    2    0    0 -0.23025892131E+03  0.18055282831E+01  0.24825267449E+03  0.36093880530E+03  0.12500000000E+03 0.  0.
</event>
<event>
 4    0  0.2134002E-002  0.1695316E+03  0.7546771E-02  0.1178337E+00
         21   -1    0    0  502  501  0.00000000000E+00  0.00000000000E+00  0.54679917053E+02  0.54679917053E+02  0.00000000000E+00 0. -1.
         21   -1    0    0  501  502 -0.00000000000E+00 -0.00000000000E+00 -0.52562177707E+03  0.52562177707E+03  0.00000000000E+00 0. -1.
         25    1    1    2    0    0  0.23588177322E+02  0.11118356993E+03 -0.25953948291E+03  0.30968359905E+03  0.12500000000E+03 0.  0.
         25    1    1    2    0    0 -0.23588177322E+02 -0.11118356993E+03 -0.21140237711E+03  0.27061809507E+03  0.12500000000E+03 0.  0.
</event>
<event>
 4    0  0.2134002E-002  0.2491112E+03  0.7546771E-02  0.1113868E+00
         21   -1    0    0  502  501  0.00000000000E+00  0.00000000000E+00  0.15187788414E+03  0.15187788414E+03  0.00000000000E+00 0.  1.
         21   -1    0    0  501  502 -0.00000000000E+00 -0.00000000000E+00 -0.40859382515E+03  0.40859382515E+03  0.00000000000E+00 0.  1.
         25    1    1    2    0    0  0.77298362606E+02 -0.87856110085E+02 -0.33190003133E+03  0.37346534476E+03  0.12500000000E+03 0.  0.
         25    1    1    2    0    0 -0.77298362606E+02  0.87856110085E+02  0.75184090319E+02  0.18700636454E+03  0.12500000000E+03 0.  0.
</event>
<event>
 4    0  0.2134002E-002  0.2260016E+03  0.7546771E-02  0.1129486E+00
         21   -1    0    0  502  501  0.00000000000E+00  0.00000000000E+00  0.12869913462E+03  0.12869913462E+03  0.00000000000E+00 0. -1.
         21   -1    0    0  501  502 -0.00000000000E+00 -0.00000000000E+00 -0.39686907274E+03  0.39686907274E+03  0.00000000000E+00 0. -1.
         25    1    1    2    0    0 -0.13913551958E+03  0.14076753611E+01  0.13410811375E+02  0.18752472963E+03  0.12500000000E+03 0.  0.
         25    1    1    2    0    0  0.13913551958E+03 -0.14076753611E+01 -0.28158074949E+03  0.33804347774E+03  0.12500000000E+03 0.  0.
</event>
<event>
 4    0  0.2134002E-002  0.3609922E+03  0.7546771E-02  0.1058192E+00
         21   -1    0    0  502  501  0.00000000000E+00  0.00000000000E+00  0.15459490277E+03  0.15459490277E+03  0.00000000000E+00 0.  1.
         21   -1    0    0  501  502 -0.00000000000E+00 -0.00000000000E+00 -0.84294741654E+03  0.84294741654E+03  0.00000000000E+00 0.  1.
         25    1    1    2    0    0  0.19527720205E+03 -0.13676903427E+03 -0.11853167816E+02  0.26945213297E+03  0.12500000000E+03 0.  0.
         25    1    1    2    0    0 -0.19527720205E+03  0.13676903427E+03 -0.67649934595E+03  0.72809018634E+03  0.12500000000E+03 0.  0.
</event>
<event>
 4    0  0.2134002E-002  0.1772770E+03  0.7546771E-02  0.1170465E+00
         21   -1    0    0  502  501  0.00000000000E+00  0.00000000000E+00  0.74377529428E+03  0.74377529428E+03  0.00000000000E+00 0. -1.
         21   -1    0    0  501  502 -0.00000000000E+00 -0.00000000000E+00 -0.42253536907E+02  0.42253536907E+02  0.00000000000E+00 0. -1.
         25    1    1    2    0    0 -0.12548734374E+03 -0.19212898307E+01  0.36665071927E+03  0.40719591689E+03  0.12500000000E+03 0.  0.
         25    1    1    2    0    0  0.12548734374E+03  0.19212898307E+01  0.33487103811E+03  0.37883291430E+03  0.12500000000E+03 0.  0.
</event>
<event>
 4    0  0.2134002E-002  0.2002897E+03  0.7546771E-02  0.1149495E+00
         21   -1    0    0  502  501  0.00000000000E+00  0.00000000000E+00  0.45573677494E+02  0.45573677494E+02  0.00000000000E+00 0.  1.
         21   -1    0    0  501  502 -0.00000000000E+00 -0.00000000000E+00 -0.88024432865E+03  0.88024432865E+03  0.00000000000E+00 0.  1.
         25    1    1    2    0    0 -0.81779056066E+01  0.12142696517E+03 -0.18994847615E+03  0.25790852953E+03  0.12500000000E+03 0.  0.
         25    1    1    2    0    0  0.81779056066E+01 -0.12142696517E+03 -0.64472217500E+03  0.66790947661E+03  0.12500000000E+03 0.  0.
</event>
<event>
 4    0  0.2134002E-002  0.2802516E+03  0.7546771E-02  0.1095552E+00
         21   -1    0    0  502  501  0.00000000000E+00  0.00000000000E+00  0.25544129698E+02  0.25544129698E+02  0.00000000000E+00 0. -1.
         21   -1    0    0  501  502 -0.00000000000E+00 -0.00000000000E+00 -0.30747170989E+04  0.30747170989E+04  0.00000000000E+00 0. -1.
         25    1    1    2    0    0  0.24633720872E+03 -0.34324870450E+02 -0.17043087053E+04  0.17268912474E+04  0.12500000000E+03 0.  0.
         25    1    1    2    0    0 -0.24633720872E+03  0.34324870450E+02 -0.13448642638E+04  0.13733699812E+04  0.12500000000E+03 0.  0.
</event>
<event>
 4    0  0.2134002E-002  0.2666388E+03  0.7546771E-02  0.1103219E+00
         21   -1    0    0  502  501  0.00000000000E+00  0.00000000000E+00  0.13248872876E+04  0.13248872876E+04  0.00000000000E+00 0.  1.
         21   -1    0    0  501  502 -0.00000000000E+00 -0.00000000000E+00 -0.53662093136E+02  0.53662093136E+02  0.00000000000E+00 0.  1.
         25    1    1    2    0    0 -0.76704106368E+02 -0.21869754270E+03  0.52719167948E+03  0.58929466485E+03  0.12500000000E+03 0.  0.
         25    1    1    2    0    0  0.76704106368E+02  0.21869754270E+03  0.74403351497E+03  0.78925471587E+03  0.12500000000E+03 0.  0.
</event>
<event>
 4    0  0.2134002E-002  0.5426596E+03  0.7546771E-02  0.1003207E+00
         21   -1    0    0  502  501  0.00000000000E+00  0.00000000000E+00  0.11571433917E+04  0.11571433917E+04  0.00000000000E+00 0.  1.
         21   -1    0    0  501  502 -0.00000000000E+00 -0.00000000000E+00 -0.25448826116E+03  0.25448826116E+03  0.00000000000E+00 0.  1.
         25    1    1    2    0    0 -0.43847377286E+03  0.28201215255E+03  0.34200780350E+03  0.63591229059E+03  0.12500000000E+03 0.  0.
         25    1    1    2    0    0  0.43847377286E+03 -0.28201215255E+03  0.56064732708E+03  0.77571936229E+03  0.12500000000E+03 0.  0.
</event>
<event>
 4    0  0.2134002E-002  0.2180918E+03  0.7546771E-02  0.1135314E+00
         21   -1    0    0  502  501  0.00000000000E+00  0.00000000000E+00  0.20394428411E+03  0.20394428411E+03  0.00000000000E+00 0. -1.
         21   -1    0    0  501  502 -0.00000000000E+00 -0.00000000000E+00 -0.23322062079E+03  0.23322062079E+03  0.00000000000E+00 0. -1.
         25    1    1    2    0    0  0.14610877843E+02 -0.24822251108E+02 -0.19141355834E+03  0.23042085891E+03  0.12500000000E+03 0.  0.
         25    1    1    2    0    0 -0.14610877843E+02  0.24822251108E+02  0.16213722167E+03  0.20674404599E+03  0.12500000000E+03 0.  0.
</event>
<event>
 4    0  0.2146710E-002  0.2004483E+03  0.7546771E-02  0.1149361E+00
         21   -1    0    0  502  501  0.00000000000E+00  0.00000000000E+00  0.19234850695E+03  0.19234850695E+03  0.00000000000E+00 0.  1.
         21   -1    0    0  501  502 -0.00000000000E+00 -0.00000000000E+00 -0.20888915427E+03  0.20888915427E+03  0.00000000000E+00 0.  1.
         25    1    1    2    0    0  0.56841728099E+02 -0.13243843374E+03 -0.69833600335E+02  0.20315671911E+03  0.12500000000E+03 0.  0.
         25    1    1    2    0    0 -0.56841728099E+02  0.13243843374E+03  0.53292953016E+02  0.19808094211E+03  0.12500000000E+03 0.  0.
</event>
<event>
 4    0  0.2134002E-002  0.3179470E+03  0.7546771E-02  0.1076598E+00
         21   -1    0    0  502  501  0.00000000000E+00  0.00000000000E+00  0.55726415322E+03  0.55726415322E+03  0.00000000000E+00 0. -1.
         21   -1    0    0  501  502 -0.00000000000E+00 -0.00000000000E+00 -0.18140457409E+03  0.18140457409E+03  0.00000000000E+00 0. -1.
         25    1    1    2    0    0 -0.15375976538E+02 -0.29169972657E+03  0.17417963041E+03  0.36233781860E+03  0.12500000000E+03 0.  0.
         25    1    1    2    0    0  0.15375976538E+02  0.29169972657E+03  0.20167994871E+03  0.37633090871E+03  0.12500000000E+03 0.  0.
</event>
<event>
 4    0  0.2134002E-002  0.3771036E+03  0.7546771E-02  0.1052010E+00
         21   -1    0    0  502  501  0.00000000000E+00  0.00000000000E+00  0.35207451573E+03  0.35207451573E+03  0.00000000000E+00 0. -1.
         21   -1    0    0  501  502 -0.00000000000E+00 -0.00000000000E+00 -0.40391193645E+03  0.40391193645E+03  0.00000000000E+00 0. -1.
         25    1    1    2    0    0 -0.32084030076E+03  0.14259062023E+03  0.31762823080E+02  0.37403804686E+03  0.12500000000E+03 0.  0.
         25    1    1    2    0    0  0.32084030076E+03 -0.14259062023E+03 -0.83600243805E+02  0.38194840532E+03  0.12500000000E+03 0.  0.
</event>
<event>
 4    0  0.2134002E-002  0.1469280E+03  0.7546771E-02  0.1204300E+00
         21   -1    0    0  502  501  0.00000000000E+00  0.00000000000E+00  0.58287546285E+02  0.58287546285E+02  0.00000000000E+00 0.  1.
         21   -1    0    0  501  502 -0.00000000000E+00 -0.00000000000E+00 -0.37036774364E+03  0.37036774364E+03  0.00000000000E+00 0.  1.
         25    1    1    2    0    0  0.41064258626E+02 -0.46244203695E+01 -0.60884991343E+02  0.14505047663E+03  0.12500000000E+03 0.  0.
         25    1    1    2    0    0 -0.41064258626E+02  0.46244203695E+01 -0.25119520601E+03  0.28360481330E+03  0.12500000000E+03 0.  0.
</event>
<event>
 4    0  0.2134002E-002  0.3020242E+03  0.7546771E-02  0.1084233E+00
         21   -1    0    0  502  501  0.00000000000E+00  0.00000000000E+00  0.14684034695E+04  0.14684034695E+04  0.00000000000E+00 0. -1.
         21   -1    0    0  501  502 -0.00000000000E+00 -0.00000000000E+00 -0.62120940484E+02  0.62120940484E+02  0.00000000000E+00 0. -1.
         25    1    1    2    0    0  0.80411455818E+02 -0.21986824986E+03  0.10684410064E+04  0.11009083676E+04  0.12500000000E+03 0.  0.
         25    1    1    2    0    0 -0.80411455818E+02  0.21986824986E+03  0.33784152254E+03  0.42961604238E+03  0.12500000000E+03 0.  0.
</event>
<event>
 4    0  0.2134002E-002  0.2120434E+03  0.7546771E-02  0.1139958E+00
         21   -1    0    0  502  501  0.00000000000E+00  0.00000000000E+00  0.38347219327E+03  0.38347219327E+03  0.00000000000E+00 0. -1.
         21   -1    0    0  501  502 -0.00000000000E+00 -0.00000000000E+00 -0.11725073172E+03  0.11725073172E+03  0.00000000000E+00 0. -1.
         25    1    1    2    0    0 -0.96171294141E+02  0.60999647138E+01 -0.34080571171E+02  0.16147016046E+03  0.12500000000E+03 0.  0.
         25    1    1    2    0    0  0.96171294141E+02 -0.60999647138E+01  0.30030203272E+03  0.33925276453E+03  0.12500000000E+03 0.  0.
</event>
<event>
 4    0  0.2134002E-002  0.1881503E+03  0.7546771E-02  0.1160140E+00
         21   -1    0    0  502  501  0.00000000000E+00  0.00000000000E+00  0.10482181375E+03  0.10482181375E+03  0.00000000000E+00 0. -1.
         21   -1    0    0  501  502 -0.00000000000E+00 -0.00000000000E+00 -0.33772107016E+03  0.33772107016E+03  0.00000000000E+00 0. -1.
         25    1    1    2    0    0  0.65157694956E+02 -0.61983972927E+02 -0.24359205551E+03  0.28818332294E+03  0.12500000000E+03 0.  0.
         25    1    1    2    0    0 -0.65157694956E+02  0.61983972927E+02  0.10692799096E+02  0.15435956097E+03  0.12500000000E+03 0.  0.
</event>
<event>
 4    0  0.2134002E-002  0.1771495E+03  0.7546771E-02  0.1170591E+00
         21   -1    0    0  502  501  0.00000000000E+00  0.00000000000E+00  0.44909989975E+02  0.44909989975E+02  0.00000000000E+00 0. -1.
         21   -1    0    0  501  502 -0.00000000000E+00 -0.00000000000E+00 -0.69877436738E+03  0.69877436738E+03  0.00000000000E+00 0. -1.
         25    1    1    2    0    0 -0.12250737153E+03 -0.10991813917E+02 -0.27432755249E+03  0.32559097363E+03  0.12500000000E+03 0.  0.
         25    1    1    2    0    0  0.12250737153E+03  0.10991813917E+02 -0.37953682491E+03  0.41809338372E+03  0.12500000000E+03 0.  0.
</event>
<event>
 4    0  0.2134002E-002  0.2009929E+03  0.7546771E-02  0.1148904E+00
         21   -1    0    0  502  501  0.00000000000E+00  0.00000000000E+00  0.17583433596E+02  0.17583433596E+02  0.00000000000E+00 0.  1.
         21   -1    0    0  501  502 -0.00000000000E+00 -0.00000000000E+00 -0.22975124853E+04  0.22975124853E+04  0.00000000000E+00 0.  1.
         25    1    1    2    0    0  0.76680469156E+02 -0.13565397559E+03 -0.10123161948E+04  0.10318386374E+04  0.12500000000E+03 0.  0.
         25    1    1    2    0    0 -0.76680469156E+02  0.13565397559E+03 -0.12676128569E+04  0.12832572815E+04  0.12500000000E+03 0.  0.
</event>
<event>
 4    0  0.2134002E-002  0.2361572E+03  0.7546771E-02  0.1122380E+00
         21   -1    0    0  502  501  0.00000000000E+00  0.00000000000E+00  0.11190151778E+03  0.11190151778E+03  0.00000000000E+00 0.  1.
         21   -1    0    0  501  502 -0.00000000000E+00 -0.00000000000E+00 -0.49838679357E+03  0.49838679357E+03  0.00000000000E+00 0.  1.
         25    1    1    2    0    0  0.10792071214E+03 -0.38660772568E+02 -0.40557464647E+03  0.43961042902E+03  0.12500000000E+03 0.  0.
         25    1    1    2    0    0 -0.10792071214E+03  0.38660772568E+02  0.19089370689E+02  0.17067788233E+03  0.12500000000E+03 0.  0.
</event>
<event>
 4    0  0.2134002E-002  0.2325920E+03  0.7546771E-02  0.1124829E+00
         21   -1    0    0  502  501  0.00000000000E+00  0.00000000000E+00  0.12754616192E+03  0.12754616192E+03  0.00000000000E+00 0.  1.
         21   -1    0    0  501  502 -0.00000000000E+00 -0.00000000000E+00 -0.42415268844E+03  0.42415268844E+03  0.00000000000E+00 0.  1.
         25    1    1    2    0    0  0.16262339088E+03  0.88712913975E+02 -0.71831024895E+02  0.23473611675E+03  0.12500000000E+03 0.  0.
         25    1    1    2    0    0 -0.16262339088E+03 -0.88712913975E+02 -0.22477550163E+03  0.31696273361E+03  0.12500000000E+03 0.  0.
</event>
<event>
 4    0  0.2134002E-002  0.2136634E+03  0.7546771E-02  0.1138697E+00
         21   -1    0    0  502  501  0.00000000000E+00  0.00000000000E+00  0.36265973139E+02  0.36265973139E+02  0.00000000000E+00 0. -1.
         21   -1    0    0  501  502 -0.00000000000E+00 -0.00000000000E+00 -0.12588116359E+04  0.12588116359E+04  0.00000000000E+00 0. -1.
         25    1    1    2    0    0 -0.71743531320E+02  0.90012474891E+02 -0.10038285514E+04  0.10181091005E+04  0.12500000000E+03 0.  0.
         25    1    1    2    0    0  0.71743531320E+02 -0.90012474891E+02 -0.21871711140E+03  0.27696850857E+03  0.12500000000E+03 0.  0.
</event>
<event>
 4    0  0.2134002E-002  0.2049520E+03  0.7546771E-02  0.1145627E+00
         21   -1    0    0  502  501  0.00000000000E+00  0.00000000000E+00  0.29176900059E+03  0.29176900059E+03  0.00000000000E+00 0.  1.
         21   -1    0    0  501  502 -0.00000000000E+00 -0.00000000000E+00 -0.14396772396E+03  0.14396772396E+03  0.00000000000E+00 0.  1.
         25    1    1    2    0    0 -0.12722746045E+03 -0.65979139222E+02  0.15513833002E+03  0.24542407165E+03  0.12500000000E+03 0.  0.
         25    1    1    2    0    0  0.12722746045E+03  0.65979139222E+02 -0.73370533851E+01  0.19031265291E+03  0.12500000000E+03 0.  0.
</event>
<event>
 4    0  0.2134002E-002  0.3194902E+03  0.7546771E-02  0.1075884E+00
         21   -1    0    0  502  501  0.00000000000E+00  0.00000000000E+00  0.48886969884E+03  0.48886969884E+03  0.00000000000E+00 0. -1.
         21   -1    0    0  501  502 -0.00000000000E+00 -0.00000000000E+00 -0.20879592095E+03  0.20879592095E+03  0.00000000000E+00 0. -1.
         25    1    1    2    0    0 -0.23490119224E+03 -0.15677028499E+03  0.22936468318E+03  0.38469292983E+03  0.12500000000E+03 0.  0.
         25    1    1    2    0    0  0.23490119224E+03  0.15677028499E+03  0.50709094707E+02  0.31297268995E+03  0.12500000000E+03 0.  0.
</event>
<event>
 4    0  0.2134002E-002  0.2629888E+03  0.7546771E-02  0.1105361E+00
         21   -1    0    0  502  501  0.00000000000E+00  0.00000000000E+00  0.25247263950E+04  0.25247263950E+04  0.00000000000E+00 0. -1.
         21   -1    0    0  501  502 -0.00000000000E+00 -0.00000000000E+00 -0.27394291502E+02  0.27394291502E+02  0.00000000000E+00 0. -1.
         25    1    1    2    0    0  0.23500260308E+01 -0.85998761876E+02  0.20645023124E+03  0.25621867154E+03  0.12500000000E+03 0.  0.
         25    1    1    2    0    0 -0.23500260308E+01  0.85998761876E+02  0.22908818722E+04  0.22959020149E+04  0.12500000000E+03 0.  0.
</event>
<event>
 4    0  0.2134002E-002  0.2614532E+03  0.7546771E-02  0.1106273E+00
         21   -1    0    0  502  501  0.00000000000E+00  0.00000000000E+00  0.65442137944E+03  0.65442137944E+03  0.00000000000E+00 0. -1.
         21   -1    0    0  501  502 -0.00000000000E+00 -0.00000000000E+00 -0.10445530272E+03  0.10445530272E+03  0.00000000000E+00 0. -1.
         25    1    1    2    0    0  0.12457634751E+03  0.13962015394E+03  0.81796984246E+02  0.23943433416E+03  0.12500000000E+03 0.  0.
         25    1    1    2    0    0 -0.12457634751E+03 -0.13962015394E+03  0.46816909248E+03  0.51944234800E+03  0.12500000000E+03 0.  0.
</event>
<event>
 4    0  0.2134002E-002  0.1706538E+03  0.7546771E-02  0.1177168E+00
         21   -1    0    0  502  501  0.00000000000E+00  0.00000000000E+00  0.53296016474E+03  0.53296016474E+03  0.00000000000E+00 0.  1.
         21   -1    0    0  501  502 -0.00000000000E+00 -0.00000000000E+00 -0.54643315689E+02  0.54643315689E+02  0.00000000000E+00 0.  1.
         25    1    1    2    0    0  0.10797378034E+03 -0.15674414191E+02  0.17042945224E+03  0.23785546597E+03  0.12500000000E+03 0.  0.
         25    1    1    2    0    0 -0.10797378034E+03  0.15674414191E+02  0.30788739681E+03  0.34974801446E+03  0.12500000000E+03 0.  0.
</event>
<event>
 4    0  0.2134002E-002  0.1777362E+03  0.7546771E-02  0.1170012E+00
         21   -1    0    0  502  501  0.00000000000E+00  0.00000000000E+00  0.11050490181E+04  0.11050490181E+04  0.00000000000E+00 0. -1.
         21   -1    0    0  501  502 -0.00000000000E+00 -0.00000000000E+00 -0.28587120018E+02  0.28587120018E+02  0.00000000000E+00 0. -1.
         25    1    1    2    0    0  0.60265129676E+02  0.11098228591E+03  0.52538903470E+03  0.55462382876E+03  0.12500000000E+03 0.  0.
         25    1    1    2    0    0 -0.60265129676E+02 -0.11098228591E+03  0.55107286343E+03  0.57901230941E+03  0.12500000000E+03 0.  0.
</event>
<event>
 4    0  0.2134002E-002  0.2717122E+03  0.7546771E-02  0.1100304E+00
         21   -1    0    0  502  501  0.00000000000E+00  0.00000000000E+00  0.52379771335E+03  0.52379771335E+03  0.00000000000E+00 0. -1.
         21   -1    0    0  501  502 -0.00000000000E+00 -0.00000000000E+00 -0.14094660957E+03  0.14094660957E+03  0.00000000000E+00 0. -1.
         25    1    1    2    0    0 -0.23108802264E+03 -0.54117440556E+02  0.24435345787E+03  0.36285532097E+03  0.12500000000E+03 0.  0.
         25    1    1    2    0    0  0.23108802264E+03  0.54117440556E+02  0.13849764590E+03  0.30188900196E+03  0.12500000000E+03 0.  0.
</event>
<event>
 4    0  0.2134002E-002  0.2176634E+03  0.7546771E-02  0.1135637E+00
         21   -1    0    0  502  501  0.00000000000E+00  0.00000000000E+00  0.86655634707E+03  0.86655634707E+03  0.00000000000E+00 0.  1.
         21   -1    0    0  501  502 -0.00000000000E+00 -0.00000000000E+00 -0.54673125256E+02  0.54673125256E+02  0.00000000000E+00 0.  1.
         25    1    1    2    0    0 -0.13986916541E+03 -0.10579764785E+03  0.47272100217E+03  0.51946768102E+03  0.12500000000E+03 0.  0.
         25    1    1    2    0    0  0.13986916541E+03  0.10579764785E+03  0.33916221964E+03  0.40176179131E+03  0.12500000000E+03 0.  0.
</event>
<event>
 4    0  0.2134002E-002  0.2689572E+03  0.7546771E-02  0.1101878E+00
         21   -1    0    0  502  501  0.00000000000E+00  0.00000000000E+00  0.92134592005E+03  0.92134592005E+03  0.00000000000E+00 0. -1.
         21   -1    0    0  501  502 -0.00000000000E+00 -0.00000000000E+00 -0.78513369010E+02  0.78513369010E+02  0.00000000000E+00 0. -1.
         25    1    1    2    0    0 -0.11083257291E+03  0.50141767008E+02  0.40867765450E+02  0.17914583520E+03  0.12500000000E+03 0.  0.
         25    1    1    2    0    0  0.11083257291E+03 -0.50141767008E+02  0.80196478558E+03  0.82071345385E+03  0.12500000000E+03 0.  0.
</event>
<event>
 4    0  0.2134002E-002  0.3414868E+03  0.7546771E-02  0.1066164E+00
         21   -1    0    0  502  501  0.00000000000E+00  0.00000000000E+00  0.33875027695E+03  0.33875027695E+03  0.00000000000E+00 0.  1.
         21   -1    0    0  501  502 -0.00000000000E+00 -0.00000000000E+00 -0.34424552103E+03  0.34424552103E+03  0.00000000000E+00 0.  1.
         25    1    1    2    0    0  0.31610908374E+01 -0.30162314125E+02  0.31359868541E+03  0.33895264150E+03  0.12500000000E+03 0.  0.
         25    1    1    2    0    0 -0.31610908374E+01  0.30162314125E+02 -0.31909392948E+03  0.34404315648E+03  0.12500000000E+03 0.  0.
</event>
<event>
 4    0  0.2134002E-002  0.3712596E+03  0.7546771E-02  0.1054212E+00
         21   -1    0    0  502  501  0.00000000000E+00  0.00000000000E+00  0.12442134477E+04  0.12442134477E+04  0.00000000000E+00 0. -1.
         21   -1    0    0  501  502 -0.00000000000E+00 -0.00000000000E+00 -0.11077976430E+03  0.11077976430E+03  0.00000000000E+00 0. -1.
         25    1    1    2    0    0  0.33106212690E+03 -0.91701502613E+02  0.44848938508E+03  0.57860092117E+03  0.12500000000E+03 0.  0.
         25    1    1    2    0    0 -0.33106212690E+03  0.91701502613E+02  0.68494429830E+03  0.77639229081E+03  0.12500000000E+03 0.  0.
</event>
<event>
 4    0  0.2134002E-002  0.2300927E+03  0.7546771E-02  0.1126575E+00
         21   -1    0    0  502  501  0.00000000000E+00  0.00000000000E+00  0.86583229389E+03  0.86583229389E+03  0.00000000000E+00 0. -1.
         21   -1    0    0  501  502 -0.00000000000E+00 -0.00000000000E+00 -0.61146537515E+02  0.61146537515E+02  0.00000000000E+00 0. -1.
         25    1    1    2    0    0  0.18965948950E+03 -0.43629112574E+01  0.47574659107E+03  0.52720923348E+03  0.12500000000E+03 0.  0.
         25    1    1    2    0    0 -0.18965948950E+03  0.43629112574E+01  0.32893916531E+03  0.39976959793E+03  0.12500000000E+03 0.  0.
</event>
<event>
 4    0  0.2134002E-002  0.2499683E+03  0.7546771E-02  0.1113325E+00
         21   -1    0    0  502  501  0.00000000000E+00  0.00000000000E+00  0.17916457901E+03  0.17916457901E+03  0.00000000000E+00 0.  1.
         21   -1    0    0  501  502 -0.00000000000E+00 -0.00000000000E+00 -0.34875273661E+03  0.34875273661E+03  0.00000000000E+00 0.  1.
         25    1    1    2    0    0 -0.37189710104E+02  0.50633004315E+02  0.13395298402E+03  0.19368835172E+03  0.12500000000E+03 0.  0.
         25    1    1    2    0    0  0.37189710104E+02 -0.50633004315E+02 -0.30354114161E+03  0.33422896391E+03  0.12500000000E+03 0.  0.
</event>
<event>
 4    0  0.2134002E-002  0.2614306E+03  0.7546771E-02  0.1106287E+00
         21   -1    0    0  502  501  0.00000000000E+00  0.00000000000E+00  0.25266011849E+03  0.25266011849E+03  0.00000000000E+00 0.  1.
         21   -1    0    0  501  502 -0.00000000000E+00 -0.00000000000E+00 -0.27050546501E+03  0.27050546501E+03  0.00000000000E+00 0.  1.
         25    1    1    2    0    0 -0.20037831934E+03 -0.11198160509E+03 -0.14365702954E+02  0.26176845525E+03  0.12500000000E+03 0.  0.
         25    1    1    2    0    0  0.20037831934E+03  0.11198160509E+03 -0.34796435585E+01  0.26139712825E+03  0.12500000000E+03 0.  0.
</event>
<event>
 4    0  0.2134002E-002  0.3047696E+03  0.7546771E-02  0.1082880E+00
         21   -1    0    0  502  501  0.00000000000E+00  0.00000000000E+00  0.11222809472E+04  0.11222809472E+04  0.00000000000E+00 0.  1.
         21   -1    0    0  501  502 -0.00000000000E+00 -0.00000000000E+00 -0.82764047498E+02  0.82764047498E+02  0.00000000000E+00 0.  1.
         25    1    1    2    0    0  0.14220551821E+01 -0.37689806431E+02  0.10641885120E+04  0.10721682390E+04  0.12500000000E+03 0.  0.
         25    1    1    2    0    0 -0.14220551821E+01  0.37689806431E+02 -0.24671612263E+02  0.13287675569E+03  0.12500000000E+03 0.  0.
</event>
<event>
 4    0  0.2134002E-002  0.1933591E+03  0.7546771E-02  0.1155466E+00
         21   -1    0    0  502  501  0.00000000000E+00  0.00000000000E+00  0.49137956820E+02  0.49137956820E+02  0.00000000000E+00 0. -1.
         21   -1    0    0  501  502 -0.00000000000E+00 -0.00000000000E+00 -0.76087298400E+03  0.76087298400E+03  0.00000000000E+00 0. -1.
         25    1    1    2    0    0  0.98561229445E+02  0.78639425695E+02 -0.19546794811E+03  0.26406664682E+03  0.12500000000E+03 0.  0.
         25    1    1    2    0    0 -0.98561229445E+02 -0.78639425695E+02 -0.51626707906E+03  0.54594429400E+03  0.12500000000E+03 0.  0.
</event>
<event>
 4    0  0.2134002E-002  0.2169131E+03  0.7546771E-02  0.1136206E+00
         21   -1    0    0  502  501  0.00000000000E+00  0.00000000000E+00  0.10800710096E+03  0.10800710096E+03  0.00000000000E+00 0. -1.
         21   -1    0    0  501  502 -0.00000000000E+00 -0.00000000000E+00 -0.43563165834E+03  0.43563165834E+03  0.00000000000E+00 0. -1.
         25    1    1    2    0    0  0.10933395717E+03  0.10762327877E+03 -0.52505192510E+02  0.20474002922E+03  0.12500000000E+03 0.  0.
         25    1    1    2    0    0 -0.10933395717E+03 -0.10762327877E+03 -0.27511936487E+03  0.33889873008E+03  0.12500000000E+03 0.  0.
</event>
<event>
 4    0  0.2134002E-002  0.2243788E+03  0.7546771E-02  0.1130660E+00
         21   -1    0    0  502  501  0.00000000000E+00  0.00000000000E+00  0.26313902958E+03  0.26313902958E+03  0.00000000000E+00 0. -1.
         21   -1    0    0  501  502 -0.00000000000E+00 -0.00000000000E+00 -0.19132799377E+03  0.19132799377E+03  0.00000000000E+00 0. -1.
         25    1    1    2    0    0 -0.43610236702E+02  0.64748930929E+02  0.20725202832E+03  0.25430823825E+03  0.12500000000E+03 0.  0.
         25    1    1    2    0    0  0.43610236702E+02 -0.64748930929E+02 -0.13544099250E+03  0.20015878510E+03  0.12500000000E+03 0.  0.
</event>
<event>
 4    0  0.2134002E-002  0.2882369E+03  0.7546771E-02  0.1091273E+00
         21   -1    0    0  502  501  0.00000000000E+00  0.00000000000E+00  0.46264053226E+02  0.46264053226E+02  0.00000000000E+00 0. -1.
         21   -1    0    0  501  502 -0.00000000000E+00 -0.00000000000E+00 -0.17957890991E+04  0.17957890991E+04  0.00000000000E+00 0. -1.
         25    1    1    2    0    0  0.16110191866E+03  0.16319188637E+03 -0.12644164466E+04  0.12911078074E+04  0.12500000000E+03 0.  0.
         25    1    1    2    0    0 -0.16110191866E+03 -0.16319188637E+03 -0.48510859930E+03  0.55094534492E+03  0.12500000000E+03 0.  0.
</event>
<event>
 4    0  0.2134002E-002  0.1724126E+03  0.7546771E-02  0.1175355E+00
         21   -1    0    0  502  501  0.00000000000E+00  0.00000000000E+00  0.13748982579E+03  0.13748982579E+03  0.00000000000E+00 0. -1.
         21   -1    0    0  501  502 -0.00000000000E+00 -0.00000000000E+00 -0.21620575354E+03  0.21620575354E+03  0.00000000000E+00 0. -1.
         25    1    1    2    0    0  0.65238979078E+02 -0.99184698707E+02 -0.36574762683E+02  0.17622838056E+03  0.12500000000E+03 0.  0.
         25    1    1    2    0    0 -0.65238979078E+02  0.99184698707E+02 -0.42141165066E+02  0.17746719878E+03  0.12500000000E+03 0.  0.
</event>
<event>
 4    0  0.2134002E-002  0.3061955E+03  0.7546771E-02  0.1082184E+00
         21   -1    0    0  502  501  0.00000000000E+00  0.00000000000E+00  0.38669055976E+02  0.38669055976E+02  0.00000000000E+00 0.  1.
         21   -1    0    0  501  502 -0.00000000000E+00 -0.00000000000E+00 -0.24245656906E+04  0.24245656906E+04  0.00000000000E+00 0.  1.
         25    1    1    2    0    0  0.10284170124E+03 -0.21255721092E+02 -0.22348967290E+04  0.22408517601E+04  0.12500000000E+03 0.  0.
         25    1    1    2    0    0 -0.10284170124E+03  0.21255721092E+02 -0.15099990557E+03  0.22238298648E+03  0.12500000000E+03 0.  0.
</event>
<event>
 4    0  0.2134002E-002  0.3013472E+03  0.7546771E-02  0.1084569E+00
         21   -1    0    0  502  501  0.00000000000E+00  0.00000000000E+00  0.22382049155E+04  0.22382049155E+04  0.00000000000E+00 0.  1.
         21   -1    0    0  501  502 -0.00000000000E+00 -0.00000000000E+00 -0.40572758864E+02  0.40572758864E+02  0.00000000000E+00 0.  1.
         25    1    1    2    0    0  0.67299986551E+02  0.14502524281E+03  0.19410808471E+04  0.19516612063E+04  0.12500000000E+03 0.  0.
         25    1    1    2    0    0 -0.67299986551E+02 -0.14502524281E+03  0.25655130951E+03  0.32711646803E+03  0.12500000000E+03 0.  0.
</event>
<event>
 4    0  0.2134002E-002  0.2429152E+03  0.7546771E-02  0.1117866E+00
         21   -1    0    0  502  501  0.00000000000E+00  0.00000000000E+00  0.17608934793E+03  0.17608934793E+03  0.00000000000E+00 0.  1.
         21   -1    0    0  501  502 -0.00000000000E+00 -0.00000000000E+00 -0.33510139943E+03  0.33510139943E+03  0.00000000000E+00 0.  1.
         25    1    1    2    0    0 -0.46988598508E+02 -0.87778657064E+02 -0.27200333474E+03  0.31547398488E+03  0.12500000000E+03 0.  0.
         25    1    1    2    0    0  0.46988598508E+02  0.87778657064E+02  0.11299128324E+03  0.19571676247E+03  0.12500000000E+03 0.  0.
</event>
<event>
 4    0  0.2134002E-002  0.3092084E+03  0.7546771E-02  0.1080726E+00
         21   -1    0    0  502  501  0.00000000000E+00  0.00000000000E+00  0.23319852207E+03  0.23319852207E+03  0.00000000000E+00 0.  1.
         21   -1    0    0  501  502 -0.00000000000E+00 -0.00000000000E+00 -0.40999328847E+03  0.40999328847E+03  0.00000000000E+00 0.  1.
         25    1    1    2    0    0  0.24601851431E+03 -0.12636195339E+03 -0.14986123242E+03  0.33849053404E+03  0.12500000000E+03 0.  0.
         25    1    1    2    0    0 -0.24601851431E+03  0.12636195339E+03 -0.26933533983E+02  0.30470127650E+03  0.12500000000E+03 0.  0.
</event>
<event>
 4    0  0.2134002E-002  0.2086279E+03  0.7546771E-02  0.1142657E+00
         21   -1    0    0  502  501  0.00000000000E+00  0.00000000000E+00  0.18890822206E+02  0.18890822206E+02  0.00000000000E+00 0. -1.
         21   -1    0    0  501  502 -0.00000000000E+00 -0.00000000000E+00 -0.23040613790E+04  0.23040613790E+04  0.00000000000E+00 0. -1.
         25    1    1    2    0    0  0.57569261855E+02  0.35378892982E+02 -0.19930164998E+04  0.19980754876E+04  0.12500000000E+03 0.  0.
         25    1    1    2    0    0 -0.57569261855E+02 -0.35378892982E+02 -0.29215405705E+03  0.32487671359E+03  0.12500000000E+03 0.  0.
</event>
<event>
 4    0  0.2134002E-002  0.3768803E+03  0.7546771E-02  0.1052093E+00
         21   -1    0    0  502  501  0.00000000000E+00  0.00000000000E+00  0.50605435942E+03  0.50605435942E+03  0.00000000000E+00 0. -1.
         21   -1    0    0  501  502 -0.00000000000E+00 -0.00000000000E+00 -0.28067880679E+03  0.28067880679E+03  0.00000000000E+00 0.  1.
         25    1    1    2    0    0  0.34227372408E+03  0.22890394662E+02  0.15118843740E+02  0.36541599828E+03  0.12500000000E+03 0.  0.
         25    1    1    2    0    0 -0.34227372408E+03 -0.22890394662E+02  0.21025670890E+03  0.42131716793E+03  0.12500000000E+03 0.  0.
</event>
<event>
 4    0  0.2134002E-002  0.1368705E+03  0.7546771E-02  0.1217603E+00
         21   -1    0    0  502  501  0.00000000000E+00  0.00000000000E+00  0.54683174130E+02  0.54683174130E+02  0.00000000000E+00 0. -1.
         21   -1    0    0  501  502 -0.00000000000E+00 -0.00000000000E+00 -0.34258292934E+03  0.34258292934E+03  0.00000000000E+00 0. -1.
         25    1    1    2    0    0 -0.21850483189E+02 -0.46033802296E+02 -0.17678683850E+03  0.22243008078E+03  0.12500000000E+03 0.  0.
         25    1    1    2    0    0  0.21850483189E+02  0.46033802296E+02 -0.11111291671E+03  0.17483602269E+03  0.12500000000E+03 0.  0.
</event>
<event>
 4    0  0.2134002E-002  0.1663813E+03  0.7546771E-02  0.1181675E+00
         21   -1    0    0  502  501  0.00000000000E+00  0.00000000000E+00  0.37791285347E+03  0.37791285347E+03  0.00000000000E+00 0. -1.
         21   -1    0    0  501  502 -0.00000000000E+00 -0.00000000000E+00 -0.73251628886E+02  0.73251628886E+02  0.00000000000E+00 0. -1.
         25    1    1    2    0    0  0.98933512318E+02 -0.43834858520E+02  0.17763745075E+03  0.24267137983E+03  0.12500000000E+03 0.  0.
         25    1    1    2    0    0 -0.98933512318E+02  0.43834858520E+02  0.12702377384E+03  0.20849310253E+03  0.12500000000E+03 0.  0.
</event>
<event>
 4    0  0.2134002E-002  0.1599632E+03  0.7546771E-02  0.1188738E+00
         21   -1    0    0  502  501  0.00000000000E+00  0.00000000000E+00  0.39887215714E+03  0.39887215714E+03  0.00000000000E+00 0. -1.
         21   -1    0    0  501  502 -0.00000000000E+00 -0.00000000000E+00 -0.64151432249E+02  0.64151432249E+02  0.00000000000E+00 0. -1.
         25    1    1    2    0    0  0.24705374499E+02 -0.85084844887E+02  0.23389494054E+03  0.27960978089E+03  0.12500000000E+03 0.  0.
         25    1    1    2    0    0 -0.24705374499E+02  0.85084844887E+02  0.10082578435E+03  0.18341380850E+03  0.12500000000E+03 0.  0.
</event>
<event>
 4    0  0.2134002E-002  0.2094908E+03  0.7546771E-02  0.1141970E+00
         21   -1    0    0  502  501  0.00000000000E+00  0.00000000000E+00  0.67390956251E+02  0.67390956251E+02  0.00000000000E+00 0.  1.
         21   -1    0    0  501  502 -0.00000000000E+00 -0.00000000000E+00 -0.65122107818E+03  0.65122107818E+03  0.00000000000E+00 0.  1.
         25    1    1    2    0    0  0.15241524030E+03  0.15559571826E+02 -0.17322411610E+03  0.26287658730E+03  0.12500000000E+03 0.  0.
         25    1    1    2    0    0 -0.15241524030E+03 -0.15559571826E+02 -0.41060600582E+03  0.45573544713E+03  0.12500000000E+03 0.  0.
</event>
<event>
 4    0  0.2134002E-002  0.4328785E+03  0.7546771E-02  0.1032954E+00
         21   -1    0    0  502  501  0.00000000000E+00  0.00000000000E+00  0.70921478635E+03  0.70921478635E+03  0.00000000000E+00 0.  1.
         21   -1    0    0  501  502 -0.00000000000E+00 -0.00000000000E+00 -0.26421308567E+03  0.26421308567E+03  0.00000000000E+00 0.  1.
         25    1    1    2    0    0  0.33986243786E+03  0.18973247518E+03  0.62485196497E+02  0.41356291974E+03  0.12500000000E+03 0.  0.
         25    1    1    2    0    0 -0.33986243786E+03 -0.18973247518E+03  0.38251650418E+03  0.55986495227E+03  0.12500000000E+03 0.  0.
</event>
<event>
 4    0  0.2134002E-002  0.2378266E+03  0.7546771E-02  0.1121249E+00
         21   -1    0    0  502  501  0.00000000000E+00  0.00000000000E+00  0.18252018238E+03  0.18252018238E+03  0.00000000000E+00 0.  1.
         21   -1    0    0  501  502 -0.00000000000E+00 -0.00000000000E+00 -0.30989168853E+03  0.30989168853E+03  0.00000000000E+00 0.  1.
         25    1    1    2    0    0  0.10239976044E+03 -0.59776978737E+02  0.10603402564E+03  0.20230475209E+03  0.12500000000E+03 0.  0.
         25    1    1    2    0    0 -0.10239976044E+03  0.59776978737E+02 -0.23340553178E+03  0.29010711882E+03  0.12500000000E+03 0.  0.
</event>
<event>
 4    0  0.2134002E-002  0.1533175E+03  0.7546771E-02  0.1196455E+00
         21   -1    0    0  502  501  0.00000000000E+00  0.00000000000E+00  0.12555258137E+03  0.12555258137E+03  0.00000000000E+00 0.  1.
         21   -1    0    0  501  502 -0.00000000000E+00 -0.00000000000E+00 -0.18722235358E+03  0.18722235358E+03  0.00000000000E+00 0.  1.
         25    1    1    2    0    0 -0.63306916006E+02 -0.32728605940E+02 -0.84831848843E+02  0.16703403797E+03  0.12500000000E+03 0.  0.
         25    1    1    2    0    0  0.63306916006E+02  0.32728605940E+02  0.23162076637E+02  0.14574089699E+03  0.12500000000E+03 0.  0.
</event>
<event>
 4    0  0.2134002E-002  0.1968462E+03  0.7546771E-02  0.1152427E+00
         21   -1    0    0  502  501  0.00000000000E+00  0.00000000000E+00  0.18541973709E+03  0.18541973709E+03  0.00000000000E+00 0. -1.
         21   -1    0    0  501  502 -0.00000000000E+00 -0.00000000000E+00 -0.20897678757E+03  0.20897678757E+03  0.00000000000E+00 0. -1.
         25    1    1    2    0    0  0.12017855321E+03 -0.88570402925E+02  0.17183736896E+02  0.19546836506E+03  0.12500000000E+03 0.  0.
         25    1    1    2    0    0 -0.12017855321E+03  0.88570402925E+02 -0.40740787368E+02  0.19892815960E+03  0.12500000000E+03 0.  0.
</event>
<event>
 4    0  0.2134002E-002  0.1867874E+03  0.7546771E-02  0.1161391E+00
         21   -1    0    0  502  501  0.00000000000E+00  0.00000000000E+00  0.35273446348E+03  0.35273446348E+03  0.00000000000E+00 0. -1.
         21   -1    0    0  501  502 -0.00000000000E+00 -0.00000000000E+00 -0.98911583281E+02  0.98911583281E+02  0.00000000000E+00 0. -1.
         25    1    1    2    0    0  0.11518364717E+00  0.65376202889E+02  0.27493410492E+03  0.30901104061E+03  0.12500000000E+03 0.  0.
         25    1    1    2    0    0 -0.11518364717E+00 -0.65376202889E+02 -0.21111224717E+02  0.14263500615E+03  0.12500000000E+03 0.  0.
</event>
<event>
 4    0  0.2134002E-002  0.2437307E+03  0.7546771E-02  0.1117332E+00
         21   -1    0    0  502  501  0.00000000000E+00  0.00000000000E+00  0.70083190730E+03  0.70083190730E+03  0.00000000000E+00 0. -1.
         21   -1    0    0  501  502 -0.00000000000E+00 -0.00000000000E+00 -0.84763070502E+02  0.84763070502E+02  0.00000000000E+00 0. -1.
         25    1    1    2    0    0  0.11149841776E+03  0.10994025985E+03  0.53169878050E+03  0.56819657786E+03  0.12500000000E+03 0.  0.
         25    1    1    2    0    0 -0.11149841776E+03 -0.10994025985E+03  0.84370056289E+02  0.21739839994E+03  0.12500000000E+03 0.  0.
</event>
<event>
 4    0  0.2134002E-002  0.2218831E+03  0.7546771E-02  0.1132487E+00
         21   -1    0    0  502  501  0.00000000000E+00  0.00000000000E+00  0.41122076069E+03  0.41122076069E+03  0.00000000000E+00 0.  1.
         21   -1    0    0  501  502 -0.00000000000E+00 -0.00000000000E+00 -0.11972186999E+03  0.11972186999E+03  0.00000000000E+00 0.  1.
         25    1    1    2    0    0 -0.22868647293E+02  0.32891558908E+02 -0.68285092666E+02  0.14796176383E+03  0.12500000000E+03 0.  0.
         25    1    1    2    0    0  0.22868647293E+02 -0.32891558908E+02  0.35978398337E+03  0.38298086684E+03  0.12500000000E+03 0.  0.
</event>
<event>
 4    0  0.2134002E-002  0.2739720E+03  0.7546771E-02  0.1099028E+00
         21   -1    0    0  502  501  0.00000000000E+00  0.00000000000E+00  0.12606454563E+03  0.12606454563E+03  0.00000000000E+00 0.  1.
         21   -1    0    0  501  502 -0.00000000000E+00 -0.00000000000E+00 -0.59541438000E+03  0.59541438000E+03  0.00000000000E+00 0.  1.
         25    1    1    2    0    0  0.26734385605E+02 -0.42639035618E+02 -0.54876515668E+03  0.56506726318E+03  0.12500000000E+03 0.  0.
         25    1    1    2    0    0 -0.26734385605E+02  0.42639035618E+02  0.79415322306E+02  0.15641166245E+03  0.12500000000E+03 0.  0.
</event>
<event>
 4    0  0.2134002E-002  0.1822766E+03  0.7546771E-02  0.1165618E+00
         21   -1    0    0  502  501  0.00000000000E+00  0.00000000000E+00  0.49671776636E+02  0.49671776636E+02  0.00000000000E+00 0. -1.
         21   -1    0    0  501  502 -0.00000000000E+00 -0.00000000000E+00 -0.66888604810E+03  0.66888604810E+03  0.00000000000E+00 0. -1.
         25    1    1    2    0    0 -0.10764406687E+03 -0.70061905510E+02 -0.37509403006E+03  0.41571197616E+03  0.12500000000E+03 0.  0.
         25    1    1    2    0    0  0.10764406687E+03  0.70061905510E+02 -0.24412024140E+03  0.30284584857E+03  0.12500000000E+03 0.  0.
</event>
<event>
 4    0  0.2134002E-002  0.1477584E+03  0.7546771E-02  0.1203255E+00
         21   -1    0    0  502  501  0.00000000000E+00  0.00000000000E+00  0.70275320782E+02  0.70275320782E+02  0.00000000000E+00 0. -1.
         21   -1    0    0  501  502 -0.00000000000E+00 -0.00000000000E+00 -0.31067161216E+03  0.31067161216E+03  0.00000000000E+00 0. -1.
         25    1    1    2    0    0 -0.67066861567E+02  0.41052776102E+02 -0.12654653755E+03  0.19447961464E+03  0.12500000000E+03 0.  0.
         25    1    1    2    0    0  0.67066861567E+02 -0.41052776102E+02 -0.11384975382E+03  0.18646731829E+03  0.12500000000E+03 0.  0.
</event>
<event>
 4    0  0.2134002E-002  0.1493568E+03  0.7546771E-02  0.1201266E+00
         21   -1    0    0  502  501  0.00000000000E+00  0.00000000000E+00  0.83714078968E+03  0.83714078968E+03  0.00000000000E+00 0.  1.
         21   -1    0    0  501  502 -0.00000000000E+00 -0.00000000000E+00 -0.26647187463E+02  0.26647187463E+02  0.00000000000E+00 0.  1.
         25    1    1    2    0    0 -0.26591158040E+02  0.69373495015E+02  0.30664574110E+03  0.33937646063E+03  0.12500000000E+03 0.  0.
         25    1    1    2    0    0  0.26591158040E+02 -0.69373495015E+02  0.50384786111E+03  0.52441151651E+03  0.12500000000E+03 0.  0.
</event>
<event>
 4    0  0.2134002E-002  0.3034341E+03  0.7546771E-02  0.1083536E+00
         21   -1    0    0  502  501  0.00000000000E+00  0.00000000000E+00  0.57238630399E+03  0.57238630399E+03  0.00000000000E+00 0.  1.
         21   -1    0    0  501  502 -0.00000000000E+00 -0.00000000000E+00 -0.16085682281E+03  0.16085682281E+03  0.00000000000E+00 0.  1.
         25    1    1    2    0    0 -0.23468444320E+03 -0.38899604672E+02  0.37602507104E+03  0.46217942531E+03  0.12500000000E+03 0.  0.
         25    1    1    2    0    0  0.23468444320E+03  0.38899604672E+02  0.35504410144E+02  0.27106370149E+03  0.12500000000E+03 0.  0.
</event>
<event>
 4    0  0.2134002E-002  0.1909582E+03  0.7546771E-02  0.1157600E+00
         21   -1    0    0  502  501  0.00000000000E+00  0.00000000000E+00  0.71438582262E+03  0.71438582262E+03  0.00000000000E+00 0. -1.
         21   -1    0    0  501  502 -0.00000000000E+00 -0.00000000000E+00 -0.51043889146E+02  0.51043889146E+02  0.00000000000E+00 0. -1.
         25    1    1    2    0    0  0.23832338445E+02 -0.51103900785E+02  0.65330099584E+02  0.15189671143E+03  0.12500000000E+03 0.  0.
         25    1    1    2    0    0 -0.23832338445E+02  0.51103900785E+02  0.59801183389E+03  0.61353300033E+03  0.12500000000E+03 0.  0.
</event>
<event>
 4    0  0.2134002E-002  0.2229962E+03  0.7546771E-02  0.1131669E+00
         21   -1    0    0  502  501  0.00000000000E+00  0.00000000000E+00  0.66543909444E+02  0.66543909444E+02  0.00000000000E+00 0.  1.
         21   -1    0    0  501  502 -0.00000000000E+00 -0.00000000000E+00 -0.74728546058E+03  0.74728546058E+03  0.00000000000E+00 0.  1.
         25    1    1    2    0    0  0.17215457426E+02  0.18365506434E+03 -0.32438547656E+03  0.39354350717E+03  0.12500000000E+03 0.  0.
         25    1    1    2    0    0 -0.17215457426E+02 -0.18365506434E+03 -0.35635607457E+03  0.42028586286E+03  0.12500000000E+03 0.  0.
</event>
<event>
 4    0  0.2134002E-002  0.2490473E+03  0.7546771E-02  0.1113908E+00
         21   -1    0    0  502  501  0.00000000000E+00  0.00000000000E+00  0.19429089385E+03  0.19429089385E+03  0.00000000000E+00 0. -1.
         21   -1    0    0  501  502 -0.00000000000E+00 -0.00000000000E+00 -0.31923546066E+03  0.31923546066E+03  0.00000000000E+00 0. -1.
         25    1    1    2    0    0 -0.19287970237E+03  0.93987851310E+02 -0.82121810559E+02  0.26154404514E+03  0.12500000000E+03 0.  0.
         25    1    1    2    0    0  0.19287970237E+03 -0.93987851310E+02 -0.42822756253E+02  0.25198230937E+03  0.12500000000E+03 0.  0.
</event>
<event>
 4    0  0.2134002E-002  0.2146924E+03  0.7546771E-02  0.1137903E+00
         21   -1    0    0  502  501  0.00000000000E+00  0.00000000000E+00  0.66737458488E+02  0.66737458488E+02  0.00000000000E+00 0.  1.
         21   -1    0    0  501  502 -0.00000000000E+00 -0.00000000000E+00 -0.69065922219E+03  0.69065922219E+03  0.00000000000E+00 0.  1.
         25    1    1    2    0    0  0.14275965625E+03  0.98599910257E+02 -0.27823467274E+03  0.35091565207E+03  0.12500000000E+03 0.  0.
         25    1    1    2    0    0 -0.14275965625E+03 -0.98599910257E+02 -0.34568709096E+03  0.40648102860E+03  0.12500000000E+03 0.  0.
</event>
<event>
 4    0  0.2134002E-002  0.2204652E+03  0.7546771E-02  0.1133537E+00
         21   -1    0    0  502  501  0.00000000000E+00  0.00000000000E+00  0.71672641357E+02  0.71672641357E+02  0.00000000000E+00 0. -1.
         21   -1    0    0  501  502 -0.00000000000E+00 -0.00000000000E+00 -0.67815123966E+03  0.67815123966E+03  0.00000000000E+00 0. -1.
         25    1    1    2    0    0 -0.16094236694E+03 -0.45694001904E+02 -0.42336002409E+03  0.47206895395E+03  0.12500000000E+03 0.  0.
         25    1    1    2    0    0  0.16094236694E+03  0.45694001904E+02 -0.18311857420E+03  0.27775492706E+03  0.12500000000E+03 0.  0.
</event>
<event>
 4    0  0.2134002E-002  0.3606263E+03  0.7546771E-02  0.1058336E+00
         21   -1    0    0  502  501  0.00000000000E+00  0.00000000000E+00  0.75826815121E+02  0.75826815121E+02  0.00000000000E+00 0. -1.
         21   -1    0    0  501  502 -0.00000000000E+00 -0.00000000000E+00 -0.17151098588E+04  0.17151098588E+04  0.00000000000E+00 0. -1.
         25    1    1    2    0    0  0.89463900914E+02  0.32500929988E+03 -0.88949914684E+03  0.95941053090E+03  0.12500000000E+03 0.  0.
         25    1    1    2    0    0 -0.89463900914E+02 -0.32500929988E+03 -0.74978389686E+03  0.83152614304E+03  0.12500000000E+03 0.  0.
</event>
<event>
 4    0  0.2134002E-002  0.2015690E+03  0.7546771E-02  0.1148422E+00
         21   -1    0    0  502  501  0.00000000000E+00  0.00000000000E+00  0.20319378293E+02  0.20319378293E+02  0.00000000000E+00 0.  1.
         21   -1    0    0  501  502 -0.00000000000E+00 -0.00000000000E+00 -0.19995711021E+04  0.19995711021E+04  0.00000000000E+00 0.  1.
         25    1    1    2    0    0  0.64349630028E+02 -0.84794488374E+02 -0.15755251327E+04  0.15840566353E+04  0.12500000000E+03 0.  0.
         25    1    1    2    0    0 -0.64349630028E+02  0.84794488374E+02 -0.40372659113E+03  0.43583384510E+03  0.12500000000E+03 0.  0.
</event>
<event>
 4    0  0.2134002E-002  0.1613411E+03  0.7546771E-02  0.1187191E+00
         21   -1    0    0  502  501  0.00000000000E+00  0.00000000000E+00  0.20254248313E+03  0.20254248313E+03  0.00000000000E+00 0.  1.
         21   -1    0    0  501  502 -0.00000000000E+00 -0.00000000000E+00 -0.12852101923E+03  0.12852101923E+03  0.00000000000E+00 0.  1.
         25    1    1    2    0    0 -0.28205102092E+02  0.88126704836E+02 -0.70479037547E+01  0.15568081718E+03  0.12500000000E+03 0.  0.
         25    1    1    2    0    0  0.28205102092E+02 -0.88126704836E+02  0.81069367651E+02  0.17538268518E+03  0.12500000000E+03 0.  0.
</event>
<event>
 4    0  0.2134002E-002  0.5093586E+03  0.7546771E-02  0.1011365E+00
         21   -1    0    0  502  501  0.00000000000E+00  0.00000000000E+00  0.36510357532E+03  0.36510357532E+03  0.00000000000E+00 0.  1.
         21   -1    0    0  501  502 -0.00000000000E+00 -0.00000000000E+00 -0.71060982962E+03  0.71060982962E+03  0.00000000000E+00 0.  1.
         25    1    1    2    0    0  0.19258103260E+03 -0.17290349885E+00 -0.65287178251E+03  0.69206506082E+03  0.12500000000E+03 0.  0.
         25    1    1    2    0    0 -0.19258103260E+03  0.17290349885E+00  0.30736552821E+03  0.38364834412E+03  0.12500000000E+03 0.  0.
</event>
<event>
 4    0  0.2134002E-002  0.1881554E+03  0.7546771E-02  0.1160136E+00
         21   -1    0    0  502  501  0.00000000000E+00  0.00000000000E+00  0.19957836727E+03  0.19957836727E+03  0.00000000000E+00 0.  1.
         21   -1    0    0  501  502 -0.00000000000E+00 -0.00000000000E+00 -0.17738621006E+03  0.17738621006E+03  0.00000000000E+00 0.  1.
         25    1    1    2    0    0  0.35970103183E+02  0.75578540453E+02  0.12430342320E+03  0.19514688088E+03  0.12500000000E+03 0.  0.
         25    1    1    2    0    0 -0.35970103183E+02 -0.75578540453E+02 -0.10211126598E+03  0.18181769644E+03  0.12500000000E+03 0.  0.
</event>
<event>
 4    0  0.2134002E-002  0.2101683E+03  0.7546771E-02  0.1141433E+00
         21   -1    0    0  502  501  0.00000000000E+00  0.00000000000E+00  0.41691376599E+03  0.41691376599E+03  0.00000000000E+00 0.  1.
         21   -1    0    0  501  502 -0.00000000000E+00 -0.00000000000E+00 -0.10594684707E+03  0.10594684707E+03  0.00000000000E+00 0.  1.
         25    1    1    2    0    0 -0.16283355267E+03  0.43807210188E+02  0.16863961641E+03  0.26925481939E+03  0.12500000000E+03 0.  0.
         25    1    1    2    0    0  0.16283355267E+03 -0.43807210188E+02  0.14232730251E+03  0.25360579367E+03  0.12500000000E+03 0.  0.
</event>
<event>
 4    0  0.2134002E-002  0.1626640E+03  0.7546771E-02  0.1185722E+00
         21   -1    0    0  502  501  0.00000000000E+00  0.00000000000E+00  0.30690067719E+02  0.30690067719E+02  0.00000000000E+00 0.  1.
         21   -1    0    0  501  502 -0.00000000000E+00 -0.00000000000E+00 -0.86215461727E+03  0.86215461727E+03  0.00000000000E+00 0.  1.
         25    1    1    2    0    0 -0.65388645199E+02  0.25290317655E+02 -0.62688170162E+03  0.64305594074E+03  0.12500000000E+03 0.  0.
         25    1    1    2    0    0  0.65388645199E+02 -0.25290317655E+02 -0.20458284793E+03  0.24978874425E+03  0.12500000000E+03 0.  0.
</event>
<event>
 4    0  0.2134002E-002  0.2121268E+03  0.7546771E-02  0.1139893E+00
         21   -1    0    0  502  501  0.00000000000E+00  0.00000000000E+00  0.22303887507E+03  0.22303887507E+03  0.00000000000E+00 0. -1.
         21   -1    0    0  501  502 -0.00000000000E+00 -0.00000000000E+00 -0.20174861229E+03  0.20174861229E+03  0.00000000000E+00 0. -1.
         25    1    1    2    0    0 -0.11455775318E+03  0.11834164852E+03  0.58081525252E+02  0.21477124613E+03  0.12500000000E+03 0.  0.
         25    1    1    2    0    0  0.11455775318E+03 -0.11834164852E+03 -0.36791262471E+02  0.21001624123E+03  0.12500000000E+03 0.  0.
</event>
<event>
 4    0  0.2134002E-002  0.1901502E+03  0.7546771E-02  0.1158326E+00
         21   -1    0    0  502  501  0.00000000000E+00  0.00000000000E+00  0.14602170758E+03  0.14602170758E+03  0.00000000000E+00 0.  1.
         21   -1    0    0  501  502 -0.00000000000E+00 -0.00000000000E+00 -0.24761452655E+03  0.24761452655E+03  0.00000000000E+00 0.  1.
         25    1    1    2    0    0  0.58743483625E+02 -0.13044045075E+03 -0.42350118278E+02  0.19463823000E+03  0.12500000000E+03 0.  0.
         25    1    1    2    0    0 -0.58743483625E+02  0.13044045075E+03 -0.59242700691E+02  0.19899800412E+03  0.12500000000E+03 0.  0.
</event>
<event>
 4    0  0.2134002E-002  0.1660910E+03  0.7546771E-02  0.1181987E+00
         21   -1    0    0  502  501  0.00000000000E+00  0.00000000000E+00  0.23774103768E+03  0.23774103768E+03  0.00000000000E+00 0.  1.
         21   -1    0    0  501  502 -0.00000000000E+00 -0.00000000000E+00 -0.11603472767E+03  0.11603472767E+03  0.00000000000E+00 0.  1.
         25    1    1    2    0    0 -0.69087054589E+01 -0.10911204911E+03  0.63874299301E+02  0.17792721991E+03  0.12500000000E+03 0.  0.
         25    1    1    2    0    0  0.69087054589E+01  0.10911204911E+03  0.57832010710E+02  0.17584854544E+03  0.12500000000E+03 0.  0.
</event>
<event>
 4    0  0.2134002E-002  0.2394698E+03  0.7546771E-02  0.1120147E+00
         21   -1    0    0  502  501  0.00000000000E+00  0.00000000000E+00  0.60234803327E+02  0.60234803327E+02  0.00000000000E+00 0. -1.
         21   -1    0    0  501  502 -0.00000000000E+00 -0.00000000000E+00 -0.95203763162E+03  0.95203763162E+03  0.00000000000E+00 0. -1.
         25    1    1    2    0    0  0.50044135853E+02  0.12040036050E+03 -0.11359245725E+03  0.21337504232E+03  0.12500000000E+03 0.  0.
         25    1    1    2    0    0 -0.50044135853E+02 -0.12040036050E+03 -0.77821037105E+03  0.79889739263E+03  0.12500000000E+03 0.  0.
</event>
<event>
 4    0  0.2134002E-002  0.3002688E+03  0.7546771E-02  0.1085106E+00
         21   -1    0    0  502  501  0.00000000000E+00  0.00000000000E+00  0.34522520573E+03  0.34522520573E+03  0.00000000000E+00 0.  1.
         21   -1    0    0  501  502 -0.00000000000E+00 -0.00000000000E+00 -0.26116681281E+03  0.26116681281E+03  0.00000000000E+00 0.  1.
         25    1    1    2    0    0 -0.24823135128E+03  0.17877972115E+02 -0.71305535903E+02  0.28748548675E+03  0.12500000000E+03 0.  0.
         25    1    1    2    0    0  0.24823135128E+03 -0.17877972115E+02  0.15536392882E+03  0.31890653180E+03  0.12500000000E+03 0.  0.
</event>
<event>
 4    0  0.2134002E-002  0.2393053E+03  0.7546771E-02  0.1120256E+00
         21   -1    0    0  502  501  0.00000000000E+00  0.00000000000E+00  0.18618000509E+03  0.18618000509E+03  0.00000000000E+00 0.  1.
         21   -1    0    0  501  502 -0.00000000000E+00 -0.00000000000E+00 -0.30758951295E+03  0.30758951295E+03  0.00000000000E+00 0.  1.
         25    1    1    2    0    0  0.15626732382E+03 -0.99465578403E+02 -0.14902667108E+03  0.26860161294E+03  0.12500000000E+03 0.  0.
         25    1    1    2    0    0 -0.15626732382E+03  0.99465578403E+02  0.27617163214E+02  0.22516790510E+03  0.12500000000E+03 0.  0.
</event>
<event>
 4    0  0.2134002E-002  0.2422255E+03  0.7546771E-02  0.1118319E+00
         21   -1    0    0  502  501  0.00000000000E+00  0.00000000000E+00  0.11639418327E+04  0.11639418327E+04  0.00000000000E+00 0. -1.
         21   -1    0    0  501  502 -0.00000000000E+00 -0.00000000000E+00 -0.50409036016E+02  0.50409036016E+02  0.00000000000E+00 0. -1.
         25    1    1    2    0    0 -0.10372394866E+03 -0.17520566981E+03  0.65679732286E+03  0.69890157217E+03  0.12500000000E+03 0.  0.
         25    1    1    2    0    0  0.10372394866E+03  0.17520566981E+03  0.45673547378E+03  0.51544929651E+03  0.12500000000E+03 0.  0.
</event>
<event>
 4    0  0.2134002E-002  0.3065301E+03  0.7546771E-02  0.1082021E+00
         21   -1    0    0  502  501  0.00000000000E+00  0.00000000000E+00  0.98193236103E+02  0.98193236103E+02  0.00000000000E+00 0.  1.
         21   -1    0    0  501  502 -0.00000000000E+00 -0.00000000000E+00 -0.95689566244E+03  0.95689566244E+03  0.00000000000E+00 0.  1.
         25    1    1    2    0    0  0.46545883753E+02 -0.12052593495E+02 -0.90387833894E+03  0.91374659283E+03  0.12500000000E+03 0.  0.
         25    1    1    2    0    0 -0.46545883753E+02  0.12052593495E+02  0.45175912605E+02  0.14134230571E+03  0.12500000000E+03 0.  0.
</event>
<event>
 4    0  0.2134002E-002  0.2469771E+03  0.7546771E-02  0.1115230E+00
         21   -1    0    0  502  501  0.00000000000E+00  0.00000000000E+00  0.14126561777E+03  0.14126561777E+03  0.00000000000E+00 0. -1.
         21   -1    0    0  501  502 -0.00000000000E+00 -0.00000000000E+00 -0.43179432399E+03  0.43179432399E+03  0.00000000000E+00 0. -1.
         25    1    1    2    0    0 -0.10778337856E+03 -0.18273286624E+03 -0.12312604302E+03  0.27530633768E+03  0.12500000000E+03 0.  0.
         25    1    1    2    0    0  0.10778337856E+03  0.18273286624E+03 -0.16740266319E+03  0.29775360408E+03  0.12500000000E+03 0.  0.
</event>
<event>
 4    0  0.2134002E-002  0.2049604E+03  0.7546771E-02  0.1145620E+00
         21   -1    0    0  502  501  0.00000000000E+00  0.00000000000E+00  0.55377804098E+02  0.55377804098E+02  0.00000000000E+00 0. -1.
         21   -1    0    0  501  502 -0.00000000000E+00 -0.00000000000E+00 -0.75858466772E+03  0.75858466772E+03  0.00000000000E+00 0. -1.
         25    1    1    2    0    0  0.32949613846E+02 -0.14837407170E+03 -0.46538027563E+03  0.50527650168E+03  0.12500000000E+03 0.  0.
         25    1    1    2    0    0 -0.32949613846E+02  0.14837407170E+03 -0.23782658799E+03  0.30868597014E+03  0.12500000000E+03 0.  0.
</event>
<event>
 4    0  0.2134002E-002  0.1749471E+03  0.7546771E-02  0.1172785E+00
         21   -1    0    0  502  501  0.00000000000E+00  0.00000000000E+00  0.50597031002E+03  0.50597031002E+03  0.00000000000E+00 0.  1.
         21   -1    0    0  501  502 -0.00000000000E+00 -0.00000000000E+00 -0.60490662312E+02  0.60490662312E+02  0.00000000000E+00 0.  1.
         25    1    1    2    0    0  0.11537780259E+03  0.40127730730E+02  0.23519701295E+03  0.29302714380E+03  0.12500000000E+03 0.  0.
         25    1    1    2    0    0 -0.11537780259E+03 -0.40127730730E+02  0.21028263475E+03  0.27343382853E+03  0.12500000000E+03 0.  0.
</event>
<event>
 4    0  0.2134002E-002  0.3070606E+03  0.7546771E-02  0.1081763E+00
         21   -1    0    0  502  501  0.00000000000E+00  0.00000000000E+00  0.10740634723E+03  0.10740634723E+03  0.00000000000E+00 0.  1.
         21   -1    0    0  501  502 -0.00000000000E+00 -0.00000000000E+00 -0.87784558919E+03  0.87784558919E+03  0.00000000000E+00 0.  1.
         25    1    1    2    0    0  0.17032617957E+02  0.12532762604E+03  0.16388551345E+02  0.17857969800E+03  0.12500000000E+03 0.  0.
         25    1    1    2    0    0 -0.17032617957E+02 -0.12532762604E+03 -0.78682779330E+03  0.80667223842E+03  0.12500000000E+03 0.  0.
</event>
<event>
 4    0  0.2134002E-002  0.2375440E+03  0.7546771E-02  0.1121440E+00
         21   -1    0    0  502  501  0.00000000000E+00  0.00000000000E+00  0.11243623665E+03  0.11243623665E+03  0.00000000000E+00 0. -1.
         21   -1    0    0  501  502 -0.00000000000E+00 -0.00000000000E+00 -0.50185919081E+03  0.50185919081E+03  0.00000000000E+00 0. -1.
         25    1    1    2    0    0 -0.14859877253E+03 -0.13584782380E+03 -0.17362574172E+03  0.29378074242E+03  0.12500000000E+03 0.  0.
         25    1    1    2    0    0  0.14859877253E+03  0.13584782380E+03 -0.21579721244E+03  0.32051468504E+03  0.12500000000E+03 0.  0.
</event>
<event>
 4    0  0.2134002E-002  0.2512094E+03  0.7546771E-02  0.1112543E+00
         21   -1    0    0  502  501  0.00000000000E+00  0.00000000000E+00  0.23070360543E+02  0.23070360543E+02  0.00000000000E+00 0. -1.
         21   -1    0    0  501  502 -0.00000000000E+00 -0.00000000000E+00 -0.27353789331E+04  0.27353789331E+04  0.00000000000E+00 0. -1.
         25    1    1    2    0    0  0.17343961871E+03  0.15179652611E+02 -0.20755657016E+04  0.20866024310E+04  0.12500000000E+03 0.  0.
         25    1    1    2    0    0 -0.17343961871E+03 -0.15179652611E+02 -0.63674287091E+03  0.67184686265E+03  0.12500000000E+03 0.  0.
</event>
<event>
 4    0  0.2134002E-002  0.2558363E+03  0.7546771E-02  0.1109671E+00
         21   -1    0    0  502  501  0.00000000000E+00  0.00000000000E+00  0.90544337856E+02  0.90544337856E+02  0.00000000000E+00 0. -1.
         21   -1    0    0  501  502 -0.00000000000E+00 -0.00000000000E+00 -0.72287472988E+03  0.72287472988E+03  0.00000000000E+00 0. -1.
         25    1    1    2    0    0 -0.14381539457E+03  0.16746481591E+03 -0.36888759087E+03  0.44769452418E+03  0.12500000000E+03 0.  0.
         25    1    1    2    0    0  0.14381539457E+03 -0.16746481591E+03 -0.26344280115E+03  0.36572454356E+03  0.12500000000E+03 0.  0.
</event>
<event>
 4    0  0.2134002E-002  0.4193224E+03  0.7546771E-02  0.1037287E+00
         21   -1    0    0  502  501  0.00000000000E+00  0.00000000000E+00  0.69690178950E+03  0.69690178950E+03  0.00000000000E+00 0. -1.
         21   -1    0    0  501  502 -0.00000000000E+00 -0.00000000000E+00 -0.25230422531E+03  0.25230422531E+03  0.00000000000E+00 0. -1.
         25    1    1    2    0    0 -0.16133023692E+03 -0.21724456886E+03 -0.11151262102E+03  0.31824945042E+03  0.12500000000E+03 0.  0.
         25    1    1    2    0    0  0.16133023692E+03  0.21724456886E+03  0.55611018521E+03  0.63095656438E+03  0.12500000000E+03 0.  0.
</event>
<event>
 4    0  0.2134002E-002  0.1971901E+03  0.7546771E-02  0.1152132E+00
         21   -1    0    0  502  501  0.00000000000E+00  0.00000000000E+00  0.12897452131E+03  0.12897452131E+03  0.00000000000E+00 0.  1.
         21   -1    0    0  501  502 -0.00000000000E+00 -0.00000000000E+00 -0.30148550767E+03  0.30148550767E+03  0.00000000000E+00 0.  1.
         25    1    1    2    0    0  0.73587105081E+02  0.11050712003E+03 -0.16816822701E+03  0.24805732843E+03  0.12500000000E+03 0.  0.
         25    1    1    2    0    0 -0.73587105081E+02 -0.11050712003E+03 -0.43427593571E+01  0.18240270055E+03  0.12500000000E+03 0.  0.
</event>
<event>
 4    0  0.2134002E-002  0.1868844E+03  0.7546771E-02  0.1161302E+00
         21   -1    0    0  502  501  0.00000000000E+00  0.00000000000E+00  0.26421846943E+02  0.26421846943E+02  0.00000000000E+00 0. -1.
         21   -1    0    0  501  502 -0.00000000000E+00 -0.00000000000E+00 -0.13218518951E+04  0.13218518951E+04  0.00000000000E+00 0. -1.
         25    1    1    2    0    0 -0.35094899747E+02  0.90123022723E+02 -0.28794893820E+03  0.32847131111E+03  0.12500000000E+03 0.  0.
         25    1    1    2    0    0  0.35094899747E+02 -0.90123022723E+02 -0.10074811100E+04  0.10198024309E+04  0.12500000000E+03 0.  0.
</event>
<event>
 4    0  0.2134002E-002  0.3899972E+03  0.7546771E-02  0.1047299E+00
         21   -1    0    0  502  501  0.00000000000E+00  0.00000000000E+00  0.14998346043E+04  0.14998346043E+04  0.00000000000E+00 0. -1.
         21   -1    0    0  501  502 -0.00000000000E+00 -0.00000000000E+00 -0.10140971324E+03  0.10140971324E+03  0.00000000000E+00 0. -1.
         25    1    1    2    0    0  0.35879353774E+03 -0.69600595437E+02  0.58874182563E+03  0.70414414920E+03  0.12500000000E+03 0.  0.
         25    1    1    2    0    0 -0.35879353774E+03  0.69600595437E+02  0.80968306546E+03  0.89710016838E+03  0.12500000000E+03 0.  0.
</event>
<event>
 4    0  0.2134002E-002  0.1405754E+03  0.7546771E-02  0.1212557E+00
         21   -1    0    0  502  501  0.00000000000E+00  0.00000000000E+00  0.10416892020E+03  0.10416892020E+03  0.00000000000E+00 0. -1.
         21   -1    0    0  501  502 -0.00000000000E+00 -0.00000000000E+00 -0.18970572627E+03  0.18970572627E+03  0.00000000000E+00 0. -1.
         25    1    1    2    0    0  0.36383735907E+02 -0.31904059381E+02 -0.87050716165E+02  0.15982638214E+03  0.12500000000E+03 0.  0.
         25    1    1    2    0    0 -0.36383735907E+02  0.31904059381E+02  0.15139100949E+01  0.13404826432E+03  0.12500000000E+03 0.  0.
</event>
<event>
 4    0  0.2134002E-002  0.3041064E+03  0.7546771E-02  0.1083206E+00
         21   -1    0    0  502  501  0.00000000000E+00  0.00000000000E+00  0.10082802042E+03  0.10082802042E+03  0.00000000000E+00 0. -1.
         21   -1    0    0  501  502 -0.00000000000E+00 -0.00000000000E+00 -0.91721212856E+03  0.91721212856E+03  0.00000000000E+00 0. -1.
         25    1    1    2    0    0  0.57033085038E+02 -0.22976904251E+03 -0.64964695136E+03  0.70264695765E+03  0.12500000000E+03 0.  0.
         25    1    1    2    0    0 -0.57033085038E+02  0.22976904251E+03 -0.16673715678E+03  0.31539319133E+03  0.12500000000E+03 0.  0.
</event>
<event>
 4    0  0.2134002E-002  0.2830404E+03  0.7546771E-02  0.1094040E+00
         21   -1    0    0  502  501  0.00000000000E+00  0.00000000000E+00  0.47338666105E+03  0.47338666105E+03  0.00000000000E+00 0. -1.
         21   -1    0    0  501  502 -0.00000000000E+00 -0.00000000000E+00 -0.16923137608E+03  0.16923137608E+03  0.00000000000E+00 0. -1.
         25    1    1    2    0    0  0.82737119303E+02 -0.23193448045E+02 -0.11919491583E+03  0.19291395725E+03  0.12500000000E+03 0.  0.
         25    1    1    2    0    0 -0.82737119303E+02  0.23193448045E+02  0.42335020080E+03  0.44970407988E+03  0.12500000000E+03 0.  0.
</event>
<event>
 4    0  0.2134002E-002  0.2777160E+03  0.7546771E-02  0.1096943E+00
         21   -1    0    0  502  501  0.00000000000E+00  0.00000000000E+00  0.21712312132E+03  0.21712312132E+03  0.00000000000E+00 0. -1.
         21   -1    0    0  501  502 -0.00000000000E+00 -0.00000000000E+00 -0.35521860181E+03  0.35521860181E+03  0.00000000000E+00 0. -1.
         25    1    1    2    0    0 -0.26503029509E+02  0.17479445380E+03 -0.24825518865E+03  0.32941030698E+03  0.12500000000E+03 0.  0.
         25    1    1    2    0    0  0.26503029509E+02 -0.17479445380E+03  0.11015970817E+03  0.24293141615E+03  0.12500000000E+03 0.  0.
</event>
<event>
 4    0  0.2134002E-002  0.5812150E+03  0.7546771E-02  0.9945164E-01
         21   -1    0    0  502  501  0.00000000000E+00  0.00000000000E+00  0.20093316328E+04  0.20093316328E+04  0.00000000000E+00 0.  1.
         21   -1    0    0  501  502 -0.00000000000E+00 -0.00000000000E+00 -0.16812098977E+03  0.16812098977E+03  0.00000000000E+00 0.  1.
         25    1    1    2    0    0 -0.11320090497E+03 -0.29217976409E+02 -0.11984649524E+03  0.20894094250E+03  0.12500000000E+03 0.  0.
         25    1    1    2    0    0  0.11320090497E+03  0.29217976409E+02  0.19610571383E+04  0.19685116801E+04  0.12500000000E+03 0.  0.
</event>
<event>
 4    0  0.2134002E-002  0.2153223E+03  0.7546771E-02  0.1137419E+00
         21   -1    0    0  502  501  0.00000000000E+00  0.00000000000E+00  0.21705790687E+03  0.21705790687E+03  0.00000000000E+00 0. -1.
         21   -1    0    0  501  502 -0.00000000000E+00 -0.00000000000E+00 -0.21360064347E+03  0.21360064347E+03  0.00000000000E+00 0. -1.
         25    1    1    2    0    0 -0.48458483953E+02  0.12800483443E+03  0.11130061725E+03  0.21620890293E+03  0.12500000000E+03 0.  0.
         25    1    1    2    0    0  0.48458483953E+02 -0.12800483443E+03 -0.10784335385E+03  0.21444964741E+03  0.12500000000E+03 0.  0.
</event>
<event>
 4    0  0.2134002E-002  0.2743736E+03  0.7546771E-02  0.1098802E+00
         21   -1    0    0  502  501  0.00000000000E+00  0.00000000000E+00  0.26441675418E+03  0.26441675418E+03  0.00000000000E+00 0.  1.
         21   -1    0    0  501  502 -0.00000000000E+00 -0.00000000000E+00 -0.28470529287E+03  0.28470529287E+03  0.00000000000E+00 0.  1.
         25    1    1    2    0    0 -0.23315060420E+03 -0.66282048875E+02 -0.40220339938E+02  0.27567225103E+03  0.12500000000E+03 0.  0.
         25    1    1    2    0    0  0.23315060420E+03  0.66282048875E+02  0.19931801247E+02  0.27344979602E+03  0.12500000000E+03 0.  0.
</event>
<event>
 4    0  0.2134002E-002  0.2086957E+03  0.7546771E-02  0.1142603E+00
         21   -1    0    0  502  501  0.00000000000E+00  0.00000000000E+00  0.91107687236E+02  0.91107687236E+02  0.00000000000E+00 0. -1.
         21   -1    0    0  501  502 -0.00000000000E+00 -0.00000000000E+00 -0.47804850416E+03  0.47804850416E+03  0.00000000000E+00 0. -1.
         25    1    1    2    0    0  0.63189495188E+01  0.15661224130E+03 -0.11440999553E+03  0.23082887672E+03  0.12500000000E+03 0.  0.
         25    1    1    2    0    0 -0.63189495188E+01 -0.15661224130E+03 -0.27253082139E+03  0.33832731468E+03  0.12500000000E+03 0.  0.
</event>
<event>
 4    0  0.2134002E-002  0.2352818E+03  0.7546771E-02  0.1122976E+00
         21   -1    0    0  502  501  0.00000000000E+00  0.00000000000E+00  0.20088062952E+02  0.20088062952E+02  0.00000000000E+00 0. -1.
         21   -1    0    0  501  502 -0.00000000000E+00 -0.00000000000E+00 -0.27557426584E+04  0.27557426584E+04  0.00000000000E+00 0. -1.
         25    1    1    2    0    0 -0.19916268320E+03 -0.57023422883E+01 -0.13333091658E+04  0.13538968287E+04  0.12500000000E+03 0.  0.
         25    1    1    2    0    0  0.19916268320E+03  0.57023422883E+01 -0.14023454297E+04  0.14219338927E+04  0.12500000000E+03 0.  0.
</event>
<event>
 4    0  0.2134002E-002  0.2846289E+03  0.7546771E-02  0.1093187E+00
         21   -1    0    0  502  501  0.00000000000E+00  0.00000000000E+00  0.86866548237E+02  0.86866548237E+02  0.00000000000E+00 0. -1.
         21   -1    0    0  501  502 -0.00000000000E+00 -0.00000000000E+00 -0.93262158819E+03  0.93262158819E+03  0.00000000000E+00 0. -1.
         25    1    1    2    0    0 -0.20938343848E+03  0.82908569438E+02 -0.20593833871E+03  0.32977394461E+03  0.12500000000E+03 0.  0.
         25    1    1    2    0    0  0.20938343848E+03 -0.82908569438E+02 -0.63981670124E+03  0.68971419181E+03  0.12500000000E+03 0.  0.
</event>
<event>
 4    0  0.2134002E-002  0.2844209E+03  0.7546771E-02  0.1093299E+00
         21   -1    0    0  502  501  0.00000000000E+00  0.00000000000E+00  0.85899472078E+02  0.85899472078E+02  0.00000000000E+00 0.  1.
         21   -1    0    0  501  502 -0.00000000000E+00 -0.00000000000E+00 -0.94174314791E+03  0.94174314791E+03  0.00000000000E+00 0.  1.
         25    1    1    2    0    0 -0.16428241319E+03 -0.17648122704E+03 -0.58052907987E+03  0.64091602208E+03  0.12500000000E+03 0.  0.
         25    1    1    2    0    0  0.16428241319E+03  0.17648122704E+03 -0.27531459597E+03  0.38672659791E+03  0.12500000000E+03 0.  0.
</event>
<event>
 4    0  0.2134002E-002  0.1804587E+03  0.7546771E-02  0.1167360E+00
         21   -1    0    0  502  501  0.00000000000E+00  0.00000000000E+00  0.24532743640E+02  0.24532743640E+02  0.00000000000E+00 0.  1.
         21   -1    0    0  501  502 -0.00000000000E+00 -0.00000000000E+00 -0.13274231766E+04  0.13274231766E+04  0.00000000000E+00 0.  1.
         25    1    1    2    0    0  0.38277862546E+02 -0.62092450643E+02 -0.10552315235E+04  0.10651099640E+04  0.12500000000E+03 0.  0.
         25    1    1    2    0    0 -0.38277862546E+02  0.62092450643E+02 -0.24765890949E+03  0.28684595629E+03  0.12500000000E+03 0.  0.
</event>
<event>
 4    0  0.2134002E-002  0.2506422E+03  0.7546771E-02  0.1112900E+00
         21   -1    0    0  502  501  0.00000000000E+00  0.00000000000E+00  0.68795459663E+02  0.68795459663E+02  0.00000000000E+00 0.  1.
         21   -1    0    0  501  502 -0.00000000000E+00 -0.00000000000E+00 -0.91316376337E+03  0.91316376337E+03  0.00000000000E+00 0.  1.
         25    1    1    2    0    0 -0.12235148713E+01  0.20662155825E+03 -0.29074075512E+03  0.37795390196E+03  0.12500000000E+03 0.  0.
         25    1    1    2    0    0  0.12235148713E+01 -0.20662155825E+03 -0.55362754859E+03  0.60400532107E+03  0.12500000000E+03 0.  0.
</event>
<event>
 4    0  0.2134002E-002  0.2138009E+03  0.7546771E-02  0.1138591E+00
         21   -1    0    0  502  501  0.00000000000E+00  0.00000000000E+00  0.75726114557E+03  0.75726114557E+03  0.00000000000E+00 0. -1.
         21   -1    0    0  501  502 -0.00000000000E+00 -0.00000000000E+00 -0.60363352116E+02  0.60363352116E+02  0.00000000000E+00 0. -1.
         25    1    1    2    0    0 -0.84503350626E+02  0.57097144778E+02  0.80173265280E+02  0.18014897356E+03  0.12500000000E+03 0.  0.
         25    1    1    2    0    0  0.84503350626E+02 -0.57097144778E+02  0.61672452817E+03  0.63747552413E+03  0.12500000000E+03 0.  0.
</event>
<event>
 4    0  0.2134002E-002  0.3462050E+03  0.7546771E-02  0.1064184E+00
         21   -1    0    0  502  501  0.00000000000E+00  0.00000000000E+00  0.77384580089E+03  0.77384580089E+03  0.00000000000E+00 0. -1.
         21   -1    0    0  501  502 -0.00000000000E+00 -0.00000000000E+00 -0.15488604307E+03  0.15488604307E+03  0.00000000000E+00 0. -1.
         25    1    1    2    0    0  0.18843691453E+03 -0.14930585104E+03  0.20454058331E+02  0.27174266580E+03  0.12500000000E+03 0.  0.
         25    1    1    2    0    0 -0.18843691453E+03  0.14930585104E+03  0.59850569949E+03  0.65698917817E+03  0.12500000000E+03 0.  0.
</event>
<event>
 4    0  0.2134002E-002  0.1450231E+03  0.7546771E-02  0.1206725E+00
         21   -1    0    0  502  501  0.00000000000E+00  0.00000000000E+00  0.33055570329E+02  0.33055570329E+02  0.00000000000E+00 0. -1.
         21   -1    0    0  501  502 -0.00000000000E+00 -0.00000000000E+00 -0.63625293065E+03  0.63625293065E+03  0.00000000000E+00 0. -1.
         25    1    1    2    0    0  0.19391301284E+00  0.71240428777E+02 -0.25958609546E+03  0.29679147099E+03  0.12500000000E+03 0.  0.
         25    1    1    2    0    0 -0.19391301284E+00 -0.71240428777E+02 -0.34361126486E+03  0.37251702999E+03  0.12500000000E+03 0.  0.
</event>
<event>
 4    0  0.2134002E-002  0.3090995E+03  0.7546771E-02  0.1080778E+00
         21   -1    0    0  502  501  0.00000000000E+00  0.00000000000E+00  0.98491884694E+03  0.98491884694E+03  0.00000000000E+00 0. -1.
         21   -1    0    0  501  502 -0.00000000000E+00 -0.00000000000E+00 -0.97005469634E+02  0.97005469634E+02  0.00000000000E+00 0. -1.
         25    1    1    2    0    0 -0.21507905974E+03 -0.14451795007E+03  0.24616124190E+03  0.37863544056E+03  0.12500000000E+03 0.  0.
         25    1    1    2    0    0  0.21507905974E+03  0.14451795007E+03  0.64175213540E+03  0.70328887601E+03  0.12500000000E+03 0.  0.
</event>
<event>
 4    0  0.2134002E-002  0.4085320E+03  0.7546771E-02  0.1040865E+00
         21   -1    0    0  502  501  0.00000000000E+00  0.00000000000E+00  0.96583193653E+02  0.96583193653E+02  0.00000000000E+00 0. -1.
         21   -1    0    0  501  502 -0.00000000000E+00 -0.00000000000E+00 -0.17280269351E+04  0.17280269351E+04  0.00000000000E+00 0. -1.
         25    1    1    2    0    0  0.19722455063E+03 -0.19793938836E+03 -0.14198891996E+04  0.14525108826E+04  0.12500000000E+03 0.  0.
         25    1    1    2    0    0 -0.19722455063E+03  0.19793938836E+03 -0.21155454185E+03  0.37209924619E+03  0.12500000000E+03 0.  0.
</event>
<event>
 4    0  0.2134002E-002  0.1699703E+03  0.7546771E-02  0.1177879E+00
         21   -1    0    0  502  501  0.00000000000E+00  0.00000000000E+00  0.26814517937E+02  0.26814517937E+02  0.00000000000E+00 0.  1.
         21   -1    0    0  501  502 -0.00000000000E+00 -0.00000000000E+00 -0.10773983786E+04  0.10773983786E+04  0.00000000000E+00 0.  1.
         25    1    1    2    0    0  0.24494135073E+02 -0.81945708436E+02 -0.77584683264E+03  0.79049248542E+03  0.12500000000E+03 0.  0.
         25    1    1    2    0    0 -0.24494135073E+02  0.81945708436E+02 -0.27473702800E+03  0.31372041110E+03  0.12500000000E+03 0.  0.
</event>
<event>
 4    0  0.2134002E-002  0.1733977E+03  0.7546771E-02  0.1174350E+00
         21   -1    0    0  502  501  0.00000000000E+00  0.00000000000E+00  0.55831977448E+02  0.55831977448E+02  0.00000000000E+00 0.  1.
         21   -1    0    0  501  502 -0.00000000000E+00 -0.00000000000E+00 -0.53852206335E+03  0.53852206335E+03  0.00000000000E+00 0.  1.
         25    1    1    2    0    0 -0.50157557563E+02  0.57193790676E+01 -0.54439396471E+02  0.14538617460E+03  0.12500000000E+03 0.  0.
         25    1    1    2    0    0  0.50157557563E+02 -0.57193790676E+01 -0.42825068943E+03  0.44896786619E+03  0.12500000000E+03 0.  0.
</event>
<event>
 4    0  0.2134002E-002  0.2290161E+03  0.7546771E-02  0.1127334E+00
         21   -1    0    0  502  501  0.00000000000E+00  0.00000000000E+00  0.56308561539E+02  0.56308561539E+02  0.00000000000E+00 0. -1.
         21   -1    0    0  501  502 -0.00000000000E+00 -0.00000000000E+00 -0.93144608675E+03  0.93144608675E+03  0.00000000000E+00 0. -1.
         25    1    1    2    0    0 -0.14458128600E+03 -0.10054121702E+03 -0.27317612658E+03  0.34822762773E+03  0.12500000000E+03 0.  0.
         25    1    1    2    0    0  0.14458128600E+03  0.10054121702E+03 -0.60196139863E+03  0.63952702056E+03  0.12500000000E+03 0.  0.
</event>
<event>
 4    0  0.2134002E-002  0.2104858E+03  0.7546771E-02  0.1141182E+00
         21   -1    0    0  502  501  0.00000000000E+00  0.00000000000E+00  0.14110462353E+04  0.14110462353E+04  0.00000000000E+00 0.  1.
         21   -1    0    0  501  502 -0.00000000000E+00 -0.00000000000E+00 -0.31398158627E+02  0.31398158627E+02  0.00000000000E+00 0.  1.
         25    1    1    2    0    0 -0.13425170035E+03  0.62109098476E+02  0.40730796509E+03  0.45100536314E+03  0.12500000000E+03 0.  0.
         25    1    1    2    0    0  0.13425170035E+03 -0.62109098476E+02  0.97234011161E+03  0.99143903081E+03  0.12500000000E+03 0.  0.
</event>
<event>
 4    0  0.2134002E-002  0.2102615E+03  0.7546771E-02  0.1141359E+00
         21   -1    0    0  502  501  0.00000000000E+00  0.00000000000E+00  0.23814748763E+02  0.23814748763E+02  0.00000000000E+00 0.  1.
         21   -1    0    0  501  502 -0.00000000000E+00 -0.00000000000E+00 -0.18564078581E+04  0.18564078581E+04  0.00000000000E+00 0.  1.
         25    1    1    2    0    0 -0.61838889974E+02 -0.11164748489E+03 -0.14120843206E+04  0.14233398532E+04  0.12500000000E+03 0.  0.
         25    1    1    2    0    0  0.61838889974E+02  0.11164748489E+03 -0.42050878869E+03  0.45688275363E+03  0.12500000000E+03 0.  0.
</event>
<event>
 4    0  0.2134002E-002  0.1591937E+03  0.7546771E-02  0.1189610E+00
         21   -1    0    0  502  501  0.00000000000E+00  0.00000000000E+00  0.37330222429E+03  0.37330222429E+03  0.00000000000E+00 0.  1.
         21   -1    0    0  501  502 -0.00000000000E+00 -0.00000000000E+00 -0.67887714426E+02  0.67887714426E+02  0.00000000000E+00 0.  1.
         25    1    1    2    0    0 -0.40661941272E+02  0.48043322963E+02  0.25783882470E+03  0.29337248315E+03  0.12500000000E+03 0.  0.
         25    1    1    2    0    0  0.40661941272E+02 -0.48043322963E+02  0.47575685161E+02  0.14781745556E+03  0.12500000000E+03 0.  0.
</event>
<event>
 4    0  0.2134002E-002  0.1693913E+03  0.7546771E-02  0.1178484E+00
         21   -1    0    0  502  501  0.00000000000E+00  0.00000000000E+00  0.61619421937E+03  0.61619421937E+03  0.00000000000E+00 0.  1.
         21   -1    0    0  501  502 -0.00000000000E+00 -0.00000000000E+00 -0.46565525172E+02  0.46565525172E+02  0.00000000000E+00 0.  1.
         25    1    1    2    0    0 -0.11362623946E+03  0.10194170940E+02  0.27049670053E+03  0.31907414250E+03  0.12500000000E+03 0.  0.
         25    1    1    2    0    0  0.11362623946E+03 -0.10194170940E+02  0.29913199367E+03  0.34368560204E+03  0.12500000000E+03 0.  0.
</event>
<event>
 4    0  0.2134002E-002  0.2086669E+03  0.7546771E-02  0.1142626E+00
         21   -1    0    0  502  501  0.00000000000E+00  0.00000000000E+00  0.60341621655E+03  0.60341621655E+03  0.00000000000E+00 0. -1.
         21   -1    0    0  501  502 -0.00000000000E+00 -0.00000000000E+00 -0.72158910970E+02  0.72158910970E+02  0.00000000000E+00 0. -1.
         25    1    1    2    0    0  0.10195842475E+03  0.98950585215E+02  0.40795432843E+03  0.44970932032E+03  0.12500000000E+03 0.  0.
         25    1    1    2    0    0 -0.10195842475E+03 -0.98950585215E+02  0.12330297715E+03  0.22586580721E+03  0.12500000000E+03 0.  0.
</event>
<event>
 4    0  0.2134002E-002  0.9019634E+03  0.7546771E-02  0.9423130E-01
         21   -1    0    0  502  501  0.00000000000E+00  0.00000000000E+00  0.11383444432E+04  0.11383444432E+04  0.00000000000E+00 0. -1.
         21   -1    0    0  501  502 -0.00000000000E+00 -0.00000000000E+00 -0.71466760033E+03  0.71466760033E+03  0.00000000000E+00 0. -1.
         25    1    1    2    0    0 -0.42897156460E+03  0.72640140401E+03 -0.89814058556E+02  0.85753552002E+03  0.12500000000E+03 0.  0.
         25    1    1    2    0    0  0.42897156460E+03 -0.72640140401E+03  0.51349090140E+03  0.99547652348E+03  0.12500000000E+03 0.  0.
</event>
<event>
 4    0  0.2134002E-002  0.1811792E+03  0.7546771E-02  0.1166667E+00
         21   -1    0    0  502  501  0.00000000000E+00  0.00000000000E+00  0.33555052246E+03  0.33555052246E+03  0.00000000000E+00 0. -1.
         21   -1    0    0  501  502 -0.00000000000E+00 -0.00000000000E+00 -0.97827025286E+02  0.97827025286E+02  0.00000000000E+00 0. -1.
         25    1    1    2    0    0 -0.39590040267E+02  0.76328177184E+02  0.41906486908E+00  0.15171861302E+03  0.12500000000E+03 0.  0.
         25    1    1    2    0    0  0.39590040267E+02 -0.76328177184E+02  0.23730443231E+03  0.28165893473E+03  0.12500000000E+03 0.  0.
</event>
<event>
 4    0  0.2134002E-002  0.1884550E+03  0.7546771E-02  0.1159862E+00
         21   -1    0    0  502  501  0.00000000000E+00  0.00000000000E+00  0.31532995232E+02  0.31532995232E+02  0.00000000000E+00 0.  1.
         21   -1    0    0  501  502 -0.00000000000E+00 -0.00000000000E+00 -0.11262896000E+04  0.11262896000E+04  0.00000000000E+00 0.  1.
         25    1    1    2    0    0 -0.12216688254E+03  0.51778370223E+02 -0.69420449834E+03  0.71773994756E+03  0.12500000000E+03 0.  0.
         25    1    1    2    0    0  0.12216688254E+03 -0.51778370223E+02 -0.40055210640E+03  0.44008264764E+03  0.12500000000E+03 0.  0.
</event>
<event>
 4    0  0.2134002E-002  0.2077789E+03  0.7546771E-02  0.1143337E+00
         21   -1    0    0  502  501  0.00000000000E+00  0.00000000000E+00  0.33759789763E+03  0.33759789763E+03  0.00000000000E+00 0. -1.
         21   -1    0    0  501  502 -0.00000000000E+00 -0.00000000000E+00 -0.12788010704E+03  0.12788010704E+03  0.00000000000E+00 0. -1.
         25    1    1    2    0    0 -0.21924556165E+01 -0.59103150324E+01 -0.80918093436E+02  0.14903850687E+03  0.12500000000E+03 0.  0.
         25    1    1    2    0    0  0.21924556165E+01  0.59103150324E+01  0.29063588402E+03  0.31643949780E+03  0.12500000000E+03 0.  0.
</event>
<event>
 4    0  0.2134002E-002  0.1782545E+03  0.7546771E-02  0.1169503E+00
         21   -1    0    0  502  501  0.00000000000E+00  0.00000000000E+00  0.67304336253E+02  0.67304336253E+02  0.00000000000E+00 0.  1.
         21   -1    0    0  501  502 -0.00000000000E+00 -0.00000000000E+00 -0.47210447028E+03  0.47210447028E+03  0.00000000000E+00 0.  1.
         25    1    1    2    0    0 -0.68594335872E+02  0.25308610471E+02 -0.35966761993E+03  0.38772607019E+03  0.12500000000E+03 0.  0.
         25    1    1    2    0    0  0.68594335872E+02 -0.25308610471E+02 -0.45132514105E+02  0.15168273635E+03  0.12500000000E+03 0.  0.
</event>
<event>
 4    0  0.2134002E-002  0.1875889E+03  0.7546771E-02  0.1160654E+00
         21   -1    0    0  502  501  0.00000000000E+00  0.00000000000E+00  0.12606167385E+03  0.12606167385E+03  0.00000000000E+00 0. -1.
         21   -1    0    0  501  502 -0.00000000000E+00 -0.00000000000E+00 -0.27914581912E+03  0.27914581912E+03  0.00000000000E+00 0. -1.
         25    1    1    2    0    0  0.13754193288E+03  0.24273395856E+02 -0.84739590461E+02  0.20570070306E+03  0.12500000000E+03 0.  0.
         25    1    1    2    0    0 -0.13754193288E+03 -0.24273395856E+02 -0.68344554810E+02  0.19950678991E+03  0.12500000000E+03 0.  0.
</event>
<event>
 4    0  0.2134002E-002  0.2285660E+03  0.7546771E-02  0.1127653E+00
         21   -1    0    0  502  501  0.00000000000E+00  0.00000000000E+00  0.11242456746E+03  0.11242456746E+03  0.00000000000E+00 0. -1.
         21   -1    0    0  501  502 -0.00000000000E+00 -0.00000000000E+00 -0.46468878919E+03  0.46468878919E+03  0.00000000000E+00 0. -1.
         25    1    1    2    0    0 -0.63919698032E+02 -0.12285767121E+03 -0.34284302488E+03  0.39031535312E+03  0.12500000000E+03 0.  0.
         25    1    1    2    0    0  0.63919698032E+02  0.12285767121E+03 -0.94211968544E+01  0.18679800353E+03  0.12500000000E+03 0.  0.
</event>
<event>
 4    0  0.2134002E-002  0.2263610E+03  0.7546771E-02  0.1129228E+00
         21   -1    0    0  502  501  0.00000000000E+00  0.00000000000E+00  0.84892004780E+03  0.84892004780E+03  0.00000000000E+00 0. -1.
         21   -1    0    0  501  502 -0.00000000000E+00 -0.00000000000E+00 -0.60358237370E+02  0.60358237370E+02  0.00000000000E+00 0. -1.
         25    1    1    2    0    0  0.18654142941E+03  0.28576403088E+02  0.39418993989E+03  0.45456025389E+03  0.12500000000E+03 0.  0.
         25    1    1    2    0    0 -0.18654142941E+03 -0.28576403088E+02  0.39437187053E+03  0.45471803128E+03  0.12500000000E+03 0.  0.
</event>
<event>
 4    0  0.2134002E-002  0.2301760E+03  0.7546771E-02  0.1126516E+00
         21   -1    0    0  502  501  0.00000000000E+00  0.00000000000E+00  0.31939499013E+03  0.31939499013E+03  0.00000000000E+00 0. -1.
         21   -1    0    0  501  502 -0.00000000000E+00 -0.00000000000E+00 -0.16587918330E+03  0.16587918330E+03  0.00000000000E+00 0. -1.
         25    1    1    2    0    0  0.71706885567E+02 -0.14460053920E+03 -0.35322161990E+02  0.20718071460E+03  0.12500000000E+03 0.  0.
         25    1    1    2    0    0 -0.71706885567E+02  0.14460053920E+03  0.18883796882E+03  0.27809345883E+03  0.12500000000E+03 0.  0.
</event>
<event>
 4    0  0.2134002E-002  0.1827458E+03  0.7546771E-02  0.1165172E+00
         21   -1    0    0  502  501  0.00000000000E+00  0.00000000000E+00  0.22773128004E+04  0.22773128004E+04  0.00000000000E+00 0. -1.
         21   -1    0    0  501  502 -0.00000000000E+00 -0.00000000000E+00 -0.14664666289E+02  0.14664666289E+02  0.00000000000E+00 0. -1.
         25    1    1    2    0    0 -0.36379476901E+02  0.12333628782E+03  0.91088223692E+03  0.92836779122E+03  0.12500000000E+03 0.  0.
         25    1    1    2    0    0  0.36379476901E+02 -0.12333628782E+03  0.13517658972E+04  0.13636096755E+04  0.12500000000E+03 0.  0.
</event>
<event>
 4    0  0.2134002E-002  0.3308227E+03  0.7546771E-02  0.1070773E+00
         21   -1    0    0  502  501  0.00000000000E+00  0.00000000000E+00  0.11608176560E+04  0.11608176560E+04  0.00000000000E+00 0. -1.
         21   -1    0    0  501  502 -0.00000000000E+00 -0.00000000000E+00 -0.94281520414E+02  0.94281520414E+02  0.00000000000E+00 0. -1.
         25    1    1    2    0    0  0.89193087650E+02  0.28519412186E+03  0.66090749346E+03  0.73601277770E+03  0.12500000000E+03 0.  0.
         25    1    1    2    0    0 -0.89193087650E+02 -0.28519412186E+03  0.40562864217E+03  0.51908639876E+03  0.12500000000E+03 0.  0.
</event>
<event>
 4    0  0.2134002E-002  0.2170767E+03  0.7546771E-02  0.1136081E+00
         21   -1    0    0  502  501  0.00000000000E+00  0.00000000000E+00  0.26480781317E+02  0.26480781317E+02  0.00000000000E+00 0. -1.
         21   -1    0    0  501  502 -0.00000000000E+00 -0.00000000000E+00 -0.17794901576E+04  0.17794901576E+04  0.00000000000E+00 0. -1.
         25    1    1    2    0    0 -0.17276713214E+03  0.15388564968E+02 -0.72019536115E+03  0.75126004027E+03  0.12500000000E+03 0.  0.
         25    1    1    2    0    0  0.17276713214E+03 -0.15388564968E+02 -0.10328140151E+04  0.10547108986E+04  0.12500000000E+03 0.  0.
</event>
<event>
 4    0  0.2134002E-002  0.2228270E+03  0.7546771E-02  0.1131793E+00
         21   -1    0    0  502  501  0.00000000000E+00  0.00000000000E+00  0.76505181653E+02  0.76505181653E+02  0.00000000000E+00 0.  1.
         21   -1    0    0  501  502 -0.00000000000E+00 -0.00000000000E+00 -0.64900026968E+03  0.64900026968E+03  0.00000000000E+00 0.  1.
         25    1    1    2    0    0 -0.85300182962E+02 -0.74015873710E+02 -0.52368607459E+03  0.55011505659E+03  0.12500000000E+03 0.  0.
         25    1    1    2    0    0  0.85300182962E+02  0.74015873710E+02 -0.48809013444E+02  0.17539039474E+03  0.12500000000E+03 0.  0.
</event>
<event>
 4    0  0.2134002E-002  0.2122491E+03  0.7546771E-02  0.1139797E+00
         21   -1    0    0  502  501  0.00000000000E+00  0.00000000000E+00  0.51407615060E+03  0.51407615060E+03  0.00000000000E+00 0. -1.
         21   -1    0    0  501  502 -0.00000000000E+00 -0.00000000000E+00 -0.87632339679E+02  0.87632339679E+02  0.00000000000E+00 0. -1.
         25    1    1    2    0    0 -0.70225147480E+01 -0.98857972261E+02  0.14765217962E+02  0.16020370175E+03  0.12500000000E+03 0.  0.
         25    1    1    2    0    0  0.70225147480E+01  0.98857972261E+02  0.41167859296E+03  0.44150478853E+03  0.12500000000E+03 0.  0.
</event>
<event>
 4    0  0.2134002E-002  0.1922626E+03  0.7546771E-02  0.1156436E+00
         21   -1    0    0  502  501  0.00000000000E+00  0.00000000000E+00  0.57888696590E+03  0.57888696590E+03  0.00000000000E+00 0. -1.
         21   -1    0    0  501  502 -0.00000000000E+00 -0.00000000000E+00 -0.63855130600E+02  0.63855130600E+02  0.00000000000E+00 0. -1.
         25    1    1    2    0    0 -0.13989984194E+03  0.24401289809E+01  0.18735216677E+03  0.26514855157E+03  0.12500000000E+03 0.  0.
         25    1    1    2    0    0  0.13989984194E+03 -0.24401289809E+01  0.32767966853E+03  0.37759354493E+03  0.12500000000E+03 0.  0.
</event>
<event>
 4    0  0.2134002E-002  0.3880147E+03  0.7546771E-02  0.1048011E+00
         21   -1    0    0  502  501  0.00000000000E+00  0.00000000000E+00  0.76057457084E+03  0.76057457084E+03  0.00000000000E+00 0.  1.
         21   -1    0    0  501  502 -0.00000000000E+00 -0.00000000000E+00 -0.19794961805E+03  0.19794961805E+03  0.00000000000E+00 0.  1.
         25    1    1    2    0    0  0.20584506345E+03  0.11311340028E+03  0.63015326470E+03  0.68402117547E+03  0.12500000000E+03 0.  0.
         25    1    1    2    0    0 -0.20584506345E+03 -0.11311340028E+03 -0.67528311917E+02  0.27450301343E+03  0.12500000000E+03 0.  0.
</event>
<event>
 4    0  0.2134002E-002  0.2940651E+03  0.7546771E-02  0.1088246E+00
         21   -1    0    0  502  501  0.00000000000E+00  0.00000000000E+00  0.46842888306E+03  0.46842888306E+03  0.00000000000E+00 0. -1.
         21   -1    0    0  501  502 -0.00000000000E+00 -0.00000000000E+00 -0.18460488344E+03  0.18460488344E+03  0.00000000000E+00 0. -1.
         25    1    1    2    0    0  0.22128159033E+03  0.14530310611E+03  0.11108638146E+03  0.31311933669E+03  0.12500000000E+03 0.  0.
         25    1    1    2    0    0 -0.22128159033E+03 -0.14530310611E+03  0.17273761816E+03  0.33991442981E+03  0.12500000000E+03 0.  0.
</event>
<event>
 4    0  0.2134002E-002  0.1871599E+03  0.7546771E-02  0.1161048E+00
         21   -1    0    0  502  501  0.00000000000E+00  0.00000000000E+00  0.29208751205E+03  0.29208751205E+03  0.00000000000E+00 0. -1.
         21   -1    0    0  501  502 -0.00000000000E+00 -0.00000000000E+00 -0.11992576696E+03  0.11992576696E+03  0.00000000000E+00 0. -1.
         25    1    1    2    0    0 -0.45505061018E+02  0.64332698688E+02 -0.40353015817E+02  0.15317562660E+03  0.12500000000E+03 0.  0.
         25    1    1    2    0    0  0.45505061018E+02 -0.64332698688E+02  0.21251476091E+03  0.25883765241E+03  0.12500000000E+03 0.  0.
</event>
<event>
 4    0  0.2134002E-002  0.2356919E+03  0.7546771E-02  0.1122697E+00
         21   -1    0    0  502  501  0.00000000000E+00  0.00000000000E+00  0.16144485891E+03  0.16144485891E+03  0.00000000000E+00 0.  1.
         21   -1    0    0  501  502 -0.00000000000E+00 -0.00000000000E+00 -0.34408435831E+03  0.34408435831E+03  0.00000000000E+00 0.  1.
         25    1    1    2    0    0 -0.63009201085E+02 -0.17264769905E+03 -0.72290593188E+01  0.22238400731E+03  0.12500000000E+03 0.  0.
         25    1    1    2    0    0  0.63009201085E+02  0.17264769905E+03 -0.17541044008E+03  0.28314520991E+03  0.12500000000E+03 0.  0.
</event>
<event>
 4    0  0.2134002E-002  0.1982910E+03  0.7546771E-02  0.1151189E+00
         21   -1    0    0  502  501  0.00000000000E+00  0.00000000000E+00  0.34503441121E+03  0.34503441121E+03  0.00000000000E+00 0.  1.
         21   -1    0    0  501  502 -0.00000000000E+00 -0.00000000000E+00 -0.11395767668E+03  0.11395767668E+03  0.00000000000E+00 0.  1.
         25    1    1    2    0    0  0.46011892950E+01 -0.15067867335E+03  0.79509265202E+02  0.21135741482E+03  0.12500000000E+03 0.  0.
         25    1    1    2    0    0 -0.46011892950E+01  0.15067867335E+03  0.15156746933E+03  0.24763467307E+03  0.12500000000E+03 0.  0.
</event>
<event>
 4    0  0.2134002E-002  0.2819842E+03  0.7546771E-02  0.1094610E+00
         21   -1    0    0  502  501  0.00000000000E+00  0.00000000000E+00  0.57697889847E+02  0.57697889847E+02  0.00000000000E+00 0. -1.
         21   -1    0    0  501  502 -0.00000000000E+00 -0.00000000000E+00 -0.13781283860E+04  0.13781283860E+04  0.00000000000E+00 0. -1.
         25    1    1    2    0    0  0.40916011372E+02 -0.91697184195E+02 -0.12507819178E+04  0.12610166135E+04  0.12500000000E+03 0.  0.
         25    1    1    2    0    0 -0.40916011372E+02  0.91697184195E+02 -0.69648578284E+02  0.17480966230E+03  0.12500000000E+03 0.  0.
</event>
<event>
 4    0  0.2134002E-002  0.1765526E+03  0.7546771E-02  0.1171182E+00
         21   -1    0    0  502  501  0.00000000000E+00  0.00000000000E+00  0.12899157729E+03  0.12899157729E+03  0.00000000000E+00 0.  1.
         21   -1    0    0  501  502 -0.00000000000E+00 -0.00000000000E+00 -0.24165006966E+03  0.24165006966E+03  0.00000000000E+00 0.  1.
         25    1    1    2    0    0  0.99565610201E+02 -0.53269579240E+02 -0.83723225220E+00  0.16845373182E+03  0.12500000000E+03 0.  0.
         25    1    1    2    0    0 -0.99565610201E+02  0.53269579240E+02 -0.11182126012E+03  0.20218791512E+03  0.12500000000E+03 0.  0.
</event>
<event>
 4    0  0.2134002E-002  0.1554313E+03  0.7546771E-02  0.1193953E+00
         21   -1    0    0  502  501  0.00000000000E+00  0.00000000000E+00  0.13369260088E+03  0.13369260088E+03  0.00000000000E+00 0. -1.
         21   -1    0    0  501  502 -0.00000000000E+00 -0.00000000000E+00 -0.18070486647E+03  0.18070486647E+03  0.00000000000E+00 0. -1.
         25    1    1    2    0    0 -0.63614606763E+02  0.36739554686E+02  0.33142287203E+02  0.14872802114E+03  0.12500000000E+03 0.  0.
         25    1    1    2    0    0  0.63614606763E+02 -0.36739554686E+02 -0.80154552791E+02  0.16566944620E+03  0.12500000000E+03 0.  0.
</event>
<event>
 4    0  0.2134002E-002  0.2725329E+03  0.7546771E-02  0.1099839E+00
         21   -1    0    0  502  501  0.00000000000E+00  0.00000000000E+00  0.70542104295E+03  0.70542104295E+03  0.00000000000E+00 0. -1.
         21   -1    0    0  501  502 -0.00000000000E+00 -0.00000000000E+00 -0.10529054879E+03  0.10529054879E+03  0.00000000000E+00 0. -1.
         25    1    1    2    0    0  0.28975892594E+02 -0.13802218556E+03  0.59288896396E+03  0.62211899958E+03  0.12500000000E+03 0.  0.
         25    1    1    2    0    0 -0.28975892594E+02  0.13802218556E+03  0.72415301980E+01  0.18859259216E+03  0.12500000000E+03 0.  0.
</event>
<event>
 4    0  0.2134002E-002  0.3000897E+03  0.7546771E-02  0.1085196E+00
         21   -1    0    0  502  501  0.00000000000E+00  0.00000000000E+00  0.45670543268E+02  0.45670543268E+02  0.00000000000E+00 0.  1.
         21   -1    0    0  501  502 -0.00000000000E+00 -0.00000000000E+00 -0.19718140090E+04  0.19718140090E+04  0.00000000000E+00 0.  1.
         25    1    1    2    0    0  0.18173734168E+03  0.15966737301E+03 -0.53911746762E+03  0.60398242959E+03  0.12500000000E+03 0.  0.
         25    1    1    2    0    0 -0.18173734168E+03 -0.15966737301E+03 -0.13870259982E+04  0.14135021227E+04  0.12500000000E+03 0.  0.
</event>
<event>
 4    0  0.2134002E-002  0.2430298E+03  0.7546771E-02  0.1117791E+00
         21   -1    0    0  502  501  0.00000000000E+00  0.00000000000E+00  0.16252848629E+03  0.16252848629E+03  0.00000000000E+00 0.  1.
         21   -1    0    0  501  502 -0.00000000000E+00 -0.00000000000E+00 -0.36340397012E+03  0.36340397012E+03  0.00000000000E+00 0.  1.
         25    1    1    2    0    0 -0.14540938440E+03  0.69792366302E+02  0.42389077276E+02  0.20841472438E+03  0.12500000000E+03 0.  0.
         25    1    1    2    0    0  0.14540938440E+03 -0.69792366302E+02 -0.24326456111E+03  0.31751773204E+03  0.12500000000E+03 0.  0.
</event>
<event>
 4    0  0.2134002E-002  0.2758846E+03  0.7546771E-02  0.1097958E+00
         21   -1    0    0  502  501  0.00000000000E+00  0.00000000000E+00  0.74158647292E+03  0.74158647292E+03  0.00000000000E+00 0.  1.
         21   -1    0    0  501  502 -0.00000000000E+00 -0.00000000000E+00 -0.10263441322E+03  0.10263441322E+03  0.00000000000E+00 0.  1.
         25    1    1    2    0    0  0.12980767610E+03  0.18257961959E+03  0.47477130782E+03  0.53964631472E+03  0.12500000000E+03 0.  0.
         25    1    1    2    0    0 -0.12980767610E+03 -0.18257961959E+03  0.16418075188E+03  0.30457457142E+03  0.12500000000E+03 0.  0.
</event>
<event>
 4    0  0.2134002E-002  0.1782492E+03  0.7546771E-02  0.1169508E+00
         21   -1    0    0  502  501  0.00000000000E+00  0.00000000000E+00  0.41832209072E+03  0.41832209072E+03  0.00000000000E+00 0.  1.
         21   -1    0    0  501  502 -0.00000000000E+00 -0.00000000000E+00 -0.75952917850E+02  0.75952917850E+02  0.00000000000E+00 0.  1.
         25    1    1    2    0    0  0.78157053689E+02 -0.60369936251E+02  0.60312529996E+02  0.17033982364E+03  0.12500000000E+03 0.  0.
         25    1    1    2    0    0 -0.78157053689E+02  0.60369936251E+02  0.28205664288E+03  0.32393518493E+03  0.12500000000E+03 0.  0.
</event>
<event>
 4    0  0.2134002E-002  0.3440409E+03  0.7546771E-02  0.1065088E+00
         21   -1    0    0  502  501  0.00000000000E+00  0.00000000000E+00  0.16103376750E+03  0.16103376750E+03  0.00000000000E+00 0.  1.
         21   -1    0    0  501  502 -0.00000000000E+00 -0.00000000000E+00 -0.73502689777E+03  0.73502689777E+03  0.00000000000E+00 0.  1.
         25    1    1    2    0    0  0.31632719233E+01 -0.16168158459E+03 -0.64739117174E+03  0.67888973356E+03  0.12500000000E+03 0.  0.
         25    1    1    2    0    0 -0.31632719233E+01  0.16168158459E+03  0.73398041474E+02  0.21717093170E+03  0.12500000000E+03 0.  0.
</event>
<event>
 4    0  0.2134002E-002  0.1952122E+03  0.7546771E-02  0.1153843E+00
         21   -1    0    0  502  501  0.00000000000E+00  0.00000000000E+00  0.53101683308E+02  0.53101683308E+02  0.00000000000E+00 0.  1.
         21   -1    0    0  501  502 -0.00000000000E+00 -0.00000000000E+00 -0.71763795735E+03  0.71763795735E+03  0.00000000000E+00 0.  1.
         25    1    1    2    0    0 -0.18649967392E+02  0.81649511312E+02 -0.86745000523E+02  0.17367832075E+03  0.12500000000E+03 0.  0.
         25    1    1    2    0    0  0.18649967392E+02 -0.81649511312E+02 -0.57779127352E+03  0.59706131991E+03  0.12500000000E+03 0.  0.
</event>
<event>
 4    0  0.2134002E-002  0.1835929E+03  0.7546771E-02  0.1164370E+00
         21   -1    0    0  502  501  0.00000000000E+00  0.00000000000E+00  0.35909799136E+03  0.35909799136E+03  0.00000000000E+00 0.  1.
         21   -1    0    0  501  502 -0.00000000000E+00 -0.00000000000E+00 -0.93863971256E+02  0.93863971256E+02  0.00000000000E+00 0.  1.
         25    1    1    2    0    0  0.60398115617E+02  0.61302859672E+01  0.28062816781E+03  0.31314961495E+03  0.12500000000E+03 0.  0.
         25    1    1    2    0    0 -0.60398115617E+02 -0.61302859672E+01 -0.15394147704E+02  0.13981234767E+03  0.12500000000E+03 0.  0.
</event>
<event>
 4    0  0.2134002E-002  0.2796296E+03  0.7546771E-02  0.1095891E+00
         21   -1    0    0  502  501  0.00000000000E+00  0.00000000000E+00  0.13536850115E+04  0.13536850115E+04  0.00000000000E+00 0.  1.
         21   -1    0    0  501  502 -0.00000000000E+00 -0.00000000000E+00 -0.57762844020E+02  0.57762844020E+02  0.00000000000E+00 0.  1.
         25    1    1    2    0    0 -0.20068194250E+03 -0.66246551033E+01  0.10244240849E+04  0.10513737841E+04  0.12500000000E+03 0.  0.
         25    1    1    2    0    0  0.20068194250E+03  0.66246551033E+01  0.27149808264E+03  0.36007407151E+03  0.12500000000E+03 0.  0.
</event>
<event>
 4    0  0.2134002E-002  0.2428822E+03  0.7546771E-02  0.1117888E+00
         21   -1    0    0  502  501  0.00000000000E+00  0.00000000000E+00  0.94910163277E+02  0.94910163277E+02  0.00000000000E+00 0.  1.
         21   -1    0    0  501  502 -0.00000000000E+00 -0.00000000000E+00 -0.62155344524E+03  0.62155344524E+03  0.00000000000E+00 0.  1.
         25    1    1    2    0    0  0.76553511229E+02 -0.95183347274E+02 -0.51208271376E+03  0.54108595935E+03  0.12500000000E+03 0.  0.
         25    1    1    2    0    0 -0.76553511229E+02  0.95183347274E+02 -0.14560568207E+02  0.17537764916E+03  0.12500000000E+03 0.  0.
</event>
<event>
 4    0  0.2134002E-002  0.1865043E+03  0.7546771E-02  0.1161653E+00
         21   -1    0    0  502  501  0.00000000000E+00  0.00000000000E+00  0.23626879084E+03  0.23626879084E+03  0.00000000000E+00 0. -1.
         21   -1    0    0  501  502 -0.00000000000E+00 -0.00000000000E+00 -0.14722157505E+03  0.14722157505E+03  0.00000000000E+00 0. -1.
         25    1    1    2    0    0  0.10036068371E+03 -0.42601531814E+02 -0.43146938696E+02  0.17138790992E+03  0.12500000000E+03 0.  0.
         25    1    1    2    0    0 -0.10036068371E+03  0.42601531814E+02  0.13219415449E+03  0.21210245597E+03  0.12500000000E+03 0.  0.
</event>
<event>
 4    0  0.2134002E-002  0.1487537E+03  0.7546771E-02  0.1202013E+00
         21   -1    0    0  502  501  0.00000000000E+00  0.00000000000E+00  0.17035733594E+04  0.17035733594E+04  0.00000000000E+00 0. -1.
         21   -1    0    0  501  502 -0.00000000000E+00 -0.00000000000E+00 -0.12988967559E+02  0.12988967559E+02  0.00000000000E+00 0. -1.
         25    1    1    2    0    0  0.54958957592E+02  0.57404077434E+02  0.92418140124E+03  0.93597648342E+03  0.12500000000E+03 0.  0.
         25    1    1    2    0    0 -0.54958957592E+02 -0.57404077434E+02  0.76640299064E+03  0.78058584357E+03  0.12500000000E+03 0.  0.
</event>
<event>
 4    0  0.2134002E-002  0.2378505E+03  0.7546771E-02  0.1121233E+00
         21   -1    0    0  502  501  0.00000000000E+00  0.00000000000E+00  0.82682484572E+03  0.82682484572E+03  0.00000000000E+00 0. -1.
         21   -1    0    0  501  502 -0.00000000000E+00 -0.00000000000E+00 -0.68421843574E+02  0.68421843574E+02  0.00000000000E+00 0. -1.
         25    1    1    2    0    0  0.13225085391E+03 -0.13964636883E+03  0.26082560863E+03  0.34734189900E+03  0.12500000000E+03 0.  0.
         25    1    1    2    0    0 -0.13225085391E+03  0.13964636883E+03  0.49757739352E+03  0.54790479029E+03  0.12500000000E+03 0.  0.
</event>
<event>
 4    0  0.2134002E-002  0.3164750E+03  0.7546771E-02  0.1077283E+00
         21   -1    0    0  502  501  0.00000000000E+00  0.00000000000E+00  0.12254751591E+03  0.12254751591E+03  0.00000000000E+00 0. -1.
         21   -1    0    0  501  502 -0.00000000000E+00 -0.00000000000E+00 -0.81728629852E+03  0.81728629852E+03  0.00000000000E+00 0. -1.
         25    1    1    2    0    0 -0.11910370974E+03 -0.19273470630E+03 -0.76821283424E+02  0.26992382309E+03  0.12500000000E+03 0.  0.
         25    1    1    2    0    0  0.11910370974E+03  0.19273470630E+03 -0.61791749919E+03  0.66990999133E+03  0.12500000000E+03 0.  0.
</event>
<event>
 4    0  0.2134002E-002  0.2635293E+03  0.7546771E-02  0.1105041E+00
         21   -1    0    0  502  501  0.00000000000E+00  0.00000000000E+00  0.91912847375E+03  0.91912847375E+03  0.00000000000E+00 0.  1.
         21   -1    0    0  501  502 -0.00000000000E+00 -0.00000000000E+00 -0.75558214340E+02  0.75558214340E+02  0.00000000000E+00 0.  1.
         25    1    1    2    0    0  0.19025699675E+03  0.98356287004E+02  0.25350267412E+03  0.35462697274E+03  0.12500000000E+03 0.  0.
         25    1    1    2    0    0 -0.19025699675E+03 -0.98356287004E+02  0.59006758530E+03  0.64005971536E+03  0.12500000000E+03 0.  0.
</event>
<event>
 4    0  0.2134002E-002  0.1963282E+03  0.7546771E-02  0.1152874E+00
         21   -1    0    0  502  501  0.00000000000E+00  0.00000000000E+00  0.59090153500E+02  0.59090153500E+02  0.00000000000E+00 0. -1.
         21   -1    0    0  501  502 -0.00000000000E+00 -0.00000000000E+00 -0.65230441511E+03  0.65230441511E+03  0.00000000000E+00 0. -1.
         25    1    1    2    0    0 -0.56922343285E+02 -0.69791637568E+02 -0.51708089520E+03  0.53954488045E+03  0.12500000000E+03 0.  0.
         25    1    1    2    0    0  0.56922343285E+02  0.69791637568E+02 -0.76133366409E+02  0.17184968816E+03  0.12500000000E+03 0.  0.
</event>
<event>
 4    0  0.2134002E-002  0.3190573E+03  0.7546771E-02  0.1076084E+00
         21   -1    0    0  502  501  0.00000000000E+00  0.00000000000E+00  0.13972803709E+03  0.13972803709E+03  0.00000000000E+00 0. -1.
         21   -1    0    0  501  502 -0.00000000000E+00 -0.00000000000E+00 -0.72854069828E+03  0.72854069828E+03  0.00000000000E+00 0. -1.
         25    1    1    2    0    0 -0.15725607164E+03  0.23748860865E+03 -0.19778618572E+03  0.36861183726E+03  0.12500000000E+03 0.  0.
         25    1    1    2    0    0  0.15725607164E+03 -0.23748860865E+03 -0.39102647547E+03  0.49965689811E+03  0.12500000000E+03 0.  0.
</event>
<event>
 4    0  0.2134002E-002  0.2576729E+03  0.7546771E-02  0.1108550E+00
         21   -1    0    0  502  501  0.00000000000E+00  0.00000000000E+00  0.83491410170E+02  0.83491410170E+02  0.00000000000E+00 0.  1.
         21   -1    0    0  501  502 -0.00000000000E+00 -0.00000000000E+00 -0.79523516613E+03  0.79523516613E+03  0.00000000000E+00 0.  1.
         25    1    1    2    0    0 -0.91272979555E+02 -0.20555218805E+03 -0.37924177406E+03  0.45829224519E+03  0.12500000000E+03 0.  0.
         25    1    1    2    0    0  0.91272979555E+02  0.20555218805E+03 -0.33250198190E+03  0.42043433111E+03  0.12500000000E+03 0.  0.
</event>
<event>
 4    0  0.2134002E-002  0.2600203E+03  0.7546771E-02  0.1107131E+00
         21   -1    0    0  502  501  0.00000000000E+00  0.00000000000E+00  0.80180039840E+02  0.80180039840E+02  0.00000000000E+00 0. -1.
         21   -1    0    0  501  502 -0.00000000000E+00 -0.00000000000E+00 -0.84323428580E+03  0.84323428580E+03  0.00000000000E+00 0. -1.
         25    1    1    2    0    0 -0.57539817379E+02  0.50646165767E+02 -0.76281717081E+03  0.77678240246E+03  0.12500000000E+03 0.  0.
         25    1    1    2    0    0  0.57539817379E+02 -0.50646165767E+02 -0.23707515089E+00  0.14663192318E+03  0.12500000000E+03 0.  0.
</event>
<event>
 4    0  0.2134002E-002  0.1905751E+03  0.7546771E-02  0.1157944E+00
         21   -1    0    0  502  501  0.00000000000E+00  0.00000000000E+00  0.93456000584E+02  0.93456000584E+02  0.00000000000E+00 0.  1.
         21   -1    0    0  501  502 -0.00000000000E+00 -0.00000000000E+00 -0.38861991421E+03  0.38861991421E+03  0.00000000000E+00 0.  1.
         25    1    1    2    0    0  0.30368503500E+02 -0.13971815750E+03 -0.16759820941E+03  0.25329344511E+03  0.12500000000E+03 0.  0.
         25    1    1    2    0    0 -0.30368503500E+02  0.13971815750E+03 -0.12756570422E+03  0.22878246968E+03  0.12500000000E+03 0.  0.
</event>
<event>
 4    0  0.2134002E-002  0.2329638E+03  0.7546771E-02  0.1124571E+00
         21   -1    0    0  502  501  0.00000000000E+00  0.00000000000E+00  0.22812558104E+03  0.22812558104E+03  0.00000000000E+00 0.  1.
         21   -1    0    0  501  502 -0.00000000000E+00 -0.00000000000E+00 -0.23790473264E+03  0.23790473264E+03  0.00000000000E+00 0.  1.
         25    1    1    2    0    0  0.17941263515E+03 -0.76558868546E+02  0.19549416684E+02  0.23250233052E+03  0.12500000000E+03 0.  0.
         25    1    1    2    0    0 -0.17941263515E+03  0.76558868546E+02 -0.29328568283E+02  0.23352798317E+03  0.12500000000E+03 0.  0.
</event>
<event>
 4    0  0.2134002E-002  0.1923479E+03  0.7546771E-02  0.1156361E+00
         21   -1    0    0  502  501  0.00000000000E+00  0.00000000000E+00  0.29070157018E+02  0.29070157018E+02  0.00000000000E+00 0. -1.
         21   -1    0    0  501  502 -0.00000000000E+00 -0.00000000000E+00 -0.12727043244E+04  0.12727043244E+04  0.00000000000E+00 0. -1.
         25    1    1    2    0    0  0.10923192868E+03  0.71219830514E+02 -0.84548370786E+03  0.86456438670E+03  0.12500000000E+03 0.  0.
         25    1    1    2    0    0 -0.10923192868E+03 -0.71219830514E+02 -0.39815045955E+03  0.43721009474E+03  0.12500000000E+03 0.  0.
</event>
<event>
 4    0  0.2134002E-002  0.3819613E+03  0.7546771E-02  0.1050211E+00
         21   -1    0    0  502  501  0.00000000000E+00  0.00000000000E+00  0.15631775819E+03  0.15631775819E+03  0.00000000000E+00 0.  1.
         21   -1    0    0  501  502 -0.00000000000E+00 -0.00000000000E+00 -0.93331962392E+03  0.93331962392E+03  0.00000000000E+00 0.  1.
         25    1    1    2    0    0 -0.24925308216E+03 -0.19132523510E+03 -0.13519653010E+03  0.36419163404E+03  0.12500000000E+03 0.  0.
         25    1    1    2    0    0  0.24925308216E+03  0.19132523510E+03 -0.64180533563E+03  0.72544574807E+03  0.12500000000E+03 0.  0.
</event>
<event>
 4    0  0.2134002E-002  0.1841297E+03  0.7546771E-02  0.1163865E+00
         21   -1    0    0  502  501  0.00000000000E+00  0.00000000000E+00  0.17806683846E+03  0.17806683846E+03  0.00000000000E+00 0.  1.
         21   -1    0    0  501  502 -0.00000000000E+00 -0.00000000000E+00 -0.19039892906E+03  0.19039892906E+03  0.00000000000E+00 0.  1.
         25    1    1    2    0    0  0.15959355120E+02 -0.10622247432E+03  0.75982475840E+02  0.18148347501E+03  0.12500000000E+03 0.  0.
         25    1    1    2    0    0 -0.15959355120E+02  0.10622247432E+03 -0.88314566447E+02  0.18698229251E+03  0.12500000000E+03 0.  0.
</event>
<event>
 4    0  0.2134002E-002  0.2232685E+03  0.7546771E-02  0.1131469E+00
         21   -1    0    0  502  501  0.00000000000E+00  0.00000000000E+00  0.89579118454E+02  0.89579118454E+02  0.00000000000E+00 0. -1.
         21   -1    0    0  501  502 -0.00000000000E+00 -0.00000000000E+00 -0.55647828940E+03  0.55647828940E+03  0.00000000000E+00 0. -1.
         25    1    1    2    0    0 -0.14880588077E+03  0.88849483431E+02 -0.13983690433E+03  0.25537576367E+03  0.12500000000E+03 0.  0.
         25    1    1    2    0    0  0.14880588077E+03 -0.88849483431E+02 -0.32706226662E+03  0.39068164419E+03  0.12500000000E+03 0.  0.
</event>
<event>
 4    0  0.2134002E-002  0.2265971E+03  0.7546771E-02  0.1129058E+00
         21   -1    0    0  502  501  0.00000000000E+00  0.00000000000E+00  0.28497851517E+02  0.28497851517E+02  0.00000000000E+00 0. -1.
         21   -1    0    0  501  502 -0.00000000000E+00 -0.00000000000E+00 -0.18017589862E+04  0.18017589862E+04  0.00000000000E+00 0. -1.
         25    1    1    2    0    0 -0.49415847429E+02 -0.15335152116E+03 -0.12856659292E+04  0.13017374914E+04  0.12500000000E+03 0.  0.
         25    1    1    2    0    0  0.49415847429E+02  0.15335152116E+03 -0.48759520548E+03  0.52851934632E+03  0.12500000000E+03 0.  0.
</event>
<event>
 4    0  0.2134002E-002  0.2191852E+03  0.7546771E-02  0.1134492E+00
         21   -1    0    0  502  501  0.00000000000E+00  0.00000000000E+00  0.43207235632E+02  0.43207235632E+02  0.00000000000E+00 0. -1.
         21   -1    0    0  501  502 -0.00000000000E+00 -0.00000000000E+00 -0.11119002581E+04  0.11119002581E+04  0.00000000000E+00 0. -1.
         25    1    1    2    0    0 -0.12675667954E+03 -0.11454582933E+03 -0.68408183229E+03  0.71608725453E+03  0.12500000000E+03 0.  0.
         25    1    1    2    0    0  0.12675667954E+03  0.11454582933E+03 -0.38461119023E+03  0.43902023926E+03  0.12500000000E+03 0.  0.
</event>
<event>
 4    0  0.2134002E-002  0.2046902E+03  0.7546771E-02  0.1145841E+00
         21   -1    0    0  502  501  0.00000000000E+00  0.00000000000E+00  0.70062944009E+03  0.70062944009E+03  0.00000000000E+00 0.  1.
         21   -1    0    0  501  502 -0.00000000000E+00 -0.00000000000E+00 -0.59800624229E+02  0.59800624229E+02  0.00000000000E+00 0.  1.
         25    1    1    2    0    0 -0.25095126937E+02  0.54943072626E+02  0.41016974604E+02  0.14476152400E+03  0.12500000000E+03 0.  0.
         25    1    1    2    0    0  0.25095126937E+02 -0.54943072626E+02  0.59981184125E+03  0.61566854031E+03  0.12500000000E+03 0.  0.
</event>
<event>
 4    0  0.2134002E-002  0.2958526E+03  0.7546771E-02  0.1087332E+00
         21   -1    0    0  502  501  0.00000000000E+00  0.00000000000E+00  0.81813643337E+02  0.81813643337E+02  0.00000000000E+00 0. -1.
         21   -1    0    0  501  502 -0.00000000000E+00 -0.00000000000E+00 -0.10698556471E+04  0.10698556471E+04  0.00000000000E+00 0. -1.
         25    1    1    2    0    0 -0.93737167952E+02  0.92002723639E+00 -0.98300319895E+03  0.99534305255E+03  0.12500000000E+03 0.  0.
         25    1    1    2    0    0  0.93737167952E+02 -0.92002723639E+00 -0.50388048354E+01  0.15632623791E+03  0.12500000000E+03 0.  0.
</event>
<event>
 4    0  0.2134002E-002  0.2355099E+03  0.7546771E-02  0.1122821E+00
         21   -1    0    0  502  501  0.00000000000E+00  0.00000000000E+00  0.99459952691E+02  0.99459952691E+02  0.00000000000E+00 0. -1.
         21   -1    0    0  501  502 -0.00000000000E+00 -0.00000000000E+00 -0.55766096086E+03  0.55766096086E+03  0.00000000000E+00 0. -1.
         25    1    1    2    0    0 -0.39488748420E+02  0.19151718108E+03 -0.17326606229E+03  0.28962789962E+03  0.12500000000E+03 0.  0.
         25    1    1    2    0    0  0.39488748420E+02 -0.19151718108E+03 -0.28493494589E+03  0.36749301393E+03  0.12500000000E+03 0.  0.
</event>
<event>
 4    0  0.2134002E-002  0.2167564E+03  0.7546771E-02  0.1136325E+00
         21   -1    0    0  502  501  0.00000000000E+00  0.00000000000E+00  0.61207003932E+03  0.61207003932E+03  0.00000000000E+00 0.  1.
         21   -1    0    0  501  502 -0.00000000000E+00 -0.00000000000E+00 -0.76761352611E+02  0.76761352611E+02  0.00000000000E+00 0.  1.
         25    1    1    2    0    0 -0.88468517140E+02  0.15334253536E+03  0.27434163437E+03  0.34961256274E+03  0.12500000000E+03 0.  0.
         25    1    1    2    0    0  0.88468517140E+02 -0.15334253536E+03  0.26096705234E+03  0.33921882920E+03  0.12500000000E+03 0.  0.
</event>
<event>
 4    0  0.2134002E-002  0.2784991E+03  0.7546771E-02  0.1096512E+00
         21   -1    0    0  502  501  0.00000000000E+00  0.00000000000E+00  0.10883065360E+03  0.10883065360E+03  0.00000000000E+00 0.  1.
         21   -1    0    0  501  502 -0.00000000000E+00 -0.00000000000E+00 -0.71268307538E+03  0.71268307538E+03  0.00000000000E+00 0.  1.
         25    1    1    2    0    0 -0.81212145698E+01  0.17459610483E+03 -0.56322414019E+03  0.60282351152E+03  0.12500000000E+03 0.  0.
         25    1    1    2    0    0  0.81212145698E+01 -0.17459610483E+03 -0.40628281585E+02  0.21869021746E+03  0.12500000000E+03 0.  0.
</event>
<event>
 4    0  0.2134002E-002  0.2066941E+03  0.7546771E-02  0.1144211E+00
         21   -1    0    0  502  501  0.00000000000E+00  0.00000000000E+00  0.32288248732E+02  0.32288248732E+02  0.00000000000E+00 0. -1.
         21   -1    0    0  501  502 -0.00000000000E+00 -0.00000000000E+00 -0.13231575367E+04  0.13231575367E+04  0.00000000000E+00 0. -1.
         25    1    1    2    0    0  0.12890485210E+03  0.97927438025E+02 -0.54755088002E+03  0.58450253226E+03  0.12500000000E+03 0.  0.
         25    1    1    2    0    0 -0.12890485210E+03 -0.97927438025E+02 -0.74331840797E+03  0.77094325319E+03  0.12500000000E+03 0.  0.
</event>
<event>
 4    0  0.2134002E-002  0.1745294E+03  0.7546771E-02  0.1173205E+00
         21   -1    0    0  502  501  0.00000000000E+00  0.00000000000E+00  0.33617738172E+03  0.33617738172E+03  0.00000000000E+00 0.  1.
         21   -1    0    0  501  502 -0.00000000000E+00 -0.00000000000E+00 -0.90608433116E+02  0.90608433116E+02  0.00000000000E+00 0.  1.
         25    1    1    2    0    0 -0.92024055877E+02  0.40565844180E+02  0.20679834984E+03  0.26173378091E+03  0.12500000000E+03 0.  0.
         25    1    1    2    0    0  0.92024055877E+02 -0.40565844180E+02  0.38770598765E+02  0.16505203392E+03  0.12500000000E+03 0.  0.
</event>
<event>
 4    0  0.2134002E-002  0.2296866E+03  0.7546771E-02  0.1126861E+00
         21   -1    0    0  502  501  0.00000000000E+00  0.00000000000E+00  0.16504843994E+03  0.16504843994E+03  0.00000000000E+00 0.  1.
         21   -1    0    0  501  502 -0.00000000000E+00 -0.00000000000E+00 -0.31963903171E+03  0.31963903171E+03  0.00000000000E+00 0.  1.
         25    1    1    2    0    0  0.11593906147E+03  0.14978444189E+03 -0.11465378263E+03  0.25425918838E+03  0.12500000000E+03 0.  0.
         25    1    1    2    0    0 -0.11593906147E+03 -0.14978444189E+03 -0.39936809151E+02  0.23042828327E+03  0.12500000000E+03 0.  0.
</event>
<event>
 4    0  0.2134002E-002  0.1787082E+03  0.7546771E-02  0.1169059E+00
         21   -1    0    0  502  501  0.00000000000E+00  0.00000000000E+00  0.53949485449E+03  0.53949485449E+03  0.00000000000E+00 0. -1.
         21   -1    0    0  501  502 -0.00000000000E+00 -0.00000000000E+00 -0.59197263192E+02  0.59197263192E+02  0.00000000000E+00 0. -1.
         25    1    1    2    0    0  0.48547327426E+02 -0.38705653266E+02  0.53196983969E+02  0.14936495472E+03  0.12500000000E+03 0.  0.
         25    1    1    2    0    0 -0.48547327426E+02  0.38705653266E+02  0.42710060733E+03  0.44932716296E+03  0.12500000000E+03 0.  0.
</event>
<event>
 4    0  0.2134002E-002  0.2338414E+03  0.7546771E-02  0.1123965E+00
         21   -1    0    0  502  501  0.00000000000E+00  0.00000000000E+00  0.80822182898E+02  0.80822182898E+02  0.00000000000E+00 0.  1.
         21   -1    0    0  501  502 -0.00000000000E+00 -0.00000000000E+00 -0.67656904327E+03  0.67656904327E+03  0.00000000000E+00 0.  1.
         25    1    1    2    0    0  0.91269236043E+01 -0.14095671376E+03 -0.52171406797E+03  0.55476361146E+03  0.12500000000E+03 0.  0.
         25    1    1    2    0    0 -0.91269236043E+01  0.14095671376E+03 -0.74032792405E+02  0.20262761471E+03  0.12500000000E+03 0.  0.
</event>
<event>
 4    0  0.2134002E-002  0.2233905E+03  0.7546771E-02  0.1131380E+00
         21   -1    0    0  502  501  0.00000000000E+00  0.00000000000E+00  0.57185790663E+02  0.57185790663E+02  0.00000000000E+00 0. -1.
         21   -1    0    0  501  502 -0.00000000000E+00 -0.00000000000E+00 -0.87265275082E+03  0.87265275082E+03  0.00000000000E+00 0. -1.
         25    1    1    2    0    0  0.13442151961E+03 -0.11602411158E+03 -0.51682458934E+03  0.56059200454E+03  0.12500000000E+03 0.  0.
         25    1    1    2    0    0 -0.13442151961E+03  0.11602411158E+03 -0.29864237082E+03  0.36924653695E+03  0.12500000000E+03 0.  0.
</event>
<event>
 4    0  0.2134002E-002  0.1766855E+03  0.7546771E-02  0.1171050E+00
         21   -1    0    0  502  501  0.00000000000E+00  0.00000000000E+00  0.83130913324E+03  0.83130913324E+03  0.00000000000E+00 0. -1.
         21   -1    0    0  501  502 -0.00000000000E+00 -0.00000000000E+00 -0.37552541826E+02  0.37552541826E+02  0.00000000000E+00 0. -1.
         25    1    1    2    0    0  0.67369564748E+02  0.68047380662E+02  0.19981252294E+03  0.25439958450E+03  0.12500000000E+03 0.  0.
         25    1    1    2    0    0 -0.67369564748E+02 -0.68047380662E+02  0.59394406847E+03  0.61446209057E+03  0.12500000000E+03 0.  0.
</event>
<event>
 4    0  0.2134002E-002  0.2094483E+03  0.7546771E-02  0.1142004E+00
         21   -1    0    0  502  501  0.00000000000E+00  0.00000000000E+00  0.28892813603E+03  0.28892813603E+03  0.00000000000E+00 0.  1.
         21   -1    0    0  501  502 -0.00000000000E+00 -0.00000000000E+00 -0.15183218332E+03  0.15183218332E+03  0.00000000000E+00 0.  1.
         25    1    1    2    0    0  0.65417519542E+02 -0.14763726938E+03  0.19563029512E+02  0.20514367477E+03  0.12500000000E+03 0.  0.
         25    1    1    2    0    0 -0.65417519542E+02  0.14763726938E+03  0.11753292320E+03  0.23561664459E+03  0.12500000000E+03 0.  0.
</event>
<event>
 4    0  0.2134002E-002  0.1974084E+03  0.7546771E-02  0.1151944E+00
         21   -1    0    0  502  501  0.00000000000E+00  0.00000000000E+00  0.27495967648E+03  0.27495967648E+03  0.00000000000E+00 0. -1.
         21   -1    0    0  501  502 -0.00000000000E+00 -0.00000000000E+00 -0.14173020835E+03  0.14173020835E+03  0.00000000000E+00 0. -1.
         25    1    1    2    0    0  0.22861987605E+02  0.38076216154E+02 -0.87678244642E+02  0.15901239982E+03  0.12500000000E+03 0.  0.
         25    1    1    2    0    0 -0.22861987605E+02 -0.38076216154E+02  0.22090771278E+03  0.25767748501E+03  0.12500000000E+03 0.  0.
</event>
<event>
 4    0  0.2134002E-002  0.2257655E+03  0.7546771E-02  0.1129656E+00
         21   -1    0    0  502  501  0.00000000000E+00  0.00000000000E+00  0.90046477732E+02  0.90046477732E+02  0.00000000000E+00 0.  1.
         21   -1    0    0  501  502 -0.00000000000E+00 -0.00000000000E+00 -0.56604193793E+03  0.56604193793E+03  0.00000000000E+00 0.  1.
         25    1    1    2    0    0 -0.18128520832E+03 -0.48136196159E+02 -0.21940901137E+03  0.31455799848E+03  0.12500000000E+03 0.  0.
         25    1    1    2    0    0  0.18128520832E+03  0.48136196159E+02 -0.25658644882E+03  0.34153041718E+03  0.12500000000E+03 0.  0.
</event>
<event>
 4    0  0.2134002E-002  0.2167595E+03  0.7546771E-02  0.1136322E+00
         21   -1    0    0  502  501  0.00000000000E+00  0.00000000000E+00  0.97255261596E+02  0.97255261596E+02  0.00000000000E+00 0.  1.
         21   -1    0    0  501  502 -0.00000000000E+00 -0.00000000000E+00 -0.48310702193E+03  0.48310702193E+03  0.00000000000E+00 0.  1.
         25    1    1    2    0    0  0.15601875730E+03  0.58597784053E+02 -0.11277951035E+03  0.23689611833E+03  0.12500000000E+03 0.  0.
         25    1    1    2    0    0 -0.15601875730E+03 -0.58597784053E+02 -0.27307224999E+03  0.34346616520E+03  0.12500000000E+03 0.  0.
</event>
<event>
 4    0  0.2134002E-002  0.2833496E+03  0.7546771E-02  0.1093873E+00
         21   -1    0    0  502  501  0.00000000000E+00  0.00000000000E+00  0.42616992508E+03  0.42616992508E+03  0.00000000000E+00 0.  1.
         21   -1    0    0  501  502 -0.00000000000E+00 -0.00000000000E+00 -0.18839197667E+03  0.18839197667E+03  0.00000000000E+00 0. -1.
         25    1    1    2    0    0  0.33846490604E+02 -0.23992959577E+03  0.35236503405E+02  0.27491527245E+03  0.12500000000E+03 0.  0.
         25    1    1    2    0    0 -0.33846490604E+02  0.23992959577E+03  0.20254144501E+03  0.33964662931E+03  0.12500000000E+03 0.  0.
</event>
<event>
 4    0  0.2134002E-002  0.2503149E+03  0.7546771E-02  0.1113106E+00
         21   -1    0    0  502  501  0.00000000000E+00  0.00000000000E+00  0.55644511269E+03  0.55644511269E+03  0.00000000000E+00 0. -1.
         21   -1    0    0  501  502 -0.00000000000E+00 -0.00000000000E+00 -0.11260331373E+03  0.11260331373E+03  0.00000000000E+00 0. -1.
         25    1    1    2    0    0  0.19684638613E+03 -0.89957513344E+02  0.24042477955E+03  0.34679955098E+03  0.12500000000E+03 0.  0.
         25    1    1    2    0    0 -0.19684638613E+03  0.89957513344E+02  0.20341701941E+03  0.32224887544E+03  0.12500000000E+03 0.  0.
</event>
<event>
 4    0  0.2134002E-002  0.2810332E+03  0.7546771E-02  0.1095126E+00
         21   -1    0    0  502  501  0.00000000000E+00  0.00000000000E+00  0.33508862854E+03  0.33508862854E+03  0.00000000000E+00 0.  1.
         21   -1    0    0  501  502 -0.00000000000E+00 -0.00000000000E+00 -0.23569776719E+03  0.23569776719E+03  0.00000000000E+00 0.  1.
         25    1    1    2    0    0 -0.22808314554E+03  0.10633815217E+03  0.44626227167E+02  0.28451049900E+03  0.12500000000E+03 0.  0.
         25    1    1    2    0    0  0.22808314554E+03 -0.10633815217E+03  0.54764634183E+02  0.28627589672E+03  0.12500000000E+03 0.  0.
</event>
<event>
 4    0  0.2134002E-002  0.2391311E+03  0.7546771E-02  0.1120373E+00
         21   -1    0    0  502  501  0.00000000000E+00  0.00000000000E+00  0.76074433709E+02  0.76074433709E+02  0.00000000000E+00 0. -1.
         21   -1    0    0  501  502 -0.00000000000E+00 -0.00000000000E+00 -0.75168085431E+03  0.75168085431E+03  0.00000000000E+00 0. -1.
         25    1    1    2    0    0  0.20746977247E+02  0.59918720386E+02 -0.24739469675E+01  0.14018491549E+03  0.12500000000E+03 0.  0.
         25    1    1    2    0    0 -0.20746977247E+02 -0.59918720386E+02 -0.67313247364E+03  0.68757037253E+03  0.12500000000E+03 0.  0.
</event>
<event>
 4    0  0.2134002E-002  0.1915476E+03  0.7546771E-02  0.1157073E+00
         21   -1    0    0  502  501  0.00000000000E+00  0.00000000000E+00  0.89325500495E+03  0.89325500495E+03  0.00000000000E+00 0.  1.
         21   -1    0    0  501  502 -0.00000000000E+00 -0.00000000000E+00 -0.41075026289E+02  0.41075026289E+02  0.00000000000E+00 0.  1.
         25    1    1    2    0    0 -0.93411784758E+02  0.64146920327E+01  0.15561890414E+03  0.22047483559E+03  0.12500000000E+03 0.  0.
         25    1    1    2    0    0  0.93411784758E+02 -0.64146920327E+01  0.69656107453E+03  0.71385519564E+03  0.12500000000E+03 0.  0.
</event>
<event>
 4    0  0.2134002E-002  0.2849380E+03  0.7546771E-02  0.1093022E+00
         21   -1    0    0  502  501  0.00000000000E+00  0.00000000000E+00  0.85981828428E+03  0.85981828428E+03  0.00000000000E+00 0. -1.
         21   -1    0    0  501  502 -0.00000000000E+00 -0.00000000000E+00 -0.94426535096E+02  0.94426535096E+02  0.00000000000E+00 0. -1.
         25    1    1    2    0    0  0.49007166193E+02 -0.25052412519E+03  0.34918029655E+03  0.45023984624E+03  0.12500000000E+03 0.  0.
         25    1    1    2    0    0 -0.49007166193E+02  0.25052412519E+03  0.41621145263E+03  0.50400497314E+03  0.12500000000E+03 0.  0.
</event>
<event>
 4    0  0.2134002E-002  0.2016622E+03  0.7546771E-02  0.1148344E+00
         21   -1    0    0  502  501  0.00000000000E+00  0.00000000000E+00  0.13603707255E+03  0.13603707255E+03  0.00000000000E+00 0.  1.
         21   -1    0    0  501  502 -0.00000000000E+00 -0.00000000000E+00 -0.29894520764E+03  0.29894520764E+03  0.00000000000E+00 0.  1.
         25    1    1    2    0    0 -0.49891965266E+01 -0.14786153814E+03 -0.14202949201E+03  0.24017764913E+03  0.12500000000E+03 0.  0.
         25    1    1    2    0    0  0.49891965266E+01  0.14786153814E+03 -0.20878643088E+02  0.19480463106E+03  0.12500000000E+03 0.  0.
</event>
<event>
 4    0  0.2134002E-002  0.2206183E+03  0.7546771E-02  0.1133423E+00
         21   -1    0    0  502  501  0.00000000000E+00  0.00000000000E+00  0.20162632595E+03  0.20162632595E+03  0.00000000000E+00 0. -1.
         21   -1    0    0  501  502 -0.00000000000E+00 -0.00000000000E+00 -0.24139923764E+03  0.24139923764E+03  0.00000000000E+00 0. -1.
         25    1    1    2    0    0 -0.12531366158E+03 -0.78963640730E+02 -0.12571145625E+03  0.23101329089E+03  0.12500000000E+03 0.  0.
         25    1    1    2    0    0  0.12531366158E+03  0.78963640730E+02  0.85938544554E+02  0.21201227270E+03  0.12500000000E+03 0.  0.
</event>
<event>
 4    0  0.2134002E-002  0.2932666E+03  0.7546771E-02  0.1088656E+00
         21   -1    0    0  502  501  0.00000000000E+00  0.00000000000E+00  0.83133723578E+02  0.83133723578E+02  0.00000000000E+00 0. -1.
         21   -1    0    0  501  502 -0.00000000000E+00 -0.00000000000E+00 -0.10345413314E+04  0.10345413314E+04  0.00000000000E+00 0. -1.
         25    1    1    2    0    0 -0.47729262331E+02  0.20814619213E+03 -0.77565491823E+03  0.81416734887E+03  0.12500000000E+03 0.  0.
         25    1    1    2    0    0  0.47729262331E+02 -0.20814619213E+03 -0.17575268962E+03  0.30350770615E+03  0.12500000000E+03 0.  0.
</event>
<event>
 4    0  0.2134002E-002  0.2020270E+03  0.7546771E-02  0.1148040E+00
         21   -1    0    0  502  501  0.00000000000E+00  0.00000000000E+00  0.10619958127E+03  0.10619958127E+03  0.00000000000E+00 0.  1.
         21   -1    0    0  501  502 -0.00000000000E+00 -0.00000000000E+00 -0.38432271170E+03  0.38432271170E+03  0.00000000000E+00 0.  1.
         25    1    1    2    0    0  0.94230282058E+02  0.11190991309E+03 -0.64356188301E+02  0.20290365615E+03  0.12500000000E+03 0.  0.
         25    1    1    2    0    0 -0.94230282058E+02 -0.11190991309E+03 -0.21376694212E+03  0.28761863683E+03  0.12500000000E+03 0.  0.
</event>
<event>
 4    0  0.2134002E-002  0.2050739E+03  0.7546771E-02  0.1145527E+00
         21   -1    0    0  502  501  0.00000000000E+00  0.00000000000E+00  0.24311466073E+03  0.24311466073E+03  0.00000000000E+00 0.  1.
         21   -1    0    0  501  502 -0.00000000000E+00 -0.00000000000E+00 -0.17298553650E+03  0.17298553650E+03  0.00000000000E+00 0.  1.
         25    1    1    2    0    0 -0.14053758106E+03  0.43182723401E+02 -0.35330923575E+02  0.19618571164E+03  0.12500000000E+03 0.  0.
         25    1    1    2    0    0  0.14053758106E+03 -0.43182723401E+02  0.10546004780E+03  0.21991448559E+03  0.12500000000E+03 0.  0.
</event>
<event>
 4    0  0.2134002E-002  0.2303102E+03  0.7546771E-02  0.1126422E+00
         21   -1    0    0  502  501  0.00000000000E+00  0.00000000000E+00  0.20428589344E+03  0.20428589344E+03  0.00000000000E+00 0. -1.
         21   -1    0    0  501  502 -0.00000000000E+00 -0.00000000000E+00 -0.25964983112E+03  0.25964983112E+03  0.00000000000E+00 0. -1.
         25    1    1    2    0    0  0.19186710351E+01 -0.14657687464E+03  0.99437903732E+02  0.21679796626E+03  0.12500000000E+03 0.  0.
         25    1    1    2    0    0 -0.19186710351E+01  0.14657687464E+03 -0.15480184141E+03  0.24713775830E+03  0.12500000000E+03 0.  0.
</event>
<event>
 4    0  0.2134002E-002  0.2527449E+03  0.7546771E-02  0.1111582E+00
         21   -1    0    0  502  501  0.00000000000E+00  0.00000000000E+00  0.26493290248E+03  0.26493290248E+03  0.00000000000E+00 0.  1.
         21   -1    0    0  501  502 -0.00000000000E+00 -0.00000000000E+00 -0.24111755946E+03  0.24111755946E+03  0.00000000000E+00 0.  1.
         25    1    1    2    0    0 -0.16175453931E+03  0.26799591913E+02 -0.13444691537E+03  0.24613760819E+03  0.12500000000E+03 0.  0.
         25    1    1    2    0    0  0.16175453931E+03 -0.26799591913E+02  0.15826225839E+03  0.25991285375E+03  0.12500000000E+03 0.  0.
</event>
<event>
 4    0  0.2134002E-002  0.1841772E+03  0.7546771E-02  0.1163821E+00
         21   -1    0    0  502  501  0.00000000000E+00  0.00000000000E+00  0.11271963689E+04  0.11271963689E+04  0.00000000000E+00 0.  1.
         21   -1    0    0  501  502 -0.00000000000E+00 -0.00000000000E+00 -0.30093448545E+02  0.30093448545E+02  0.00000000000E+00 0.  1.
         25    1    1    2    0    0 -0.32987794465E+02 -0.12851211662E+03  0.46586418393E+03  0.50025793004E+03  0.12500000000E+03 0.  0.
         25    1    1    2    0    0  0.32987794465E+02  0.12851211662E+03  0.63123873646E+03  0.65703188743E+03  0.12500000000E+03 0.  0.
</event>
<event>
 4    0  0.2134002E-002  0.2284916E+03  0.7546771E-02  0.1127706E+00
         21   -1    0    0  502  501  0.00000000000E+00  0.00000000000E+00  0.65840845232E+02  0.65840845232E+02  0.00000000000E+00 0.  1.
         21   -1    0    0  501  502 -0.00000000000E+00 -0.00000000000E+00 -0.79294844400E+03  0.79294844400E+03  0.00000000000E+00 0.  1.
         25    1    1    2    0    0  0.14239224008E+03  0.11873381285E+03 -0.45190147067E+03  0.50419560445E+03  0.12500000000E+03 0.  0.
         25    1    1    2    0    0 -0.14239224008E+03 -0.11873381285E+03 -0.27520612810E+03  0.35459368479E+03  0.12500000000E+03 0.  0.
</event>
<event>
 4    0  0.2134002E-002  0.1963061E+03  0.7546771E-02  0.1152894E+00
         21   -1    0    0  502  501  0.00000000000E+00  0.00000000000E+00  0.82252255958E+03  0.82252255958E+03  0.00000000000E+00 0.  1.
         21   -1    0    0  501  502 -0.00000000000E+00 -0.00000000000E+00 -0.46851100852E+02  0.46851100852E+02  0.00000000000E+00 0.  1.
         25    1    1    2    0    0  0.28964779591E+01 -0.13396542879E+03  0.54372156092E+03  0.57377108807E+03  0.12500000000E+03 0.  0.
         25    1    1    2    0    0 -0.28964779591E+01  0.13396542879E+03  0.23194989781E+03  0.29560257237E+03  0.12500000000E+03 0.  0.
</event>
<event>
 4    0  0.2134002E-002  0.3831544E+03  0.7546771E-02  0.1049774E+00
         21   -1    0    0  502  501  0.00000000000E+00  0.00000000000E+00  0.19956242271E+03  0.19956242271E+03  0.00000000000E+00 0.  1.
         21   -1    0    0  501  502 -0.00000000000E+00 -0.00000000000E+00 -0.73564581992E+03  0.73564581992E+03  0.00000000000E+00 0.  1.
         25    1    1    2    0    0  0.24233755713E+03  0.24763979354E+03 -0.13929427514E+03  0.39380306503E+03  0.12500000000E+03 0.  0.
         25    1    1    2    0    0 -0.24233755713E+03 -0.24763979354E+03 -0.39678912206E+03  0.54140517760E+03  0.12500000000E+03 0.  0.
</event>
<event>
 4    0  0.2134002E-002  0.1713305E+03  0.7546771E-02  0.1176467E+00
         21   -1    0    0  502  501  0.00000000000E+00  0.00000000000E+00  0.71087467240E+03  0.71087467240E+03  0.00000000000E+00 0.  1.
         21   -1    0    0  501  502 -0.00000000000E+00 -0.00000000000E+00 -0.41292969920E+02  0.41292969920E+02  0.00000000000E+00 0.  1.
         25    1    1    2    0    0  0.37021102904E+02  0.54448078997E+02  0.54754335521E+03  0.56547668493E+03  0.12500000000E+03 0.  0.
         25    1    1    2    0    0 -0.37021102904E+02 -0.54448078997E+02  0.12203834728E+03  0.18669095739E+03  0.12500000000E+03 0.  0.
</event>
<event>
 4    0  0.2134002E-002  0.1861799E+03  0.7546771E-02  0.1161953E+00
         21   -1    0    0  502  501  0.00000000000E+00  0.00000000000E+00  0.30672985969E+03  0.30672985969E+03  0.00000000000E+00 0.  1.
         21   -1    0    0  501  502 -0.00000000000E+00 -0.00000000000E+00 -0.11300813253E+03  0.11300813253E+03  0.00000000000E+00 0.  1.
         25    1    1    2    0    0  0.18641123819E+02  0.13494510812E+03  0.12156498481E+03  0.22127069222E+03  0.12500000000E+03 0.  0.
         25    1    1    2    0    0 -0.18641123819E+02 -0.13494510812E+03  0.72156742353E+02  0.19846730000E+03  0.12500000000E+03 0.  0.
</event>
<event>
 4    0  0.2134002E-002  0.2451125E+03  0.7546771E-02  0.1116433E+00
         21   -1    0    0  502  501  0.00000000000E+00  0.00000000000E+00  0.21389695233E+03  0.21389695233E+03  0.00000000000E+00 0. -1.
         21   -1    0    0  501  502 -0.00000000000E+00 -0.00000000000E+00 -0.28088360965E+03  0.28088360965E+03  0.00000000000E+00 0. -1.
         25    1    1    2    0    0 -0.10517913043E+02  0.16137560886E+03 -0.17003699710E+03  0.26587646381E+03  0.12500000000E+03 0.  0.
         25    1    1    2    0    0  0.10517913043E+02 -0.16137560886E+03  0.10305033978E+03  0.22890409817E+03  0.12500000000E+03 0.  0.
</event>
<event>
 4    0  0.2134002E-002  0.2956207E+03  0.7546771E-02  0.1087451E+00
         21   -1    0    0  502  501  0.00000000000E+00  0.00000000000E+00  0.70727584448E+03  0.70727584448E+03  0.00000000000E+00 0. -1.
         21   -1    0    0  501  502 -0.00000000000E+00 -0.00000000000E+00 -0.12356081574E+03  0.12356081574E+03  0.00000000000E+00 0. -1.
         25    1    1    2    0    0 -0.81269325948E+02 -0.25475934714E+03  0.31449681731E+03  0.43132386485E+03  0.12500000000E+03 0.  0.
         25    1    1    2    0    0  0.81269325948E+02  0.25475934714E+03  0.26921821144E+03  0.39951279537E+03  0.12500000000E+03 0.  0.
</event>
<event>
 4    0  0.2134002E-002  0.2687710E+03  0.7546771E-02  0.1101985E+00
         21   -1    0    0  502  501  0.00000000000E+00  0.00000000000E+00  0.96691643356E+03  0.96691643356E+03  0.00000000000E+00 0. -1.
         21   -1    0    0  501  502 -0.00000000000E+00 -0.00000000000E+00 -0.74709501515E+02  0.74709501515E+02  0.00000000000E+00 0. -1.
         25    1    1    2    0    0  0.19204920583E+03 -0.81756939945E+02  0.66743022580E+03  0.71039087902E+03  0.12500000000E+03 0.  0.
         25    1    1    2    0    0 -0.19204920583E+03  0.81756939945E+02  0.22477670625E+03  0.33123505605E+03  0.12500000000E+03 0.  0.
</event>
<event>
 4    0  0.2134002E-002  0.2257901E+03  0.7546771E-02  0.1129638E+00
         21   -1    0    0  502  501  0.00000000000E+00  0.00000000000E+00  0.12472109513E+04  0.12472109513E+04  0.00000000000E+00 0.  1.
         21   -1    0    0  501  502 -0.00000000000E+00 -0.00000000000E+00 -0.40876144730E+02  0.40876144730E+02  0.00000000000E+00 0. -1.
         25    1    1    2    0    0 -0.15644651576E+03  0.10074406795E+03  0.68030335834E+03  0.71628383961E+03  0.12500000000E+03 0.  0.
         25    1    1    2    0    0  0.15644651576E+03 -0.10074406795E+03  0.52603144821E+03  0.57180325640E+03  0.12500000000E+03 0.  0.
</event>
<event>
 4    0  0.2134002E-002  0.2107196E+03  0.7546771E-02  0.1140997E+00
         21   -1    0    0  502  501  0.00000000000E+00  0.00000000000E+00  0.22333840755E+03  0.22333840755E+03  0.00000000000E+00 0.  1.
         21   -1    0    0  501  502 -0.00000000000E+00 -0.00000000000E+00 -0.19881381428E+03  0.19881381428E+03  0.00000000000E+00 0.  1.
         25    1    1    2    0    0 -0.52046790241E+02 -0.15824372844E+03  0.44376082933E+02  0.21294173546E+03  0.12500000000E+03 0.  0.
         25    1    1    2    0    0  0.52046790241E+02  0.15824372844E+03 -0.19851489660E+02  0.20921048637E+03  0.12500000000E+03 0.  0.
</event>
<event>
 4    0  0.2134002E-002  0.2449159E+03  0.7546771E-02  0.1116561E+00
         21   -1    0    0  502  501  0.00000000000E+00  0.00000000000E+00  0.15200885115E+04  0.15200885115E+04  0.00000000000E+00 0. -1.
         21   -1    0    0  501  502 -0.00000000000E+00 -0.00000000000E+00 -0.39460726371E+02  0.39460726371E+02  0.00000000000E+00 0. -1.
         25    1    1    2    0    0  0.47021589231E+02  0.17704440258E+03  0.40939219666E+03  0.46559931382E+03  0.12500000000E+03 0.  0.
         25    1    1    2    0    0 -0.47021589231E+02 -0.17704440258E+03  0.10712355885E+04  0.10939499241E+04  0.12500000000E+03 0.  0.
</event>
<event>
 4    0  0.2134002E-002  0.2438170E+03  0.7546771E-02  0.1117276E+00
         21   -1    0    0  502  501  0.00000000000E+00  0.00000000000E+00  0.86769617748E+03  0.86769617748E+03  0.00000000000E+00 0. -1.
         21   -1    0    0  501  502 -0.00000000000E+00 -0.00000000000E+00 -0.68510989634E+02  0.68510989634E+02  0.00000000000E+00 0. -1.
         25    1    1    2    0    0 -0.20739520234E+03 -0.60200665389E+01  0.34622384543E+03  0.42254581089E+03  0.12500000000E+03 0.  0.
         25    1    1    2    0    0  0.20739520234E+03  0.60200665389E+01  0.45296134242E+03  0.51366135623E+03  0.12500000000E+03 0.  0.
</event>
<event>
 4    0  0.2134002E-002  0.1552071E+03  0.7546771E-02  0.1194217E+00
         21   -1    0    0  502  501  0.00000000000E+00  0.00000000000E+00  0.18345057455E+03  0.18345057455E+03  0.00000000000E+00 0. -1.
         21   -1    0    0  501  502 -0.00000000000E+00 -0.00000000000E+00 -0.13131195822E+03  0.13131195822E+03  0.00000000000E+00 0. -1.
         25    1    1    2    0    0  0.76156527477E+02  0.41029436676E+02  0.57829338991E+02  0.16264213415E+03  0.12500000000E+03 0.  0.
         25    1    1    2    0    0 -0.76156527477E+02 -0.41029436676E+02 -0.56907226600E+01  0.15212039862E+03  0.12500000000E+03 0.  0.
</event>
<event>
 4    0  0.2134002E-002  0.1785139E+03  0.7546771E-02  0.1169249E+00
         21   -1    0    0  502  501  0.00000000000E+00  0.00000000000E+00  0.24412134509E+03  0.24412134509E+03  0.00000000000E+00 0. -1.
         21   -1    0    0  501  502 -0.00000000000E+00 -0.00000000000E+00 -0.13053839846E+03  0.13053839846E+03  0.00000000000E+00 0. -1.
         25    1    1    2    0    0 -0.69810120013E+02 -0.10476939967E+03  0.77571674673E+02  0.19362965856E+03  0.12500000000E+03 0.  0.
         25    1    1    2    0    0  0.69810120013E+02  0.10476939967E+03  0.36011271956E+02  0.18103008499E+03  0.12500000000E+03 0.  0.
</event>
<event>
 4    0  0.2134002E-002  0.2084495E+03  0.7546771E-02  0.1142800E+00
         21   -1    0    0  502  501  0.00000000000E+00  0.00000000000E+00  0.34238721456E+02  0.34238721456E+02  0.00000000000E+00 0.  1.
         21   -1    0    0  501  502 -0.00000000000E+00 -0.00000000000E+00 -0.12690661500E+04  0.12690661500E+04  0.00000000000E+00 0.  1.
         25    1    1    2    0    0 -0.33537382751E+02 -0.99763822508E+02 -0.10219940002E+04  0.10349755132E+04  0.12500000000E+03 0.  0.
         25    1    1    2    0    0  0.33537382751E+02  0.99763822508E+02 -0.21283342836E+03  0.26832935834E+03  0.12500000000E+03 0.  0.
</event>
<event>
 4    0  0.2134002E-002  0.2339519E+03  0.7546771E-02  0.1123889E+00
         21   -1    0    0  502  501  0.00000000000E+00  0.00000000000E+00  0.14408171455E+03  0.14408171455E+03  0.00000000000E+00 0.  1.
         21   -1    0    0  501  502 -0.00000000000E+00 -0.00000000000E+00 -0.37987821962E+03  0.37987821962E+03  0.00000000000E+00 0.  1.
         25    1    1    2    0    0 -0.12186083625E+03 -0.37540851587E+02 -0.28716679360E+03  0.33815550609E+03  0.12500000000E+03 0.  0.
         25    1    1    2    0    0  0.12186083625E+03  0.37540851587E+02  0.51370288536E+02  0.18580442808E+03  0.12500000000E+03 0.  0.
</event>
<event>
 4    0  0.2134002E-002  0.1850743E+03  0.7546771E-02  0.1162981E+00
         21   -1    0    0  502  501  0.00000000000E+00  0.00000000000E+00  0.60452305908E+02  0.60452305908E+02  0.00000000000E+00 0.  1.
         21   -1    0    0  501  502 -0.00000000000E+00 -0.00000000000E+00 -0.56660359485E+03  0.56660359485E+03  0.00000000000E+00 0.  1.
         25    1    1    2    0    0 -0.11353461287E+03 -0.66876159451E+02 -0.31332735614E+03  0.36216234085E+03  0.12500000000E+03 0.  0.
         25    1    1    2    0    0  0.11353461287E+03  0.66876159451E+02 -0.19282393280E+03  0.26489355991E+03  0.12500000000E+03 0.  0.
</event>
<event>
 4    0  0.2134002E-002  0.1934917E+03  0.7546771E-02  0.1155349E+00
         21   -1    0    0  502  501  0.00000000000E+00  0.00000000000E+00  0.22123154847E+04  0.22123154847E+04  0.00000000000E+00 0. -1.
         21   -1    0    0  501  502 -0.00000000000E+00 -0.00000000000E+00 -0.16923005486E+02  0.16923005486E+02  0.00000000000E+00 0. -1.
         25    1    1    2    0    0 -0.54941829615E+02 -0.12337468123E+03  0.14420844267E+04  0.14537786663E+04  0.12500000000E+03 0.  0.
         25    1    1    2    0    0  0.54941829615E+02  0.12337468123E+03  0.75330805245E+03  0.77545982391E+03  0.12500000000E+03 0.  0.
</event>
<event>
 4    0  0.2134002E-002  0.2143882E+03  0.7546771E-02  0.1138137E+00
         21   -1    0    0  502  501  0.00000000000E+00  0.00000000000E+00  0.57490395291E+03  0.57490395291E+03  0.00000000000E+00 0. -1.
         21   -1    0    0  501  502 -0.00000000000E+00 -0.00000000000E+00 -0.79947780271E+02  0.79947780271E+02  0.00000000000E+00 0. -1.
         25    1    1    2    0    0  0.57666870743E+02 -0.15976240667E+03  0.18856870528E+03  0.28290042626E+03  0.12500000000E+03 0.  0.
         25    1    1    2    0    0 -0.57666870743E+02  0.15976240667E+03  0.30638746735E+03  0.37195130692E+03  0.12500000000E+03 0.  0.
</event>
<event>
 4    0  0.2134002E-002  0.1906689E+03  0.7546771E-02  0.1157859E+00
         21   -1    0    0  502  501  0.00000000000E+00  0.00000000000E+00  0.26281876201E+02  0.26281876201E+02  0.00000000000E+00 0.  1.
         21   -1    0    0  501  502 -0.00000000000E+00 -0.00000000000E+00 -0.13832583893E+04  0.13832583893E+04  0.00000000000E+00 0.  1.
         25    1    1    2    0    0  0.47604668180E+02  0.13854036479E+02 -0.17885124931E+03  0.22376529700E+03  0.12500000000E+03 0.  0.
         25    1    1    2    0    0 -0.47604668180E+02 -0.13854036479E+02 -0.11781252638E+04  0.11857749685E+04  0.12500000000E+03 0.  0.
</event>
<event>
 4    0  0.2134002E-002  0.2223452E+03  0.7546771E-02  0.1132147E+00
         21   -1    0    0  502  501  0.00000000000E+00  0.00000000000E+00  0.19008665246E+03  0.19008665246E+03  0.00000000000E+00 0. -1.
         21   -1    0    0  501  502 -0.00000000000E+00 -0.00000000000E+00 -0.26007824157E+03  0.26007824157E+03  0.00000000000E+00 0. -1.
         25    1    1    2    0    0 -0.24431059886E+02  0.70002987789E+02 -0.20533825374E+03  0.25156727417E+03  0.12500000000E+03 0.  0.
         25    1    1    2    0    0  0.24431059886E+02 -0.70002987789E+02  0.13534666463E+03  0.19859761986E+03  0.12500000000E+03 0.  0.
</event>
<event>
 4    0  0.2134002E-002  0.1889860E+03  0.7546771E-02  0.1159379E+00
         21   -1    0    0  502  501  0.00000000000E+00  0.00000000000E+00  0.11059941102E+04  0.11059941102E+04  0.00000000000E+00 0. -1.
         21   -1    0    0  501  502 -0.00000000000E+00 -0.00000000000E+00 -0.32292849531E+02  0.32292849531E+02  0.00000000000E+00 0. -1.
         25    1    1    2    0    0  0.12394289303E+03  0.66709950938E+02  0.58712149046E+03  0.61656200244E+03  0.12500000000E+03 0.  0.
         25    1    1    2    0    0 -0.12394289303E+03 -0.66709950938E+02  0.48657977020E+03  0.52172495729E+03  0.12500000000E+03 0.  0.
</event>
<event>
 4    0  0.2134002E-002  0.1906396E+03  0.7546771E-02  0.1157886E+00
         21   -1    0    0  502  501  0.00000000000E+00  0.00000000000E+00  0.20836233892E+02  0.20836233892E+02  0.00000000000E+00 0. -1.
         21   -1    0    0  501  502 -0.00000000000E+00 -0.00000000000E+00 -0.17442424016E+04  0.17442424016E+04  0.00000000000E+00 0. -1.
         25    1    1    2    0    0 -0.29381043778E+02 -0.13976148575E+03 -0.77864197644E+03  0.80143923420E+03  0.12500000000E+03 0.  0.
         25    1    1    2    0    0  0.29381043778E+02  0.13976148575E+03 -0.94476419130E+03  0.96363940133E+03  0.12500000000E+03 0.  0.
</event>
<event>
 4    0  0.2134002E-002  0.4487600E+03  0.7546771E-02  0.1028092E+00
         21   -1    0    0  502  501  0.00000000000E+00  0.00000000000E+00  0.14660557669E+04  0.14660557669E+04  0.00000000000E+00 0.  1.
         21   -1    0    0  501  502 -0.00000000000E+00 -0.00000000000E+00 -0.13736551777E+03  0.13736551777E+03  0.00000000000E+00 0.  1.
         25    1    1    2    0    0  0.42371580698E+03  0.69305258593E+02  0.59697230492E+03  0.74588151659E+03  0.12500000000E+03 0.  0.
         25    1    1    2    0    0 -0.42371580698E+03 -0.69305258593E+02  0.73171794421E+03  0.85753976807E+03  0.12500000000E+03 0.  0.
</event>
<event>
 4    0  0.2134002E-002  0.2319302E+03  0.7546771E-02  0.1125289E+00
         21   -1    0    0  502  501  0.00000000000E+00  0.00000000000E+00  0.54533020693E+03  0.54533020693E+03  0.00000000000E+00 0. -1.
         21   -1    0    0  501  502 -0.00000000000E+00 -0.00000000000E+00 -0.98640432066E+02  0.98640432066E+02  0.00000000000E+00 0. -1.
         25    1    1    2    0    0  0.14164246760E+03  0.11292507207E+03  0.12178207922E+03  0.25153634995E+03  0.12500000000E+03 0.  0.
         25    1    1    2    0    0 -0.14164246760E+03 -0.11292507207E+03  0.32490769564E+03  0.39243428904E+03  0.12500000000E+03 0.  0.
</event>
<event>
 4    0  0.2134002E-002  0.1907588E+03  0.7546771E-02  0.1157779E+00
         21   -1    0    0  502  501  0.00000000000E+00  0.00000000000E+00  0.70564221257E+03  0.70564221257E+03  0.00000000000E+00 0. -1.
         21   -1    0    0  501  502 -0.00000000000E+00 -0.00000000000E+00 -0.51568534904E+02  0.51568534904E+02  0.00000000000E+00 0. -1.
         25    1    1    2    0    0  0.12192004615E+02  0.27216467396E+02  0.47234850391E+02  0.13691425114E+03  0.12500000000E+03 0.  0.
         25    1    1    2    0    0 -0.12192004615E+02 -0.27216467396E+02  0.60683882728E+03  0.62029649633E+03  0.12500000000E+03 0.  0.
</event>
<event>
 4    0  0.2134002E-002  0.1981589E+03  0.7546771E-02  0.1151302E+00
         21   -1    0    0  502  501  0.00000000000E+00  0.00000000000E+00  0.64611168614E+02  0.64611168614E+02  0.00000000000E+00 0.  1.
         21   -1    0    0  501  502 -0.00000000000E+00 -0.00000000000E+00 -0.60774224958E+03  0.60774224958E+03  0.00000000000E+00 0.  1.
         25    1    1    2    0    0 -0.12782152604E+03 -0.70207160095E+02 -0.35423492174E+03  0.40295752584E+03  0.12500000000E+03 0.  0.
         25    1    1    2    0    0  0.12782152604E+03  0.70207160095E+02 -0.18889615922E+03  0.26939589235E+03  0.12500000000E+03 0.  0.
</event>
<event>
 4    0  0.2134002E-002  0.2277213E+03  0.7546771E-02  0.1128254E+00
         21   -1    0    0  502  501  0.00000000000E+00  0.00000000000E+00  0.49788838710E+02  0.49788838710E+02  0.00000000000E+00 0. -1.
         21   -1    0    0  501  502 -0.00000000000E+00 -0.00000000000E+00 -0.10415380412E+04  0.10415380412E+04  0.00000000000E+00 0. -1.
         25    1    1    2    0    0 -0.84833488192E+02  0.17026397718E+03 -0.51202479907E+03  0.56034001954E+03  0.12500000000E+03 0.  0.
         25    1    1    2    0    0  0.84833488192E+02 -0.17026397718E+03 -0.47972440347E+03  0.53098686041E+03  0.12500000000E+03 0.  0.
</event>
<event>
 4    0  0.2134002E-002  0.2028466E+03  0.7546771E-02  0.1147359E+00
         21   -1    0    0  502  501  0.00000000000E+00  0.00000000000E+00  0.11457660503E+03  0.11457660503E+03  0.00000000000E+00 0. -1.
         21   -1    0    0  501  502 -0.00000000000E+00 -0.00000000000E+00 -0.35911984214E+03  0.35911984214E+03  0.00000000000E+00 0. -1.
         25    1    1    2    0    0 -0.57783460192E+01  0.11862174173E+03 -0.24703373803E+03  0.30125599516E+03  0.12500000000E+03 0.  0.
         25    1    1    2    0    0  0.57783460192E+01 -0.11862174173E+03  0.24905009237E+01  0.17244045201E+03  0.12500000000E+03 0.  0.
</event>
<event>
 4    0  0.2134002E-002  0.1807482E+03  0.7546771E-02  0.1167081E+00
         21   -1    0    0  502  501  0.00000000000E+00  0.00000000000E+00  0.16116387970E+03  0.16116387970E+03  0.00000000000E+00 0.  1.
         21   -1    0    0  501  502 -0.00000000000E+00 -0.00000000000E+00 -0.20271228092E+03  0.20271228092E+03  0.00000000000E+00 0.  1.
         25    1    1    2    0    0 -0.17166097730E+02  0.10646145096E+03 -0.94853412615E+02  0.19039665264E+03  0.12500000000E+03 0.  0.
         25    1    1    2    0    0  0.17166097730E+02 -0.10646145096E+03  0.53305011393E+02  0.17347950798E+03  0.12500000000E+03 0.  0.
</event>
<event>
 4    0  0.2134002E-002  0.1759566E+03  0.7546771E-02  0.1171775E+00
         21   -1    0    0  502  501  0.00000000000E+00  0.00000000000E+00  0.83698799243E+03  0.83698799243E+03  0.00000000000E+00 0.  1.
         21   -1    0    0  501  502 -0.00000000000E+00 -0.00000000000E+00 -0.36990634177E+02  0.36990634177E+02  0.00000000000E+00 0.  1.
         25    1    1    2    0    0  0.70187113961E+02 -0.56694398893E+02  0.18933596325E+03  0.24415894989E+03  0.12500000000E+03 0.  0.
         25    1    1    2    0    0 -0.70187113961E+02  0.56694398893E+02  0.61066139500E+03  0.62981967671E+03  0.12500000000E+03 0.  0.
</event>
<event>
 4    0  0.2134002E-002  0.3839683E+03  0.7546771E-02  0.1049477E+00
         21   -1    0    0  502  501  0.00000000000E+00  0.00000000000E+00  0.35902275397E+03  0.35902275397E+03  0.00000000000E+00 0.  1.
         21   -1    0    0  501  502 -0.00000000000E+00 -0.00000000000E+00 -0.41064702807E+03  0.41064702807E+03  0.00000000000E+00 0. -1.
         25    1    1    2    0    0  0.34161403455E+03  0.36211262513E+02  0.91906024451E+02  0.37693914822E+03  0.12500000000E+03 0.  0.
         25    1    1    2    0    0 -0.34161403455E+03 -0.36211262513E+02 -0.14353029855E+03  0.39273063382E+03  0.12500000000E+03 0.  0.
</event>
<event>
 4    0  0.2134002E-002  0.2455662E+03  0.7546771E-02  0.1116139E+00
         21   -1    0    0  502  501  0.00000000000E+00  0.00000000000E+00  0.70876045399E+03  0.70876045399E+03  0.00000000000E+00 0.  1.
         21   -1    0    0  501  502 -0.00000000000E+00 -0.00000000000E+00 -0.85081994310E+02  0.85081994310E+02  0.00000000000E+00 0.  1.
         25    1    1    2    0    0 -0.87102243933E+02  0.12177911566E+03  0.70678756903E+02  0.20745467116E+03  0.12500000000E+03 0.  0.
         25    1    1    2    0    0  0.87102243933E+02 -0.12177911566E+03  0.55299970278E+03  0.58638777714E+03  0.12500000000E+03 0.  0.
</event>
<event>
 4    0  0.2134002E-002  0.2703218E+03  0.7546771E-02  0.1101096E+00
         21   -1    0    0  502  501  0.00000000000E+00  0.00000000000E+00  0.27260431118E+03  0.27260431118E+03  0.00000000000E+00 0. -1.
         21   -1    0    0  501  502 -0.00000000000E+00 -0.00000000000E+00 -0.26805831175E+03  0.26805831175E+03  0.00000000000E+00 0. -1.
         25    1    1    2    0    0  0.11388439974E+03  0.49451204885E+02  0.20730164447E+03  0.27205523330E+03  0.12500000000E+03 0.  0.
         25    1    1    2    0    0 -0.11388439974E+03 -0.49451204885E+02 -0.20275564504E+03  0.26860738963E+03  0.12500000000E+03 0.  0.
</event>
<event>
 4    0  0.2134002E-002  0.2295379E+03  0.7546771E-02  0.1126965E+00
         21   -1    0    0  502  501  0.00000000000E+00  0.00000000000E+00  0.32693867661E+03  0.32693867661E+03  0.00000000000E+00 0. -1.
         21   -1    0    0  501  502 -0.00000000000E+00 -0.00000000000E+00 -0.16115454917E+03  0.16115454917E+03  0.00000000000E+00 0. -1.
         25    1    1    2    0    0  0.93512508003E+01  0.10605315876E+03 -0.87645803956E+02  0.18612228594E+03  0.12500000000E+03 0.  0.
         25    1    1    2    0    0 -0.93512508003E+01 -0.10605315876E+03  0.25342993140E+03  0.30197093983E+03  0.12500000000E+03 0.  0.
</event>
<event>
 4    0  0.2134002E-002  0.2069793E+03  0.7546771E-02  0.1143981E+00
         21   -1    0    0  502  501  0.00000000000E+00  0.00000000000E+00  0.23588526563E+03  0.23588526563E+03  0.00000000000E+00 0.  1.
         21   -1    0    0  501  502 -0.00000000000E+00 -0.00000000000E+00 -0.18161560904E+03  0.18161560904E+03  0.00000000000E+00 0.  1.
         25    1    1    2    0    0  0.68370458837E+02 -0.13422417345E+03 -0.40707382148E+02  0.19993183674E+03  0.12500000000E+03 0.  0.
         25    1    1    2    0    0 -0.68370458837E+02  0.13422417345E+03  0.94977038741E+02  0.21756903794E+03  0.12500000000E+03 0.  0.
</event>
<event>
 4    0  0.2134002E-002  0.1570793E+03  0.7546771E-02  0.1192034E+00
         21   -1    0    0  502  501  0.00000000000E+00  0.00000000000E+00  0.45270528368E+03  0.45270528368E+03  0.00000000000E+00 0.  1.
         21   -1    0    0  501  502 -0.00000000000E+00 -0.00000000000E+00 -0.54503276779E+02  0.54503276779E+02  0.00000000000E+00 0.  1.
         25    1    1    2    0    0  0.17254055799E+02  0.69603343880E+02  0.98190447254E+02  0.17438088156E+03  0.12500000000E+03 0.  0.
         25    1    1    2    0    0 -0.17254055799E+02 -0.69603343880E+02  0.30001155965E+03  0.33282767891E+03  0.12500000000E+03 0.  0.
</event>
<event>
 4    0  0.2134002E-002  0.1849638E+03  0.7546771E-02  0.1163084E+00
         21   -1    0    0  502  501  0.00000000000E+00  0.00000000000E+00  0.69268697387E+03  0.69268697387E+03  0.00000000000E+00 0.  1.
         21   -1    0    0  501  502 -0.00000000000E+00 -0.00000000000E+00 -0.49389721965E+02  0.49389721965E+02  0.00000000000E+00 0.  1.
         25    1    1    2    0    0  0.12553914313E+03 -0.50691254312E+02  0.28949384188E+03  0.34316375713E+03  0.12500000000E+03 0.  0.
         25    1    1    2    0    0 -0.12553914313E+03  0.50691254312E+02  0.35380341003E+03  0.39891293871E+03  0.12500000000E+03 0.  0.
</event>
<event>
 4    0  0.2134002E-002  0.2545685E+03  0.7546771E-02  0.1110451E+00
         21   -1    0    0  502  501  0.00000000000E+00  0.00000000000E+00  0.46794146802E+03  0.46794146802E+03  0.00000000000E+00 0. -1.
         21   -1    0    0  501  502 -0.00000000000E+00 -0.00000000000E+00 -0.13848982922E+03  0.13848982922E+03  0.00000000000E+00 0.  1.
         25    1    1    2    0    0  0.16852604242E+03  0.13671629204E+03  0.21914944271E+03  0.33278198527E+03  0.12500000000E+03 0.  0.
         25    1    1    2    0    0 -0.16852604242E+03 -0.13671629204E+03  0.11030219609E+03  0.27364931197E+03  0.12500000000E+03 0.  0.
</event>
<event>
 4    0  0.2134002E-002  0.2719566E+03  0.7546771E-02  0.1100165E+00
         21   -1    0    0  502  501  0.00000000000E+00  0.00000000000E+00  0.10009841089E+03  0.10009841089E+03  0.00000000000E+00 0. -1.
         21   -1    0    0  501  502 -0.00000000000E+00 -0.00000000000E+00 -0.73887684207E+03  0.73887684207E+03  0.00000000000E+00 0. -1.
         25    1    1    2    0    0 -0.14519416336E+03  0.16465908869E+03 -0.47472420364E+03  0.53775647842E+03  0.12500000000E+03 0.  0.
         25    1    1    2    0    0  0.14519416336E+03 -0.16465908869E+03 -0.16405422753E+03  0.30121877454E+03  0.12500000000E+03 0.  0.
</event>
<event>
 4    0  0.2134002E-002  0.1793906E+03  0.7546771E-02  0.1168394E+00
         21   -1    0    0  502  501  0.00000000000E+00  0.00000000000E+00  0.61032377218E+03  0.61032377218E+03  0.00000000000E+00 0.  1.
         21   -1    0    0  501  502 -0.00000000000E+00 -0.00000000000E+00 -0.52727717947E+02  0.52727717947E+02  0.00000000000E+00 0.  1.
         25    1    1    2    0    0 -0.11707486762E+03 -0.33681700449E+01  0.37725178117E+03  0.41432086068E+03  0.12500000000E+03 0.  0.
         25    1    1    2    0    0  0.11707486762E+03  0.33681700449E+01  0.18034427306E+03  0.24873062944E+03  0.12500000000E+03 0.  0.
</event>
<event>
 4    0  0.2134002E-002  0.1775178E+03  0.7546771E-02  0.1170227E+00
         21   -1    0    0  502  501  0.00000000000E+00  0.00000000000E+00  0.83443574333E+02  0.83443574333E+02  0.00000000000E+00 0.  1.
         21   -1    0    0  501  502 -0.00000000000E+00 -0.00000000000E+00 -0.37765124735E+03  0.37765124735E+03  0.00000000000E+00 0.  1.
         25    1    1    2    0    0  0.10828345262E+03 -0.30755393973E+02 -0.73448993252E+02  0.18355096017E+03  0.12500000000E+03 0.  0.
         25    1    1    2    0    0 -0.10828345262E+03  0.30755393973E+02 -0.22075867976E+03  0.27754386151E+03  0.12500000000E+03 0.  0.
</event>
<event>
 4    0  0.2134002E-002  0.1720118E+03  0.7546771E-02  0.1175766E+00
         21   -1    0    0  502  501  0.00000000000E+00  0.00000000000E+00  0.50406634279E+03  0.50406634279E+03  0.00000000000E+00 0.  1.
         21   -1    0    0  501  502 -0.00000000000E+00 -0.00000000000E+00 -0.58698754956E+02  0.58698754956E+02  0.00000000000E+00 0.  1.
         25    1    1    2    0    0  0.33699522411E+00 -0.11252113528E+03  0.16365885246E+03  0.23467070426E+03  0.12500000000E+03 0.  0.
         25    1    1    2    0    0 -0.33699522411E+00  0.11252113528E+03  0.28170873537E+03  0.32809439348E+03  0.12500000000E+03 0.  0.
</event>
<event>
 4    0  0.2134002E-002  0.1922300E+03  0.7546771E-02  0.1156465E+00
         21   -1    0    0  502  501  0.00000000000E+00  0.00000000000E+00  0.63654925240E+02  0.63654925240E+02  0.00000000000E+00 0.  1.
         21   -1    0    0  501  502 -0.00000000000E+00 -0.00000000000E+00 -0.58051084395E+03  0.58051084395E+03  0.00000000000E+00 0.  1.
         25    1    1    2    0    0  0.73052768509E+02  0.12496625159E+03 -0.22602070251E+03  0.29608044344E+03  0.12500000000E+03 0.  0.
         25    1    1    2    0    0 -0.73052768509E+02 -0.12496625159E+03 -0.29083521620E+03  0.34808532575E+03  0.12500000000E+03 0.  0.
</event>
<event>
 4    0  0.2134002E-002  0.1774457E+03  0.7546771E-02  0.1170298E+00
         21   -1    0    0  502  501  0.00000000000E+00  0.00000000000E+00  0.66011234231E+02  0.66011234231E+02  0.00000000000E+00 0. -1.
         21   -1    0    0  501  502 -0.00000000000E+00 -0.00000000000E+00 -0.47699421887E+03  0.47699421887E+03  0.00000000000E+00 0. -1.
         25    1    1    2    0    0 -0.14484061344E+02  0.12324865884E+03 -0.17260560480E+03  0.24661247889E+03  0.12500000000E+03 0.  0.
         25    1    1    2    0    0  0.14484061344E+02 -0.12324865884E+03 -0.23837737984E+03  0.29639297420E+03  0.12500000000E+03 0.  0.
</event>
<event>
 4    0  0.2134002E-002  0.2942058E+03  0.7546771E-02  0.1088173E+00
         21   -1    0    0  502  501  0.00000000000E+00  0.00000000000E+00  0.19363931520E+03  0.19363931520E+03  0.00000000000E+00 0.  1.
         21   -1    0    0  501  502 -0.00000000000E+00 -0.00000000000E+00 -0.44700134025E+03  0.44700134025E+03  0.00000000000E+00 0.  1.
         25    1    1    2    0    0 -0.12019871850E+03  0.23764788086E+03 -0.12364295236E+03  0.31911882877E+03  0.12500000000E+03 0.  0.
         25    1    1    2    0    0  0.12019871850E+03 -0.23764788086E+03 -0.12971907269E+03  0.32152182667E+03  0.12500000000E+03 0.  0.
</event>
<event>
 4    0  0.2134002E-002  0.1796085E+03  0.7546771E-02  0.1168183E+00
         21   -1    0    0  502  501  0.00000000000E+00  0.00000000000E+00  0.19475032569E+03  0.19475032569E+03  0.00000000000E+00 0.  1.
         21   -1    0    0  501  502 -0.00000000000E+00 -0.00000000000E+00 -0.16564388539E+03  0.16564388539E+03  0.00000000000E+00 0.  1.
         25    1    1    2    0    0  0.74264837540E+02 -0.84775324254E+02 -0.48358581653E+02  0.17511617320E+03  0.12500000000E+03 0.  0.
         25    1    1    2    0    0 -0.74264837540E+02  0.84775324254E+02  0.77465021952E+02  0.18527803789E+03  0.12500000000E+03 0.  0.
</event>
<event>
 4    0  0.2134002E-002  0.1636029E+03  0.7546771E-02  0.1184688E+00
         21   -1    0    0  502  501  0.00000000000E+00  0.00000000000E+00  0.19144675243E+04  0.19144675243E+04  0.00000000000E+00 0.  1.
         21   -1    0    0  501  502 -0.00000000000E+00 -0.00000000000E+00 -0.13980870255E+02  0.13980870255E+02  0.00000000000E+00 0.  1.
         25    1    1    2    0    0 -0.97542143754E+02 -0.37853875095E+02  0.86825193742E+03  0.88342165046E+03  0.12500000000E+03 0.  0.
         25    1    1    2    0    0  0.97542143754E+02  0.37853875095E+02  0.10322347166E+04  0.10450267441E+04  0.12500000000E+03 0.  0.
</event>
<event>
 4    0  0.2134002E-002  0.1507419E+03  0.7546771E-02  0.1199564E+00
         21   -1    0    0  502  501  0.00000000000E+00  0.00000000000E+00  0.26042602042E+03  0.26042602042E+03  0.00000000000E+00 0. -1.
         21   -1    0    0  501  502 -0.00000000000E+00 -0.00000000000E+00 -0.87253691796E+02  0.87253691796E+02  0.00000000000E+00 0. -1.
         25    1    1    2    0    0 -0.81708544248E+02  0.59422990111E+01  0.63913140247E+02  0.16254687514E+03  0.12500000000E+03 0.  0.
         25    1    1    2    0    0  0.81708544248E+02 -0.59422990111E+01  0.10925918838E+03  0.18513283708E+03  0.12500000000E+03 0.  0.
</event>
<event>
 4    0  0.2134002E-002  0.2596470E+03  0.7546771E-02  0.1107355E+00
         21   -1    0    0  502  501  0.00000000000E+00  0.00000000000E+00  0.69009444557E+02  0.69009444557E+02  0.00000000000E+00 0. -1.
         21   -1    0    0  501  502 -0.00000000000E+00 -0.00000000000E+00 -0.97691829238E+03  0.97691829238E+03  0.00000000000E+00 0. -1.
         25    1    1    2    0    0  0.19336812893E+03  0.97905982733E+02 -0.31419656108E+03  0.40164822138E+03  0.12500000000E+03 0.  0.
         25    1    1    2    0    0 -0.19336812893E+03 -0.97905982733E+02 -0.59371228674E+03  0.64427951556E+03  0.12500000000E+03 0.  0.
</event>
<event>
 4    0  0.2134002E-002  0.2272956E+03  0.7546771E-02  0.1128558E+00
         21   -1    0    0  502  501  0.00000000000E+00  0.00000000000E+00  0.22837018992E+03  0.22837018992E+03  0.00000000000E+00 0. -1.
         21   -1    0    0  501  502 -0.00000000000E+00 -0.00000000000E+00 -0.22622613947E+03  0.22622613947E+03  0.00000000000E+00 0. -1.
         25    1    1    2    0    0 -0.75485663495E+02 -0.76510253745E+02  0.15755508120E+03  0.22803619874E+03  0.12500000000E+03 0.  0.
         25    1    1    2    0    0  0.75485663495E+02  0.76510253745E+02 -0.15541103076E+03  0.22656013066E+03  0.12500000000E+03 0.  0.
</event>
<event>
 4    0  0.2134002E-002  0.1838234E+03  0.7546771E-02  0.1164153E+00
         21   -1    0    0  502  501  0.00000000000E+00  0.00000000000E+00  0.33403861762E+02  0.33403861762E+02  0.00000000000E+00 0.  1.
         21   -1    0    0  501  502 -0.00000000000E+00 -0.00000000000E+00 -0.10115904429E+04  0.10115904429E+04  0.00000000000E+00 0.  1.
         25    1    1    2    0    0 -0.98715346954E+02  0.69120743277E+02 -0.66066686171E+03  0.68310182187E+03  0.12500000000E+03 0.  0.
         25    1    1    2    0    0  0.98715346954E+02 -0.69120743277E+02 -0.31751971939E+03  0.36189248276E+03  0.12500000000E+03 0.  0.
</event>
<event>
 4    0  0.2134002E-002  0.1915592E+03  0.7546771E-02  0.1157062E+00
         21   -1    0    0  502  501  0.00000000000E+00  0.00000000000E+00  0.12270392027E+03  0.12270392027E+03  0.00000000000E+00 0.  1.
         21   -1    0    0  501  502 -0.00000000000E+00 -0.00000000000E+00 -0.29905273391E+03  0.29905273391E+03  0.00000000000E+00 0.  1.
         25    1    1    2    0    0 -0.96051843111E+02 -0.98673524028E+02 -0.37636774767E+02  0.18974706249E+03  0.12500000000E+03 0.  0.
         25    1    1    2    0    0  0.96051843111E+02  0.98673524028E+02 -0.13871203887E+03  0.23200959169E+03  0.12500000000E+03 0.  0.
</event>
<event>
 4    0  0.2134002E-002  0.1582745E+03  0.7546771E-02  0.1190659E+00
         21   -1    0    0  502  501  0.00000000000E+00  0.00000000000E+00  0.27080438038E+03  0.27080438038E+03  0.00000000000E+00 0. -1.
         21   -1    0    0  501  502 -0.00000000000E+00 -0.00000000000E+00 -0.92505246750E+02  0.92505246750E+02  0.00000000000E+00 0. -1.
         25    1    1    2    0    0  0.93837403519E+01 -0.27539147590E+02  0.19545696835E+03  0.23382661463E+03  0.12500000000E+03 0.  0.
         25    1    1    2    0    0 -0.93837403519E+01  0.27539147590E+02 -0.17157834723E+02  0.12948301250E+03  0.12500000000E+03 0.  0.
</event>
<event>
 4    0  0.2134002E-002  0.2314502E+03  0.7546771E-02  0.1125623E+00
         21   -1    0    0  502  501  0.00000000000E+00  0.00000000000E+00  0.21442470832E+03  0.21442470832E+03  0.00000000000E+00 0.  1.
         21   -1    0    0  501  502 -0.00000000000E+00 -0.00000000000E+00 -0.24982757368E+03  0.24982757368E+03  0.00000000000E+00 0.  1.
         25    1    1    2    0    0  0.19299037556E+02 -0.76334963059E+00 -0.21210033433E+03  0.24695057679E+03  0.12500000000E+03 0.  0.
         25    1    1    2    0    0 -0.19299037556E+02  0.76334963059E+00  0.17669746896E+03  0.21730170521E+03  0.12500000000E+03 0.  0.
</event>
<event>
 4    0  0.2134002E-002  0.1998838E+03  0.7546771E-02  0.1149837E+00
         21   -1    0    0  502  501  0.00000000000E+00  0.00000000000E+00  0.23989545763E+03  0.23989545763E+03  0.00000000000E+00 0.  1.
         21   -1    0    0  501  502 -0.00000000000E+00 -0.00000000000E+00 -0.16654564221E+03  0.16654564221E+03  0.00000000000E+00 0.  1.
         25    1    1    2    0    0  0.54142383987E+02 -0.13163393491E+03  0.10153366694E+03  0.21492551288E+03  0.12500000000E+03 0.  0.
         25    1    1    2    0    0 -0.54142383987E+02  0.13163393491E+03 -0.28183851518E+02  0.19151558696E+03  0.12500000000E+03 0.  0.
</event>
<event>
 4    0  0.2134002E-002  0.2049388E+03  0.7546771E-02  0.1145638E+00
         21   -1    0    0  502  501  0.00000000000E+00  0.00000000000E+00  0.22376356302E+02  0.22376356302E+02  0.00000000000E+00 0.  1.
         21   -1    0    0  501  502 -0.00000000000E+00 -0.00000000000E+00 -0.18769772322E+04  0.18769772322E+04  0.00000000000E+00 0.  1.
         25    1    1    2    0    0 -0.21889242729E+02  0.12774019875E+03 -0.47378308710E+03  0.50684525345E+03  0.12500000000E+03 0.  0.
         25    1    1    2    0    0  0.21889242729E+02 -0.12774019875E+03 -0.13808177888E+04  0.13925083351E+04  0.12500000000E+03 0.  0.
</event>
<event>
 4    0  0.2134002E-002  0.2666192E+03  0.7546771E-02  0.1103230E+00
         21   -1    0    0  502  501  0.00000000000E+00  0.00000000000E+00  0.19561616806E+03  0.19561616806E+03  0.00000000000E+00 0.  1.
         21   -1    0    0  501  502 -0.00000000000E+00 -0.00000000000E+00 -0.36339425434E+03  0.36339425434E+03  0.00000000000E+00 0.  1.
         25    1    1    2    0    0  0.13902061666E+02  0.12266396214E+03 -0.29413388676E+03  0.34260685672E+03  0.12500000000E+03 0.  0.
         25    1    1    2    0    0 -0.13902061666E+02 -0.12266396214E+03  0.12635580049E+03  0.21640356569E+03  0.12500000000E+03 0.  0.
</event>
<event>
 4    0  0.2134002E-002  0.2308675E+03  0.7546771E-02  0.1126031E+00
         21   -1    0    0  502  501  0.00000000000E+00  0.00000000000E+00  0.20972090341E+03  0.20972090341E+03  0.00000000000E+00 0. -1.
         21   -1    0    0  501  502 -0.00000000000E+00 -0.00000000000E+00 -0.25414638274E+03  0.25414638274E+03  0.00000000000E+00 0. -1.
         25    1    1    2    0    0  0.12433713804E+03 -0.35539399302E+02 -0.16762935808E+03  0.24586047769E+03  0.12500000000E+03 0.  0.
         25    1    1    2    0    0 -0.12433713804E+03  0.35539399302E+02  0.12320387875E+03  0.21800680846E+03  0.12500000000E+03 0.  0.
</event>
<event>
 4    0  0.2134002E-002  0.1952056E+03  0.7546771E-02  0.1153848E+00
         21   -1    0    0  502  501  0.00000000000E+00  0.00000000000E+00  0.36102740030E+03  0.36102740030E+03  0.00000000000E+00 0.  1.
         21   -1    0    0  501  502 -0.00000000000E+00 -0.00000000000E+00 -0.10554668358E+03  0.10554668358E+03  0.00000000000E+00 0.  1.
         25    1    1    2    0    0  0.10283622576E+03  0.10516248968E+02  0.25752864559E+03  0.30435486544E+03  0.12500000000E+03 0.  0.
         25    1    1    2    0    0 -0.10283622576E+03 -0.10516248968E+02 -0.20479288707E+01  0.16221921844E+03  0.12500000000E+03 0.  0.
</event>
<event>
 4    0  0.2134002E-002  0.1914168E+03  0.7546771E-02  0.1157190E+00
         21   -1    0    0  502  501  0.00000000000E+00  0.00000000000E+00  0.43106984477E+03  0.43106984477E+03  0.00000000000E+00 0.  1.
         21   -1    0    0  501  502 -0.00000000000E+00 -0.00000000000E+00 -0.84998735679E+02  0.84998735679E+02  0.00000000000E+00 0.  1.
         25    1    1    2    0    0  0.89993194734E+02 -0.86978829654E+02  0.74424179737E+02  0.19190635851E+03  0.12500000000E+03 0.  0.
         25    1    1    2    0    0 -0.89993194734E+02  0.86978829654E+02  0.27164692936E+03  0.32416222195E+03  0.12500000000E+03 0.  0.
</event>
<event>
 4    0  0.2134002E-002  0.2411289E+03  0.7546771E-02  0.1119043E+00
         21   -1    0    0  502  501  0.00000000000E+00  0.00000000000E+00  0.20282832974E+04  0.20282832974E+04  0.00000000000E+00 0. -1.
         21   -1    0    0  501  502 -0.00000000000E+00 -0.00000000000E+00 -0.28666196040E+02  0.28666196040E+02  0.00000000000E+00 0. -1.
         25    1    1    2    0    0  0.14987986051E+03 -0.87967802368E+02  0.14731523148E+04  0.14886252212E+04  0.12500000000E+03 0.  0.
         25    1    1    2    0    0 -0.14987986051E+03  0.87967802368E+02  0.52646478662E+03  0.56832427222E+03  0.12500000000E+03 0.  0.
</event>
<event>
 4    0  0.2134002E-002  0.2539764E+03  0.7546771E-02  0.1110817E+00
         21   -1    0    0  502  501  0.00000000000E+00  0.00000000000E+00  0.48263859749E+03  0.48263859749E+03  0.00000000000E+00 0.  1.
         21   -1    0    0  501  502 -0.00000000000E+00 -0.00000000000E+00 -0.13364866581E+03  0.13364866581E+03  0.00000000000E+00 0.  1.
         25    1    1    2    0    0  0.20703021958E+03  0.40990833684E+02  0.94591281866E+02  0.26289593164E+03  0.12500000000E+03 0.  0.
         25    1    1    2    0    0 -0.20703021958E+03 -0.40990833684E+02  0.25439864981E+03  0.35339133166E+03  0.12500000000E+03 0.  0.
</event>
<event>
 4    0  0.2134002E-002  0.2551027E+03  0.7546771E-02  0.1110122E+00
         21   -1    0    0  502  501  0.00000000000E+00  0.00000000000E+00  0.27390498266E+03  0.27390498266E+03  0.00000000000E+00 0. -1.
         21   -1    0    0  501  502 -0.00000000000E+00 -0.00000000000E+00 -0.23759102007E+03  0.23759102007E+03  0.00000000000E+00 0. -1.
         25    1    1    2    0    0 -0.76638877157E+02  0.20731624822E+03  0.42689684634E+02  0.25748971521E+03  0.12500000000E+03 0.  0.
         25    1    1    2    0    0  0.76638877157E+02 -0.20731624822E+03 -0.63757220452E+01  0.25400628752E+03  0.12500000000E+03 0.  0.
</event>
<event>
 4    0  0.2134002E-002  0.1770149E+03  0.7546771E-02  0.1170724E+00
         21   -1    0    0  502  501  0.00000000000E+00  0.00000000000E+00  0.74118179936E+03  0.74118179936E+03  0.00000000000E+00 0. -1.
         21   -1    0    0  501  502 -0.00000000000E+00 -0.00000000000E+00 -0.42276102469E+02  0.42276102469E+02  0.00000000000E+00 0. -1.
         25    1    1    2    0    0 -0.14823919702E+02 -0.39222208897E+02  0.88067771217E+02  0.15855302770E+03  0.12500000000E+03 0.  0.
         25    1    1    2    0    0  0.14823919702E+02  0.39222208897E+02  0.61083792567E+03  0.62490487413E+03  0.12500000000E+03 0.  0.
</event>
<event>
 4    0  0.2134002E-002  0.2468894E+03  0.7546771E-02  0.1115287E+00
         21   -1    0    0  502  501  0.00000000000E+00  0.00000000000E+00  0.49954759902E+02  0.49954759902E+02  0.00000000000E+00 0.  1.
         21   -1    0    0  501  502 -0.00000000000E+00 -0.00000000000E+00 -0.12201914665E+04  0.12201914665E+04  0.00000000000E+00 0.  1.
         25    1    1    2    0    0  0.30874769383E+02  0.20162659854E+03 -0.42816948155E+03  0.49046981717E+03  0.12500000000E+03 0.  0.
         25    1    1    2    0    0 -0.30874769383E+02 -0.20162659854E+03 -0.74206722504E+03  0.77967640923E+03  0.12500000000E+03 0.  0.
</event>
<event>
 4    0  0.2134002E-002  0.1507325E+03  0.7546771E-02  0.1199576E+00
         21   -1    0    0  502  501  0.00000000000E+00  0.00000000000E+00  0.10287579045E+03  0.10287579045E+03  0.00000000000E+00 0.  1.
         21   -1    0    0  501  502 -0.00000000000E+00 -0.00000000000E+00 -0.22085153748E+03  0.22085153748E+03  0.00000000000E+00 0.  1.
         25    1    1    2    0    0  0.19860088805E+01  0.66362097331E+02 -0.11465631521E+03  0.18215087925E+03  0.12500000000E+03 0.  0.
         25    1    1    2    0    0 -0.19860088805E+01 -0.66362097331E+02 -0.33194318292E+01  0.14157644868E+03  0.12500000000E+03 0.  0.
</event>
<event>
 4    0  0.2134002E-002  0.2255022E+03  0.7546771E-02  0.1129846E+00
         21   -1    0    0  502  501  0.00000000000E+00  0.00000000000E+00  0.38650381070E+03  0.38650381070E+03  0.00000000000E+00 0. -1.
         21   -1    0    0  501  502 -0.00000000000E+00 -0.00000000000E+00 -0.13156729515E+03  0.13156729515E+03  0.00000000000E+00 0. -1.
         25    1    1    2    0    0 -0.26978133063E+02 -0.11294040396E+03  0.29685027894E+03  0.34238639373E+03  0.12500000000E+03 0.  0.
         25    1    1    2    0    0  0.26978133063E+02  0.11294040396E+03 -0.41913763383E+02  0.17568471211E+03  0.12500000000E+03 0.  0.
</event>
<event>
 4    0  0.2134002E-002  0.2376649E+03  0.7546771E-02  0.1121358E+00
         21   -1    0    0  502  501  0.00000000000E+00  0.00000000000E+00  0.79993965784E+03  0.79993965784E+03  0.00000000000E+00 0. -1.
         21   -1    0    0  501  502 -0.00000000000E+00 -0.00000000000E+00 -0.70611071343E+02  0.70611071343E+02  0.00000000000E+00 0. -1.
         25    1    1    2    0    0  0.34788226156E+02  0.95966098023E+02  0.68420086195E+03  0.70297619600E+03  0.12500000000E+03 0.  0.
         25    1    1    2    0    0 -0.34788226156E+02 -0.95966098023E+02  0.45127724548E+02  0.16757453318E+03  0.12500000000E+03 0.  0.
</event>
<event>
 4    0  0.2134002E-002  0.1522078E+03  0.7546771E-02  0.1197786E+00
         21   -1    0    0  502  501  0.00000000000E+00  0.00000000000E+00  0.30579411496E+03  0.30579411496E+03  0.00000000000E+00 0.  1.
         21   -1    0    0  501  502 -0.00000000000E+00 -0.00000000000E+00 -0.75760872679E+02  0.75760872679E+02  0.00000000000E+00 0.  1.
         25    1    1    2    0    0  0.60056192013E+01  0.87633297610E+01  0.69812523708E+01  0.12564474241E+03  0.12500000000E+03 0.  0.
         25    1    1    2    0    0 -0.60056192013E+01 -0.87633297610E+01  0.22305198991E+03  0.25591024523E+03  0.12500000000E+03 0.  0.
</event>
<event>
 4    0  0.2134002E-002  0.2101893E+03  0.7546771E-02  0.1141416E+00
         21   -1    0    0  502  501  0.00000000000E+00  0.00000000000E+00  0.32788397036E+02  0.32788397036E+02  0.00000000000E+00 0.  1.
         21   -1    0    0  501  502 -0.00000000000E+00 -0.00000000000E+00 -0.13474133541E+04  0.13474133541E+04  0.00000000000E+00 0.  1.
         25    1    1    2    0    0 -0.15523053402E+03  0.16684600671E+02 -0.86957384298E+03  0.89227717834E+03  0.12500000000E+03 0.  0.
         25    1    1    2    0    0  0.15523053402E+03 -0.16684600671E+02 -0.44505111409E+03  0.48792457280E+03  0.12500000000E+03 0.  0.
</event>
<event>
 4    0  0.2134002E-002  0.1968136E+03  0.7546771E-02  0.1152456E+00
         21   -1    0    0  502  501  0.00000000000E+00  0.00000000000E+00  0.15794716869E+03  0.15794716869E+03  0.00000000000E+00 0. -1.
         21   -1    0    0  501  502 -0.00000000000E+00 -0.00000000000E+00 -0.24524389687E+03  0.24524389687E+03  0.00000000000E+00 0. -1.
         25    1    1    2    0    0  0.28609460579E+02  0.53460058124E+01 -0.19648327888E+03  0.23468651408E+03  0.12500000000E+03 0.  0.
         25    1    1    2    0    0 -0.28609460579E+02 -0.53460058124E+01  0.10918655070E+03  0.16850455147E+03  0.12500000000E+03 0.  0.
</event>
<event>
 4    0  0.2134002E-002  0.2070732E+03  0.7546771E-02  0.1143905E+00
         21   -1    0    0  502  501  0.00000000000E+00  0.00000000000E+00  0.32629270308E+03  0.32629270308E+03  0.00000000000E+00 0.  1.
         21   -1    0    0  501  502 -0.00000000000E+00 -0.00000000000E+00 -0.13141365114E+03  0.13141365114E+03  0.00000000000E+00 0.  1.
         25    1    1    2    0    0 -0.13599165079E+03 -0.81654753206E+02  0.14800181552E+03  0.25038123972E+03  0.12500000000E+03 0.  0.
         25    1    1    2    0    0  0.13599165079E+03  0.81654753206E+02  0.46877236425E+02  0.20732511450E+03  0.12500000000E+03 0.  0.
</event>
<event>
 4    0  0.2134002E-002  0.1947130E+03  0.7546771E-02  0.1154278E+00
         21   -1    0    0  502  501  0.00000000000E+00  0.00000000000E+00  0.43296578836E+02  0.43296578836E+02  0.00000000000E+00 0.  1.
         21   -1    0    0  501  502 -0.00000000000E+00 -0.00000000000E+00 -0.87566122111E+03  0.87566122111E+03  0.00000000000E+00 0.  1.
         25    1    1    2    0    0 -0.31599907974E+02 -0.78618016264E+02 -0.70624078547E+03  0.72220522964E+03  0.12500000000E+03 0.  0.
         25    1    1    2    0    0  0.31599907974E+02  0.78618016264E+02 -0.12612385681E+03  0.19675257030E+03  0.12500000000E+03 0.  0.
</event>
<event>
 4    0  0.2134002E-002  0.1851245E+03  0.7546771E-02  0.1162934E+00
         21   -1    0    0  502  501  0.00000000000E+00  0.00000000000E+00  0.74262104014E+03  0.74262104014E+03  0.00000000000E+00 0. -1.
         21   -1    0    0  501  502 -0.00000000000E+00 -0.00000000000E+00 -0.46148807669E+02  0.46148807669E+02  0.00000000000E+00 0. -1.
         25    1    1    2    0    0 -0.74815601713E+02  0.63985671188E+02  0.54983028284E+03  0.57238962282E+03  0.12500000000E+03 0.  0.
         25    1    1    2    0    0  0.74815601713E+02 -0.63985671188E+02  0.14664194963E+03  0.21638022499E+03  0.12500000000E+03 0.  0.
</event>
<event>
 4    0  0.2134002E-002  0.1358011E+03  0.7546771E-02  0.1219093E+00
         21   -1    0    0  502  501  0.00000000000E+00  0.00000000000E+00  0.26406343038E+03  0.26406343038E+03  0.00000000000E+00 0.  1.
         21   -1    0    0  501  502 -0.00000000000E+00 -0.00000000000E+00 -0.69839098174E+02  0.69839098174E+02  0.00000000000E+00 0.  1.
         25    1    1    2    0    0 -0.15527353901E+02 -0.60715317543E+01  0.35165671858E+02  0.13091824431E+03  0.12500000000E+03 0.  0.
         25    1    1    2    0    0  0.15527353901E+02  0.60715317543E+01  0.15905866035E+03  0.20298428424E+03  0.12500000000E+03 0.  0.
</event>
<event>
 4    0  0.2134002E-002  0.3247331E+03  0.7546771E-02  0.1073491E+00
         21   -1    0    0  502  501  0.00000000000E+00  0.00000000000E+00  0.22293461241E+03  0.22293461241E+03  0.00000000000E+00 0. -1.
         21   -1    0    0  501  502 -0.00000000000E+00 -0.00000000000E+00 -0.47301577022E+03  0.47301577022E+03  0.00000000000E+00 0. -1.
         25    1    1    2    0    0  0.63634858039E+02  0.21773681886E+03  0.84856099579E+02  0.27255141731E+03  0.12500000000E+03 0.  0.
         25    1    1    2    0    0 -0.63634858039E+02 -0.21773681886E+03 -0.33493725739E+03  0.42339896531E+03  0.12500000000E+03 0.  0.
</event>
<event>
 4    0  0.2134002E-002  0.2205898E+03  0.7546771E-02  0.1133444E+00
         21   -1    0    0  502  501  0.00000000000E+00  0.00000000000E+00  0.22879910231E+03  0.22879910231E+03  0.00000000000E+00 0.  1.
         21   -1    0    0  501  502 -0.00000000000E+00 -0.00000000000E+00 -0.21267501906E+03  0.21267501906E+03  0.00000000000E+00 0.  1.
         25    1    1    2    0    0 -0.17585072820E+03 -0.32588311857E+01 -0.37802551495E+02  0.21906193528E+03  0.12500000000E+03 0.  0.
         25    1    1    2    0    0  0.17585072820E+03  0.32588311857E+01  0.53926634747E+02  0.22241218609E+03  0.12500000000E+03 0.  0.
</event>
<event>
 4    0  0.2134002E-002  0.2565841E+03  0.7546771E-02  0.1109213E+00
         21   -1    0    0  502  501  0.00000000000E+00  0.00000000000E+00  0.67271505685E+03  0.67271505685E+03  0.00000000000E+00 0. -1.
         21   -1    0    0  501  502 -0.00000000000E+00 -0.00000000000E+00 -0.97865232855E+02  0.97865232855E+02  0.00000000000E+00 0. -1.
         25    1    1    2    0    0 -0.15809618586E+03 -0.11087370128E+03  0.11672222627E+03  0.25794662185E+03  0.12500000000E+03 0.  0.
         25    1    1    2    0    0  0.15809618586E+03  0.11087370128E+03  0.45812759773E+03  0.51263366785E+03  0.12500000000E+03 0.  0.
</event>
<event>
 4    0  0.2134002E-002  0.1564330E+03  0.7546771E-02  0.1192784E+00
         21   -1    0    0  502  501  0.00000000000E+00  0.00000000000E+00  0.23057530120E+03  0.23057530120E+03  0.00000000000E+00 0.  1.
         21   -1    0    0  501  502 -0.00000000000E+00 -0.00000000000E+00 -0.10613135332E+03  0.10613135332E+03  0.00000000000E+00 0.  1.
         25    1    1    2    0    0  0.78188201579E+02 -0.78041058799E+01  0.65919515061E+01  0.14779293880E+03  0.12500000000E+03 0.  0.
         25    1    1    2    0    0 -0.78188201579E+02  0.78041058799E+01  0.11785199638E+03  0.18891371572E+03  0.12500000000E+03 0.  0.
</event>
<event>
 4    0  0.2134002E-002  0.1664921E+03  0.7546771E-02  0.1181556E+00
         21   -1    0    0  502  501  0.00000000000E+00  0.00000000000E+00  0.78818820643E+03  0.78818820643E+03  0.00000000000E+00 0. -1.
         21   -1    0    0  501  502 -0.00000000000E+00 -0.00000000000E+00 -0.35168771136E+02  0.35168771136E+02  0.00000000000E+00 0. -1.
         25    1    1    2    0    0 -0.34291556824E+02 -0.10396995021E+03  0.35070039000E+03  0.38807399419E+03  0.12500000000E+03 0.  0.
         25    1    1    2    0    0  0.34291556824E+02  0.10396995021E+03  0.40231904529E+03  0.43528298338E+03  0.12500000000E+03 0.  0.
</event>
<event>
 4    0  0.2134002E-002  0.1554657E+03  0.7546771E-02  0.1193913E+00
         21   -1    0    0  502  501  0.00000000000E+00  0.00000000000E+00  0.10620583027E+03  0.10620583027E+03  0.00000000000E+00 0.  1.
         21   -1    0    0  501  502 -0.00000000000E+00 -0.00000000000E+00 -0.22757316210E+03  0.22757316210E+03  0.00000000000E+00 0.  1.
         25    1    1    2    0    0 -0.22842095889E+02  0.53142709211E+02  0.16716371128E+02  0.13874561597E+03  0.12500000000E+03 0.  0.
         25    1    1    2    0    0  0.22842095889E+02 -0.53142709211E+02 -0.13808370296E+03  0.19503337640E+03  0.12500000000E+03 0.  0.
</event>
<event>
 4    0  0.2134002E-002  0.2216317E+03  0.7546771E-02  0.1132672E+00
         21   -1    0    0  502  501  0.00000000000E+00  0.00000000000E+00  0.15033823211E+03  0.15033823211E+03  0.00000000000E+00 0.  1.
         21   -1    0    0  501  502 -0.00000000000E+00 -0.00000000000E+00 -0.32673390799E+03  0.32673390799E+03  0.00000000000E+00 0.  1.
         25    1    1    2    0    0  0.27227175900E+02  0.76152193435E+02 -0.26490041814E+03  0.30387120166E+03  0.12500000000E+03 0.  0.
         25    1    1    2    0    0 -0.27227175900E+02 -0.76152193435E+02  0.88504742257E+02  0.17320093843E+03  0.12500000000E+03 0.  0.
</event>
<event>
 4    0  0.2134002E-002  0.3209416E+03  0.7546771E-02  0.1075217E+00
         21   -1    0    0  502  501  0.00000000000E+00  0.00000000000E+00  0.10289938505E+04  0.10289938505E+04  0.00000000000E+00 0. -1.
         21   -1    0    0  501  502 -0.00000000000E+00 -0.00000000000E+00 -0.10010120046E+03  0.10010120046E+03  0.00000000000E+00 0. -1.
         25    1    1    2    0    0 -0.24127844438E+03  0.72562046398E+01  0.16432289524E+03  0.31763966082E+03  0.12500000000E+03 0.  0.
         25    1    1    2    0    0  0.24127844438E+03 -0.72562046398E+01  0.76456975476E+03  0.81145539010E+03  0.12500000000E+03 0.  0.
</event>
<event>
 4    0  0.2134002E-002  0.2726046E+03  0.7546771E-02  0.1099798E+00
         21   -1    0    0  502  501  0.00000000000E+00  0.00000000000E+00  0.60859268956E+03  0.60859268956E+03  0.00000000000E+00 0. -1.
         21   -1    0    0  501  502 -0.00000000000E+00 -0.00000000000E+00 -0.12210672984E+03  0.12210672984E+03  0.00000000000E+00 0. -1.
         25    1    1    2    0    0 -0.19436189620E+03 -0.52656871344E+02  0.42374493731E+03  0.48552452532E+03  0.12500000000E+03 0.  0.
         25    1    1    2    0    0  0.19436189620E+03  0.52656871344E+02  0.62741022411E+02  0.24517489408E+03  0.12500000000E+03 0.  0.
</event>
<event>
 4    0  0.2134002E-002  0.1938055E+03  0.7546771E-02  0.1155073E+00
         21   -1    0    0  502  501  0.00000000000E+00  0.00000000000E+00  0.11537839948E+04  0.11537839948E+04  0.00000000000E+00 0.  1.
         21   -1    0    0  501  502 -0.00000000000E+00 -0.00000000000E+00 -0.32554261235E+02  0.32554261235E+02  0.00000000000E+00 0.  1.
         25    1    1    2    0    0  0.58418629718E+02 -0.97425611670E+02  0.26975575379E+03  0.31827292190E+03  0.12500000000E+03 0.  0.
         25    1    1    2    0    0 -0.58418629718E+02  0.97425611670E+02  0.85147397980E+03  0.86806533417E+03  0.12500000000E+03 0.  0.
</event>
<event>
 4    0  0.2134002E-002  0.2068148E+03  0.7546771E-02  0.1144113E+00
         21   -1    0    0  502  501  0.00000000000E+00  0.00000000000E+00  0.18782603282E+03  0.18782603282E+03  0.00000000000E+00 0.  1.
         21   -1    0    0  501  502 -0.00000000000E+00 -0.00000000000E+00 -0.22772322017E+03  0.22772322017E+03  0.00000000000E+00 0. -1.
         25    1    1    2    0    0 -0.83080515477E+02 -0.13252840302E+03 -0.71969212371E+02  0.21276916409E+03  0.12500000000E+03 0.  0.
         25    1    1    2    0    0  0.83080515477E+02  0.13252840302E+03  0.32072025023E+02  0.20278008889E+03  0.12500000000E+03 0.  0.
</event>
<event>
 4    0  0.2134002E-002  0.2173554E+03  0.7546771E-02  0.1135870E+00
         21   -1    0    0  502  501  0.00000000000E+00  0.00000000000E+00  0.88276477057E+02  0.88276477057E+02  0.00000000000E+00 0.  1.
         21   -1    0    0  501  502 -0.00000000000E+00 -0.00000000000E+00 -0.53517518644E+03  0.53517518644E+03  0.00000000000E+00 0.  1.
         25    1    1    2    0    0 -0.48408925406E+02  0.14823559249E+03 -0.10090356443E+03  0.22388332733E+03  0.12500000000E+03 0.  0.
         25    1    1    2    0    0  0.48408925406E+02 -0.14823559249E+03 -0.34599514495E+03  0.39956833617E+03  0.12500000000E+03 0.  0.
</event>
<event>
 4    0  0.2134002E-002  0.2606714E+03  0.7546771E-02  0.1106741E+00
         21   -1    0    0  502  501  0.00000000000E+00  0.00000000000E+00  0.12044254422E+04  0.12044254422E+04  0.00000000000E+00 0. -1.
         21   -1    0    0  501  502 -0.00000000000E+00 -0.00000000000E+00 -0.56416586545E+02  0.56416586545E+02  0.00000000000E+00 0. -1.
         25    1    1    2    0    0 -0.11606864105E+03 -0.19707483207E+03  0.58310285950E+03  0.63870522436E+03  0.12500000000E+03 0.  0.
         25    1    1    2    0    0  0.11606864105E+03  0.19707483207E+03  0.56490599613E+03  0.62213680436E+03  0.12500000000E+03 0.  0.
</event>
<event>
 4    0  0.2134002E-002  0.1949183E+03  0.7546771E-02  0.1154099E+00
         21   -1    0    0  502  501  0.00000000000E+00  0.00000000000E+00  0.22216765715E+04  0.22216765715E+04  0.00000000000E+00 0. -1.
         21   -1    0    0  501  502 -0.00000000000E+00 -0.00000000000E+00 -0.17101121209E+02  0.17101121209E+02  0.00000000000E+00 0. -1.
         25    1    1    2    0    0 -0.14528996080E+03 -0.21510497090E+02  0.94023257275E+03  0.95980944206E+03  0.12500000000E+03 0.  0.
         25    1    1    2    0    0  0.14528996080E+03  0.21510497090E+02  0.12643428775E+04  0.12789682506E+04  0.12500000000E+03 0.  0.
</event>
<event>
 4    0  0.2134002E-002  0.2083975E+03  0.7546771E-02  0.1142841E+00
         21   -1    0    0  502  501  0.00000000000E+00  0.00000000000E+00  0.94270905711E+02  0.94270905711E+02  0.00000000000E+00 0. -1.
         21   -1    0    0  501  502 -0.00000000000E+00 -0.00000000000E+00 -0.46068823913E+03  0.46068823913E+03  0.00000000000E+00 0. -1.
         25    1    1    2    0    0 -0.53906972746E+02  0.13540204345E+03 -0.29109094447E+03  0.34870992678E+03  0.12500000000E+03 0.  0.
         25    1    1    2    0    0  0.53906972746E+02 -0.13540204345E+03 -0.75326388954E+02  0.20624921807E+03  0.12500000000E+03 0.  0.
</event>
<event>
 4    0  0.2134002E-002  0.2117261E+03  0.7546771E-02  0.1140206E+00
         21   -1    0    0  502  501  0.00000000000E+00  0.00000000000E+00  0.15371186184E+03  0.15371186184E+03  0.00000000000E+00 0. -1.
         21   -1    0    0  501  502 -0.00000000000E+00 -0.00000000000E+00 -0.29163627181E+03  0.29163627181E+03  0.00000000000E+00 0. -1.
         25    1    1    2    0    0 -0.87017284190E+02  0.15378697082E+02  0.84869433245E+02  0.17503237635E+03  0.12500000000E+03 0.  0.
         25    1    1    2    0    0  0.87017284190E+02 -0.15378697082E+02 -0.22279384321E+03  0.27031575730E+03  0.12500000000E+03 0.  0.
</event>
<event>
 4    0  0.2134002E-002  0.2029322E+03  0.7546771E-02  0.1147288E+00
         21   -1    0    0  502  501  0.00000000000E+00  0.00000000000E+00  0.43763460457E+02  0.43763460457E+02  0.00000000000E+00 0.  1.
         21   -1    0    0  501  502 -0.00000000000E+00 -0.00000000000E+00 -0.94100129810E+03  0.94100129810E+03  0.00000000000E+00 0.  1.
         25    1    1    2    0    0  0.14036654107E+03 -0.76371903077E+02 -0.43748953822E+03  0.48224218966E+03  0.12500000000E+03 0.  0.
         25    1    1    2    0    0 -0.14036654107E+03  0.76371903077E+02 -0.45974829942E+03  0.50252256890E+03  0.12500000000E+03 0.  0.
</event>
<event>
 4    0  0.2134002E-002  0.2099194E+03  0.7546771E-02  0.1141630E+00
         21   -1    0    0  502  501  0.00000000000E+00  0.00000000000E+00  0.15195412383E+03  0.15195412383E+03  0.00000000000E+00 0.  1.
         21   -1    0    0  501  502 -0.00000000000E+00 -0.00000000000E+00 -0.28999652460E+03  0.28999652460E+03  0.00000000000E+00 0.  1.
         25    1    1    2    0    0  0.87663489434E+02  0.10541665303E+03  0.34352711268E+02  0.18868668975E+03  0.12500000000E+03 0.  0.
         25    1    1    2    0    0 -0.87663489434E+02 -0.10541665303E+03 -0.17239511204E+03  0.25326395869E+03  0.12500000000E+03 0.  0.
</event>
<event>
 4    0  0.2134002E-002  0.2109689E+03  0.7546771E-02  0.1140801E+00
         21   -1    0    0  502  501  0.00000000000E+00  0.00000000000E+00  0.23731908276E+03  0.23731908276E+03  0.00000000000E+00 0.  1.
         21   -1    0    0  501  502 -0.00000000000E+00 -0.00000000000E+00 -0.18754443146E+03  0.18754443146E+03  0.00000000000E+00 0.  1.
         25    1    1    2    0    0 -0.89694373651E+02 -0.14388364880E+03  0.13175362789E+02  0.21105964854E+03  0.12500000000E+03 0.  0.
         25    1    1    2    0    0  0.89694373651E+02  0.14388364880E+03  0.36599288510E+02  0.21380386567E+03  0.12500000000E+03 0.  0.
</event>
<event>
 4    0  0.2134002E-002  0.1871791E+03  0.7546771E-02  0.1161030E+00
         21   -1    0    0  502  501  0.00000000000E+00  0.00000000000E+00  0.95918981420E+03  0.95918981420E+03  0.00000000000E+00 0.  1.
         21   -1    0    0  501  502 -0.00000000000E+00 -0.00000000000E+00 -0.36526691186E+02  0.36526691186E+02  0.00000000000E+00 0.  1.
         25    1    1    2    0    0 -0.24371968670E+02 -0.10722182590E+03  0.23375939117E+03  0.28698251822E+03  0.12500000000E+03 0.  0.
         25    1    1    2    0    0  0.24371968670E+02  0.10722182590E+03  0.68890373184E+03  0.70873398716E+03  0.12500000000E+03 0.  0.
</event>
<event>
 4    0  0.2134002E-002  0.2149308E+03  0.7546771E-02  0.1137720E+00
         21   -1    0    0  502  501  0.00000000000E+00  0.00000000000E+00  0.34486210498E+02  0.34486210498E+02  0.00000000000E+00 0. -1.
         21   -1    0    0  501  502 -0.00000000000E+00 -0.00000000000E+00 -0.13395275731E+04  0.13395275731E+04  0.00000000000E+00 0. -1.
         25    1    1    2    0    0  0.10407466330E+03 -0.32630096135E+02 -0.10893189106E+04  0.11018788263E+04  0.12500000000E+03 0.  0.
         25    1    1    2    0    0 -0.10407466330E+03  0.32630096135E+02 -0.21572245194E+03  0.27213495730E+03  0.12500000000E+03 0.  0.
</event>
<event>
 4    0  0.2134002E-002  0.2542980E+03  0.7546771E-02  0.1110618E+00
         21   -1    0    0  502  501  0.00000000000E+00  0.00000000000E+00  0.93288752976E+02  0.93288752976E+02  0.00000000000E+00 0.  1.
         21   -1    0    0  501  502 -0.00000000000E+00 -0.00000000000E+00 -0.69319677691E+03  0.69319677691E+03  0.00000000000E+00 0.  1.
         25    1    1    2    0    0 -0.20781963753E+02  0.50328012597E+01 -0.64080928966E+03  0.65323714287E+03  0.12500000000E+03 0.  0.
         25    1    1    2    0    0  0.20781963753E+02 -0.50328012597E+01  0.40901265724E+02  0.13324838702E+03  0.12500000000E+03 0.  0.
</event>
<event>
 4    0  0.2134002E-002  0.2531498E+03  0.7546771E-02  0.1111330E+00
         21   -1    0    0  502  501  0.00000000000E+00  0.00000000000E+00  0.32902181562E+03  0.32902181562E+03  0.00000000000E+00 0. -1.
         21   -1    0    0  501  502 -0.00000000000E+00 -0.00000000000E+00 -0.19477374132E+03  0.19477374132E+03  0.00000000000E+00 0. -1.
         25    1    1    2    0    0 -0.27961239826E+02  0.78270316464E+02  0.27801057346E+03  0.31594770505E+03  0.12500000000E+03 0.  0.
         25    1    1    2    0    0  0.27961239826E+02 -0.78270316464E+02 -0.14376249916E+03  0.20784785189E+03  0.12500000000E+03 0.  0.
</event>
<event>
 4    0  0.2134002E-002  0.2237189E+03  0.7546771E-02  0.1131140E+00
         21   -1    0    0  502  501  0.00000000000E+00  0.00000000000E+00  0.47428195129E+03  0.47428195129E+03  0.00000000000E+00 0.  1.
         21   -1    0    0  501  502 -0.00000000000E+00 -0.00000000000E+00 -0.10552822993E+03  0.10552822993E+03  0.00000000000E+00 0.  1.
         25    1    1    2    0    0 -0.50779343394E+02 -0.12303052304E+03  0.35188754992E+03  0.39644028441E+03  0.12500000000E+03 0.  0.
         25    1    1    2    0    0  0.50779343394E+02  0.12303052304E+03  0.16866171448E+02  0.18336989681E+03  0.12500000000E+03 0.  0.
</event>
<event>
 4    0  0.2134002E-002  0.2384612E+03  0.7546771E-02  0.1120822E+00
         21   -1    0    0  502  501  0.00000000000E+00  0.00000000000E+00  0.10037539878E+03  0.10037539878E+03  0.00000000000E+00 0. -1.
         21   -1    0    0  501  502 -0.00000000000E+00 -0.00000000000E+00 -0.56651092822E+03  0.56651092822E+03  0.00000000000E+00 0. -1.
         25    1    1    2    0    0 -0.13232211804E+03  0.15426050128E+02 -0.18748687260E+02  0.18363991728E+03  0.12500000000E+03 0.  0.
         25    1    1    2    0    0  0.13232211804E+03 -0.15426050128E+02 -0.44738684218E+03  0.48324640972E+03  0.12500000000E+03 0.  0.
</event>
<event>
 4    0  0.2134002E-002  0.2017076E+03  0.7546771E-02  0.1148306E+00
         21   -1    0    0  502  501  0.00000000000E+00  0.00000000000E+00  0.97655086439E+02  0.97655086439E+02  0.00000000000E+00 0. -1.
         21   -1    0    0  501  502 -0.00000000000E+00 -0.00000000000E+00 -0.41662910230E+03  0.41662910230E+03  0.00000000000E+00 0. -1.
         25    1    1    2    0    0 -0.10712448880E+03  0.11640239044E+03 -0.16711238594E+03  0.26187157566E+03  0.12500000000E+03 0.  0.
         25    1    1    2    0    0  0.10712448880E+03 -0.11640239044E+03 -0.15186162992E+03  0.25241261308E+03  0.12500000000E+03 0.  0.
</event>
<event>
 4    0  0.2134002E-002  0.5838762E+03  0.7546771E-02  0.9939434E-01
         21   -1    0    0  502  501  0.00000000000E+00  0.00000000000E+00  0.80682309320E+03  0.80682309320E+03  0.00000000000E+00 0.  1.
         21   -1    0    0  501  502 -0.00000000000E+00 -0.00000000000E+00 -0.42253555874E+03  0.42253555874E+03  0.00000000000E+00 0. -1.
         25    1    1    2    0    0  0.29018092144E+03  0.42531667026E+03  0.45041730902E+03  0.69541353843E+03  0.12500000000E+03 0.  0.
         25    1    1    2    0    0 -0.29018092144E+03 -0.42531667026E+03 -0.66129774554E+02  0.53394511352E+03  0.12500000000E+03 0.  0.
</event>
<event>
 4    0  0.2134002E-002  0.2044932E+03  0.7546771E-02  0.1146003E+00
         21   -1    0    0  502  501  0.00000000000E+00  0.00000000000E+00  0.76339785092E+03  0.76339785092E+03  0.00000000000E+00 0. -1.
         21   -1    0    0  501  502 -0.00000000000E+00 -0.00000000000E+00 -0.54778068000E+02  0.54778068000E+02  0.00000000000E+00 0. -1.
         25    1    1    2    0    0  0.26037730592E+02 -0.11821324425E+03  0.56921321361E+03  0.59521510152E+03  0.12500000000E+03 0.  0.
         25    1    1    2    0    0 -0.26037730592E+02  0.11821324425E+03  0.13940656931E+03  0.22296081740E+03  0.12500000000E+03 0.  0.
</event>
<event>
 4    0  0.2134002E-002  0.2484363E+03  0.7546771E-02  0.1114297E+00
         21   -1    0    0  502  501  0.00000000000E+00  0.00000000000E+00  0.26818002993E+03  0.26818002993E+03  0.00000000000E+00 0. -1.
         21   -1    0    0  501  502 -0.00000000000E+00 -0.00000000000E+00 -0.23014607429E+03  0.23014607429E+03  0.00000000000E+00 0. -1.
         25    1    1    2    0    0 -0.30550631972E+02  0.88518582789E+02  0.21278336415E+03  0.26395196660E+03  0.12500000000E+03 0.  0.
         25    1    1    2    0    0  0.30550631972E+02 -0.88518582789E+02 -0.17474940851E+03  0.23437413762E+03  0.12500000000E+03 0.  0.
</event>
<event>
 4    0  0.2134002E-002  0.1846410E+03  0.7546771E-02  0.1163386E+00
         21   -1    0    0  502  501  0.00000000000E+00  0.00000000000E+00  0.12377576855E+02  0.12377576855E+02  0.00000000000E+00 0.  1.
         21   -1    0    0  501  502 -0.00000000000E+00 -0.00000000000E+00 -0.27543596099E+04  0.27543596099E+04  0.00000000000E+00 0.  1.
         25    1    1    2    0    0 -0.97627346403E+02 -0.53204637052E+02 -0.19564131918E+04  0.19635527518E+04  0.12500000000E+03 0.  0.
         25    1    1    2    0    0  0.97627346403E+02  0.53204637052E+02 -0.78556884119E+03  0.80318443487E+03  0.12500000000E+03 0.  0.
</event>
<event>
 4    0  0.2134002E-002  0.2475228E+03  0.7546771E-02  0.1114880E+00
         21   -1    0    0  502  501  0.00000000000E+00  0.00000000000E+00  0.11106341178E+04  0.11106341178E+04  0.00000000000E+00 0.  1.
         21   -1    0    0  501  502 -0.00000000000E+00 -0.00000000000E+00 -0.55164481731E+02  0.55164481731E+02  0.00000000000E+00 0.  1.
         25    1    1    2    0    0 -0.37873105141E+02  0.46393091339E+02  0.10106729963E+04  0.10201331268E+04  0.12500000000E+03 0.  0.
         25    1    1    2    0    0  0.37873105141E+02 -0.46393091339E+02  0.44796639847E+02  0.14566547277E+03  0.12500000000E+03 0.  0.
</event>
<event>
 4    0  0.2134002E-002  0.2750970E+03  0.7546771E-02  0.1098397E+00
         21   -1    0    0  502  501  0.00000000000E+00  0.00000000000E+00  0.18243229487E+03  0.18243229487E+03  0.00000000000E+00 0.  1.
         21   -1    0    0  501  502 -0.00000000000E+00 -0.00000000000E+00 -0.41482994990E+03  0.41482994990E+03  0.00000000000E+00 0.  1.
         25    1    1    2    0    0  0.70293921324E+02  0.22145935152E+03 -0.31638168102E+02  0.26572815702E+03  0.12500000000E+03 0.  0.
         25    1    1    2    0    0 -0.70293921324E+02 -0.22145935152E+03 -0.20075948693E+03  0.33153408776E+03  0.12500000000E+03 0.  0.
</event>
<event>
 4    0  0.2134002E-002  0.3480830E+03  0.7546771E-02  0.1063405E+00
         21   -1    0    0  502  501  0.00000000000E+00  0.00000000000E+00  0.17141000638E+03  0.17141000638E+03  0.00000000000E+00 0.  1.
         21   -1    0    0  501  502 -0.00000000000E+00 -0.00000000000E+00 -0.70685372401E+03  0.70685372401E+03  0.00000000000E+00 0.  1.
         25    1    1    2    0    0  0.29853605364E+03 -0.70586979258E+02 -0.40260099901E+03  0.52136250476E+03  0.12500000000E+03 0.  0.
         25    1    1    2    0    0 -0.29853605364E+03  0.70586979258E+02 -0.13284271862E+03  0.35690122563E+03  0.12500000000E+03 0.  0.
</event>
<event>
 4    0  0.2134002E-002  0.3408367E+03  0.7546771E-02  0.1066440E+00
         21   -1    0    0  502  501  0.00000000000E+00  0.00000000000E+00  0.83457696807E+03  0.83457696807E+03  0.00000000000E+00 0.  1.
         21   -1    0    0  501  502 -0.00000000000E+00 -0.00000000000E+00 -0.13919582186E+03  0.13919582186E+03  0.00000000000E+00 0.  1.
         25    1    1    2    0    0  0.13095875526E+03  0.28801726009E+03  0.31770937277E+03  0.46547651201E+03  0.12500000000E+03 0.  0.
         25    1    1    2    0    0 -0.13095875526E+03 -0.28801726009E+03  0.37767177344E+03  0.50829627792E+03  0.12500000000E+03 0.  0.
</event>
<event>
 4    0  0.2134002E-002  0.2068515E+03  0.7546771E-02  0.1144084E+00
         21   -1    0    0  502  501  0.00000000000E+00  0.00000000000E+00  0.34541516946E+04  0.34541516946E+04  0.00000000000E+00 0.  1.
         21   -1    0    0  501  502 -0.00000000000E+00 -0.00000000000E+00 -0.12387284036E+02  0.12387284036E+02  0.00000000000E+00 0.  1.
         25    1    1    2    0    0 -0.77548351446E+02 -0.13196998485E+03  0.22328243547E+04  0.22415529042E+04  0.12500000000E+03 0.  0.
         25    1    1    2    0    0  0.77548351446E+02  0.13196998485E+03  0.12089400559E+04  0.12249860744E+04  0.12500000000E+03 0.  0.
</event>
<event>
 4    0  0.2134002E-002  0.3208448E+03  0.7546771E-02  0.1075261E+00
         21   -1    0    0  502  501  0.00000000000E+00  0.00000000000E+00  0.10845560383E+04  0.10845560383E+04  0.00000000000E+00 0. -1.
         21   -1    0    0  501  502 -0.00000000000E+00 -0.00000000000E+00 -0.94915695178E+02  0.94915695178E+02  0.00000000000E+00 0. -1.
         25    1    1    2    0    0  0.27800631188E+03  0.95328396665E+02  0.43842466865E+03  0.54241700078E+03  0.12500000000E+03 0.  0.
         25    1    1    2    0    0 -0.27800631188E+03 -0.95328396665E+02  0.55121567444E+03  0.63705473266E+03  0.12500000000E+03 0.  0.
</event>
<event>
 4    0  0.2134002E-002  0.3920520E+03  0.7546771E-02  0.1046567E+00
         21   -1    0    0  502  501  0.00000000000E+00  0.00000000000E+00  0.14600543962E+04  0.14600543962E+04  0.00000000000E+00 0. -1.
         21   -1    0    0  501  502 -0.00000000000E+00 -0.00000000000E+00 -0.10527330769E+03  0.10527330769E+03  0.00000000000E+00 0. -1.
         25    1    1    2    0    0 -0.20012176762E+03 -0.31265230542E+03  0.71076980390E+03  0.81155338709E+03  0.12500000000E+03 0.  0.
         25    1    1    2    0    0  0.20012176762E+03  0.31265230542E+03  0.64401128464E+03  0.75377431682E+03  0.12500000000E+03 0.  0.
</event>
<event>
 4    0  0.2134002E-002  0.2231833E+03  0.7546771E-02  0.1131532E+00
         21   -1    0    0  502  501  0.00000000000E+00  0.00000000000E+00  0.18555432473E+04  0.18555432473E+04  0.00000000000E+00 0. -1.
         21   -1    0    0  501  502 -0.00000000000E+00 -0.00000000000E+00 -0.26844317948E+02  0.26844317948E+02  0.00000000000E+00 0. -1.
         25    1    1    2    0    0 -0.29177811887E+02 -0.15484348159E+03  0.13223000423E+04  0.13375089720E+04  0.12500000000E+03 0.  0.
         25    1    1    2    0    0  0.29177811887E+02  0.15484348159E+03  0.50639888704E+03  0.54487859317E+03  0.12500000000E+03 0.  0.
</event>
<event>
 4    0  0.2134002E-002  0.2297401E+03  0.7546771E-02  0.1126823E+00
         21   -1    0    0  502  501  0.00000000000E+00  0.00000000000E+00  0.87935061194E+03  0.87935061194E+03  0.00000000000E+00 0. -1.
         21   -1    0    0  501  502 -0.00000000000E+00 -0.00000000000E+00 -0.60022145781E+02  0.60022145781E+02  0.00000000000E+00 0. -1.
         25    1    1    2    0    0 -0.12398574639E+03  0.11383751494E+03  0.60171035144E+03  0.63719054619E+03  0.12500000000E+03 0.  0.
         25    1    1    2    0    0  0.12398574639E+03 -0.11383751494E+03  0.21761811472E+03  0.30218221154E+03  0.12500000000E+03 0.  0.
</event>
<event>
 4    0  0.2134002E-002  0.3054000E+03  0.7546771E-02  0.1082572E+00
         21   -1    0    0  502  501  0.00000000000E+00  0.00000000000E+00  0.14590111395E+03  0.14590111395E+03  0.00000000000E+00 0. -1.
         21   -1    0    0  501  502 -0.00000000000E+00 -0.00000000000E+00 -0.63926297169E+03  0.63926297169E+03  0.00000000000E+00 0. -1.
         25    1    1    2    0    0  0.15225043514E+03 -0.22945108621E+03 -0.30146335227E+03  0.42700485797E+03  0.12500000000E+03 0.  0.
         25    1    1    2    0    0 -0.15225043514E+03  0.22945108621E+03 -0.19189850547E+03  0.35815922767E+03  0.12500000000E+03 0.  0.
</event>
<event>
 4    0  0.2134002E-002  0.2373368E+03  0.7546771E-02  0.1121580E+00
         21   -1    0    0  502  501  0.00000000000E+00  0.00000000000E+00  0.64255966013E+03  0.64255966013E+03  0.00000000000E+00 0.  1.
         21   -1    0    0  501  502 -0.00000000000E+00 -0.00000000000E+00 -0.87663062858E+02  0.87663062858E+02  0.00000000000E+00 0.  1.
         25    1    1    2    0    0  0.56986329846E+02  0.14227117864E+03  0.47929263121E+03  0.51849296659E+03  0.12500000000E+03 0.  0.
         25    1    1    2    0    0 -0.56986329846E+02 -0.14227117864E+03  0.75603966056E+02  0.21172975640E+03  0.12500000000E+03 0.  0.
</event>
<event>
 4    0  0.2134002E-002  0.2815098E+03  0.7546771E-02  0.1094867E+00
         21   -1    0    0  502  501  0.00000000000E+00  0.00000000000E+00  0.41630775079E+03  0.41630775079E+03  0.00000000000E+00 0.  1.
         21   -1    0    0  501  502 -0.00000000000E+00 -0.00000000000E+00 -0.19035861484E+03  0.19035861484E+03  0.00000000000E+00 0.  1.
         25    1    1    2    0    0 -0.53357396491E+02 -0.16663532973E+03 -0.82792116990E+02  0.23042109172E+03  0.12500000000E+03 0.  0.
         25    1    1    2    0    0  0.53357396491E+02  0.16663532973E+03  0.30874125294E+03  0.37624527391E+03  0.12500000000E+03 0.  0.
</event>
<event>
 4    0  0.2134002E-002  0.2289456E+03  0.7546771E-02  0.1127384E+00
         21   -1    0    0  502  501  0.00000000000E+00  0.00000000000E+00  0.36759328621E+02  0.36759328621E+02  0.00000000000E+00 0. -1.
         21   -1    0    0  501  502 -0.00000000000E+00 -0.00000000000E+00 -0.14259267428E+04  0.14259267428E+04  0.00000000000E+00 0. -1.
         25    1    1    2    0    0 -0.13515821447E+02 -0.17141154737E+01 -0.13057534906E+04  0.13117937314E+04  0.12500000000E+03 0.  0.
         25    1    1    2    0    0  0.13515821447E+02  0.17141154737E+01 -0.83413923596E+02  0.15089234000E+03  0.12500000000E+03 0.  0.
</event>
<event>
 4    0  0.2134002E-002  0.2856109E+03  0.7546771E-02  0.1092663E+00
         21   -1    0    0  502  501  0.00000000000E+00  0.00000000000E+00  0.17064374853E+03  0.17064374853E+03  0.00000000000E+00 0.  1.
         21   -1    0    0  501  502 -0.00000000000E+00 -0.00000000000E+00 -0.47803431898E+03  0.47803431898E+03  0.00000000000E+00 0.  1.
         25    1    1    2    0    0 -0.19875435439E+03 -0.16177500020E+03 -0.17249702542E+03  0.33324865770E+03  0.12500000000E+03 0.  0.
         25    1    1    2    0    0  0.19875435439E+03  0.16177500020E+03 -0.13489354503E+03  0.31542940981E+03  0.12500000000E+03 0.  0.
</event>
<event>
 4    0  0.2134002E-002  0.2889080E+03  0.7546771E-02  0.1090921E+00
         21   -1    0    0  502  501  0.00000000000E+00  0.00000000000E+00  0.26119893699E+03  0.26119893699E+03  0.00000000000E+00 0.  1.
         21   -1    0    0  501  502 -0.00000000000E+00 -0.00000000000E+00 -0.31955661169E+03  0.31955661169E+03  0.00000000000E+00 0.  1.
         25    1    1    2    0    0  0.20061723166E+03 -0.14469969990E+03  0.52830188413E+02  0.28213703337E+03  0.12500000000E+03 0.  0.
         25    1    1    2    0    0 -0.20061723166E+03  0.14469969990E+03 -0.11118786311E+03  0.29861851532E+03  0.12500000000E+03 0.  0.
</event>
<event>
 4    0  0.2134002E-002  0.2966636E+03  0.7546771E-02  0.1086920E+00
         21   -1    0    0  502  501  0.00000000000E+00  0.00000000000E+00  0.21688757416E+04  0.21688757416E+04  0.00000000000E+00 0.  1.
         21   -1    0    0  501  502 -0.00000000000E+00 -0.00000000000E+00 -0.40578293517E+02  0.40578293517E+02  0.00000000000E+00 0.  1.
         25    1    1    2    0    0 -0.30740390271E+02 -0.26147102013E+03  0.85774561568E+03  0.90590540741E+03  0.12500000000E+03 0.  0.
         25    1    1    2    0    0  0.30740390271E+02  0.26147102013E+03  0.12705518324E+04  0.13035486277E+04  0.12500000000E+03 0.  0.
</event>
<event>
 4    0  0.2134002E-002  0.2364363E+03  0.7546771E-02  0.1122190E+00
         21   -1    0    0  502  501  0.00000000000E+00  0.00000000000E+00  0.57689119574E+03  0.57689119574E+03  0.00000000000E+00 0. -1.
         21   -1    0    0  501  502 -0.00000000000E+00 -0.00000000000E+00 -0.96902408255E+02  0.96902408255E+02  0.00000000000E+00 0. -1.
         25    1    1    2    0    0 -0.18124249641E+03  0.27941658950E+02  0.12381903532E+03  0.25413723127E+03  0.12500000000E+03 0.  0.
         25    1    1    2    0    0  0.18124249641E+03 -0.27941658950E+02  0.35616975216E+03  0.41965637272E+03  0.12500000000E+03 0.  0.
</event>
<event>
 4    0  0.2134002E-002  0.2088543E+03  0.7546771E-02  0.1142476E+00
         21   -1    0    0  502  501  0.00000000000E+00  0.00000000000E+00  0.23787425327E+04  0.23787425327E+04  0.00000000000E+00 0. -1.
         21   -1    0    0  501  502 -0.00000000000E+00 -0.00000000000E+00 -0.18337469585E+02  0.18337469585E+02  0.00000000000E+00 0. -1.
         25    1    1    2    0    0  0.69101106840E+02  0.16330615014E+02  0.20496297982E+04  0.20546651702E+04  0.12500000000E+03 0.  0.
         25    1    1    2    0    0 -0.69101106840E+02 -0.16330615014E+02  0.31077526496E+03  0.34241483213E+03  0.12500000000E+03 0.  0.
</event>
<event>
 4    0  0.2134002E-002  0.2297212E+03  0.7546771E-02  0.1126836E+00
         21   -1    0    0  502  501  0.00000000000E+00  0.00000000000E+00  0.42965816528E+03  0.42965816528E+03  0.00000000000E+00 0. -1.
         21   -1    0    0  501  502 -0.00000000000E+00 -0.00000000000E+00 -0.12282280279E+03  0.12282280279E+03  0.00000000000E+00 0. -1.
         25    1    1    2    0    0 -0.22017678219E+02 -0.17430577268E+03  0.58127053071E+02  0.22331823670E+03  0.12500000000E+03 0.  0.
         25    1    1    2    0    0  0.22017678219E+02  0.17430577268E+03  0.24870830942E+03  0.32916273136E+03  0.12500000000E+03 0.  0.
</event>
<event>
 4    0  0.2134002E-002  0.3054765E+03  0.7546771E-02  0.1082535E+00
         21   -1    0    0  502  501  0.00000000000E+00  0.00000000000E+00  0.11442003254E+03  0.11442003254E+03  0.00000000000E+00 0.  1.
         21   -1    0    0  501  502 -0.00000000000E+00 -0.00000000000E+00 -0.81555560678E+03  0.81555560678E+03  0.00000000000E+00 0.  1.
         25    1    1    2    0    0  0.54094162515E+02  0.25922453928E+03 -0.48298240140E+03  0.56481903318E+03  0.12500000000E+03 0.  0.
         25    1    1    2    0    0 -0.54094162515E+02 -0.25922453928E+03 -0.21815317285E+03  0.36515660614E+03  0.12500000000E+03 0.  0.
</event>
<event>
 4    0  0.2134002E-002  0.2351256E+03  0.7546771E-02  0.1123083E+00
         21   -1    0    0  502  501  0.00000000000E+00  0.00000000000E+00  0.28327075943E+02  0.28327075943E+02  0.00000000000E+00 0. -1.
         21   -1    0    0  501  502 -0.00000000000E+00 -0.00000000000E+00 -0.19516335121E+04  0.19516335121E+04  0.00000000000E+00 0. -1.
         25    1    1    2    0    0 -0.59099550269E+02  0.18091749080E+03 -0.71487830887E+03  0.75026654718E+03  0.12500000000E+03 0.  0.
         25    1    1    2    0    0  0.59099550269E+02 -0.18091749080E+03 -0.12084281273E+04  0.12296940409E+04  0.12500000000E+03 0.  0.
</event>
<event>
 4    0  0.2134002E-002  0.2220464E+03  0.7546771E-02  0.1132366E+00
         21   -1    0    0  502  501  0.00000000000E+00  0.00000000000E+00  0.61347926102E+02  0.61347926102E+02  0.00000000000E+00 0.  1.
         21   -1    0    0  501  502 -0.00000000000E+00 -0.00000000000E+00 -0.80368852904E+03  0.80368852904E+03  0.00000000000E+00 0.  1.
         25    1    1    2    0    0 -0.13148798388E+02  0.15713984499E+03 -0.55404021065E+03  0.58945006303E+03  0.12500000000E+03 0.  0.
         25    1    1    2    0    0  0.13148798388E+02 -0.15713984499E+03 -0.18830039228E+03  0.27558639211E+03  0.12500000000E+03 0.  0.
</event>
<event>
 4    0  0.2134002E-002  0.2686016E+03  0.7546771E-02  0.1102083E+00
         21   -1    0    0  502  501  0.00000000000E+00  0.00000000000E+00  0.17771284228E+03  0.17771284228E+03  0.00000000000E+00 0.  1.
         21   -1    0    0  501  502 -0.00000000000E+00 -0.00000000000E+00 -0.40597404613E+03  0.40597404613E+03  0.00000000000E+00 0.  1.
         25    1    1    2    0    0  0.11414929591E+02 -0.88036041889E+02  0.12550058891E+03  0.19813137840E+03  0.12500000000E+03 0.  0.
         25    1    1    2    0    0 -0.11414929591E+02  0.88036041889E+02 -0.35376179276E+03  0.38555551001E+03  0.12500000000E+03 0.  0.
</event>
<event>
 4    0  0.2134002E-002  0.4038082E+03  0.7546771E-02  0.1042469E+00
         21   -1    0    0  502  501  0.00000000000E+00  0.00000000000E+00  0.31563156392E+03  0.31563156392E+03  0.00000000000E+00 0.  1.
         21   -1    0    0  501  502 -0.00000000000E+00 -0.00000000000E+00 -0.51661846484E+03  0.51661846484E+03  0.00000000000E+00 0. -1.
         25    1    1    2    0    0  0.92694461485E+02 -0.34027436365E+03 -0.25697092207E+03  0.45391404531E+03  0.12500000000E+03 0.  0.
         25    1    1    2    0    0 -0.92694461485E+02  0.34027436365E+03  0.55984021142E+02  0.37833598344E+03  0.12500000000E+03 0.  0.
</event>
<event>
 4    0  0.2134002E-002  0.1686754E+03  0.7546771E-02  0.1179236E+00
         21   -1    0    0  502  501  0.00000000000E+00  0.00000000000E+00  0.35745472722E+02  0.35745472722E+02  0.00000000000E+00 0. -1.
         21   -1    0    0  501  502 -0.00000000000E+00 -0.00000000000E+00 -0.79594354751E+03  0.79594354751E+03  0.00000000000E+00 0. -1.
         25    1    1    2    0    0 -0.10946002134E+03 -0.87615667257E+01 -0.31177193287E+03  0.35339071783E+03  0.12500000000E+03 0.  0.
         25    1    1    2    0    0  0.10946002134E+03  0.87615667257E+01 -0.44842614191E+03  0.47829830239E+03  0.12500000000E+03 0.  0.
</event>
<event>
 4    0  0.2134002E-002  0.2050470E+03  0.7546771E-02  0.1145549E+00
         21   -1    0    0  502  501  0.00000000000E+00  0.00000000000E+00  0.23014746841E+03  0.23014746841E+03  0.00000000000E+00 0. -1.
         21   -1    0    0  501  502 -0.00000000000E+00 -0.00000000000E+00 -0.18268400831E+03  0.18268400831E+03  0.00000000000E+00 0. -1.
         25    1    1    2    0    0 -0.22207945632E+02 -0.93224074464E+02  0.15589153289E+03  0.22161022299E+03  0.12500000000E+03 0.  0.
         25    1    1    2    0    0  0.22207945632E+02  0.93224074464E+02 -0.10842807279E+03  0.19122125373E+03  0.12500000000E+03 0.  0.
</event>
<event>
 4    0  0.2134002E-002  0.2316044E+03  0.7546771E-02  0.1125516E+00
         21   -1    0    0  502  501  0.00000000000E+00  0.00000000000E+00  0.96120057248E+03  0.96120057248E+03  0.00000000000E+00 0.  1.
         21   -1    0    0  501  502 -0.00000000000E+00 -0.00000000000E+00 -0.55805811462E+02  0.55805811462E+02  0.00000000000E+00 0.  1.
         25    1    1    2    0    0  0.72560716186E+02 -0.17854717119E+03  0.38788429050E+03  0.45080303092E+03  0.12500000000E+03 0.  0.
         25    1    1    2    0    0 -0.72560716186E+02  0.17854717119E+03  0.51751047052E+03  0.56620335302E+03  0.12500000000E+03 0.  0.
</event>
<event>
 4    0  0.2134002E-002  0.2199412E+03  0.7546771E-02  0.1133927E+00
         21   -1    0    0  502  501  0.00000000000E+00  0.00000000000E+00  0.69444103697E+03  0.69444103697E+03  0.00000000000E+00 0.  1.
         21   -1    0    0  501  502 -0.00000000000E+00 -0.00000000000E+00 -0.69659088865E+02  0.69659088865E+02  0.00000000000E+00 0.  1.
         25    1    1    2    0    0  0.15419932727E+03  0.35883292920E+02  0.16012256173E+03  0.25754471071E+03  0.12500000000E+03 0.  0.
         25    1    1    2    0    0 -0.15419932727E+03 -0.35883292920E+02  0.46465938638E+03  0.50655541512E+03  0.12500000000E+03 0.  0.
</event>
<event>
 4    0  0.2134002E-002  0.2284804E+03  0.7546771E-02  0.1127714E+00
         21   -1    0    0  502  501  0.00000000000E+00  0.00000000000E+00  0.37745466426E+03  0.37745466426E+03  0.00000000000E+00 0.  1.
         21   -1    0    0  501  502 -0.00000000000E+00 -0.00000000000E+00 -0.13830349911E+03  0.13830349911E+03  0.00000000000E+00 0.  1.
         25    1    1    2    0    0 -0.14018418825E+03 -0.33726915928E+02  0.26139870707E+03  0.32364084345E+03  0.12500000000E+03 0.  0.
         25    1    1    2    0    0  0.14018418825E+03  0.33726915928E+02 -0.22247541924E+02  0.19211731992E+03  0.12500000000E+03 0.  0.
</event>
<event>
 4    0  0.2134002E-002  0.1512477E+03  0.7546771E-02  0.1198948E+00
         21   -1    0    0  502  501  0.00000000000E+00  0.00000000000E+00  0.97880275263E+02  0.97880275263E+02  0.00000000000E+00 0.  1.
         21   -1    0    0  501  502 -0.00000000000E+00 -0.00000000000E+00 -0.23371269187E+03  0.23371269187E+03  0.00000000000E+00 0.  1.
         25    1    1    2    0    0  0.13914075436E+02 -0.73932751427E+02 -0.11164326453E+03  0.18370865996E+03  0.12500000000E+03 0.  0.
         25    1    1    2    0    0 -0.13914075436E+02  0.73932751427E+02 -0.24189152069E+02  0.14788430717E+03  0.12500000000E+03 0.  0.
</event>
<event>
 4    0  0.2134002E-002  0.3550002E+03  0.7546771E-02  0.1060581E+00
         21   -1    0    0  502  501  0.00000000000E+00  0.00000000000E+00  0.23624450419E+04  0.23624450419E+04  0.00000000000E+00 0. -1.
         21   -1    0    0  501  502 -0.00000000000E+00 -0.00000000000E+00 -0.53345223982E+02  0.53345223982E+02  0.00000000000E+00 0. -1.
         25    1    1    2    0    0 -0.20632610837E+03  0.21402478811E+02  0.20377093843E+04  0.20520509409E+04  0.12500000000E+03 0.  0.
         25    1    1    2    0    0  0.20632610837E+03 -0.21402478811E+02  0.27139043362E+03  0.36373932500E+03  0.12500000000E+03 0.  0.
</event>
<event>
 4    0  0.2134002E-002  0.3800727E+03  0.7546771E-02  0.1050907E+00
         21   -1    0    0  502  501  0.00000000000E+00  0.00000000000E+00  0.59188408756E+02  0.59188408756E+02  0.00000000000E+00 0. -1.
         21   -1    0    0  501  502 -0.00000000000E+00 -0.00000000000E+00 -0.24406002294E+04  0.24406002294E+04  0.00000000000E+00 0. -1.
         25    1    1    2    0    0  0.52092266901E+02 -0.13882956890E+03 -0.11577721706E+03  0.22586858449E+03  0.12500000000E+03 0.  0.
         25    1    1    2    0    0 -0.52092266901E+02  0.13882956890E+03 -0.22656346036E+04  0.22739200537E+04  0.12500000000E+03 0.  0.
</event>
<event>
 4    0  0.2134002E-002  0.2482839E+03  0.7546771E-02  0.1114394E+00
         21   -1    0    0  502  501  0.00000000000E+00  0.00000000000E+00  0.96773408115E+02  0.96773408115E+02  0.00000000000E+00 0.  1.
         21   -1    0    0  501  502 -0.00000000000E+00 -0.00000000000E+00 -0.63700232314E+03  0.63700232314E+03  0.00000000000E+00 0.  1.
         25    1    1    2    0    0  0.83372639717E+02 -0.13750183421E+02 -0.56148587821E+03  0.58140472652E+03  0.12500000000E+03 0.  0.
         25    1    1    2    0    0 -0.83372639717E+02  0.13750183421E+02  0.21256963187E+02  0.15237100473E+03  0.12500000000E+03 0.  0.
</event>
<event>
 4    0  0.2134002E-002  0.1999189E+03  0.7546771E-02  0.1149807E+00
         21   -1    0    0  502  501  0.00000000000E+00  0.00000000000E+00  0.15987064610E+02  0.15987064610E+02  0.00000000000E+00 0.  1.
         21   -1    0    0  501  502 -0.00000000000E+00 -0.00000000000E+00 -0.24999934906E+04  0.24999934906E+04  0.00000000000E+00 0.  1.
         25    1    1    2    0    0  0.36031613017E+01 -0.11811676288E+03 -0.60097016661E+03  0.62510374627E+03  0.12500000000E+03 0.  0.
         25    1    1    2    0    0 -0.36031613017E+01  0.11811676288E+03 -0.18830362594E+04  0.18908768089E+04  0.12500000000E+03 0.  0.
</event>
<event>
 4    0  0.2134002E-002  0.2111353E+03  0.7546771E-02  0.1140670E+00
         21   -1    0    0  502  501  0.00000000000E+00  0.00000000000E+00  0.89571928029E+02  0.89571928029E+02  0.00000000000E+00 0.  1.
         21   -1    0    0  501  502 -0.00000000000E+00 -0.00000000000E+00 -0.49767930562E+03  0.49767930562E+03  0.00000000000E+00 0.  1.
         25    1    1    2    0    0 -0.12730507159E+03 -0.45770936168E+02 -0.34758256716E+03  0.39337031007E+03  0.12500000000E+03 0.  0.
         25    1    1    2    0    0  0.12730507159E+03  0.45770936168E+02 -0.60524810432E+02  0.19388092358E+03  0.12500000000E+03 0.  0.
</event>
<event>
 4    0  0.2134002E-002  0.1828610E+03  0.7546771E-02  0.1165063E+00
         21   -1    0    0  502  501  0.00000000000E+00  0.00000000000E+00  0.41950286450E+03  0.41950286450E+03  0.00000000000E+00 0. -1.
         21   -1    0    0  501  502 -0.00000000000E+00 -0.00000000000E+00 -0.79709009621E+02  0.79709009621E+02  0.00000000000E+00 0. -1.
         25    1    1    2    0    0  0.16034402185E+02  0.12036039826E+03  0.94272407617E+02  0.19813130585E+03  0.12500000000E+03 0.  0.
         25    1    1    2    0    0 -0.16034402185E+02 -0.12036039826E+03  0.24552144726E+03  0.30108056826E+03  0.12500000000E+03 0.  0.
</event>
<event>
 4    0  0.2134002E-002  0.1997723E+03  0.7546771E-02  0.1149931E+00
         21   -1    0    0  502  501  0.00000000000E+00  0.00000000000E+00  0.23198529894E+03  0.23198529894E+03  0.00000000000E+00 0. -1.
         21   -1    0    0  501  502 -0.00000000000E+00 -0.00000000000E+00 -0.17203237520E+03  0.17203237520E+03  0.00000000000E+00 0. -1.
         25    1    1    2    0    0  0.15023166660E+03  0.34377377107E+02  0.53313488669E+02  0.20547186129E+03  0.12500000000E+03 0.  0.
         25    1    1    2    0    0 -0.15023166660E+03 -0.34377377107E+02  0.66394350714E+01  0.19854581286E+03  0.12500000000E+03 0.  0.
</event>
<event>
 4    0  0.2134002E-002  0.1809850E+03  0.7546771E-02  0.1166853E+00
         21   -1    0    0  502  501  0.00000000000E+00  0.00000000000E+00  0.56785272505E+02  0.56785272505E+02  0.00000000000E+00 0. -1.
         21   -1    0    0  501  502 -0.00000000000E+00 -0.00000000000E+00 -0.57683214104E+03  0.57683214104E+03  0.00000000000E+00 0. -1.
         25    1    1    2    0    0 -0.16142443104E+02 -0.75230984349E+02 -0.74686077026E+02  0.16469149819E+03  0.12500000000E+03 0.  0.
         25    1    1    2    0    0  0.16142443104E+02  0.75230984349E+02 -0.44536079151E+03  0.46892591536E+03  0.12500000000E+03 0.  0.
</event>
<event>
 4    0  0.2134002E-002  0.2049949E+03  0.7546771E-02  0.1145592E+00
         21   -1    0    0  502  501  0.00000000000E+00  0.00000000000E+00  0.58203044274E+02  0.58203044274E+02  0.00000000000E+00 0.  1.
         21   -1    0    0  501  502 -0.00000000000E+00 -0.00000000000E+00 -0.72200524643E+03  0.72200524643E+03  0.00000000000E+00 0.  1.
         25    1    1    2    0    0 -0.14689244216E+03  0.35521884974E+02 -0.44542408656E+03  0.48668964522E+03  0.12500000000E+03 0.  0.
         25    1    1    2    0    0  0.14689244216E+03 -0.35521884974E+02 -0.21837811560E+03  0.29351864549E+03  0.12500000000E+03 0.  0.
</event>
<event>
 4    0  0.2134002E-002  0.4543699E+03  0.7546771E-02  0.1026427E+00
         21   -1    0    0  502  501  0.00000000000E+00  0.00000000000E+00  0.27393892435E+03  0.27393892435E+03  0.00000000000E+00 0.  1.
         21   -1    0    0  501  502 -0.00000000000E+00 -0.00000000000E+00 -0.75364247886E+03  0.75364247886E+03  0.00000000000E+00 0.  1.
         25    1    1    2    0    0 -0.21076152022E+03 -0.19953813096E+02 -0.67193326379E+03  0.71549834665E+03  0.12500000000E+03 0.  0.
         25    1    1    2    0    0  0.21076152022E+03  0.19953813096E+02  0.19222970928E+03  0.31208305656E+03  0.12500000000E+03 0.  0.
</event>
<event>
 4    0  0.2134002E-002  0.2130406E+03  0.7546771E-02  0.1139181E+00
         21   -1    0    0  502  501  0.00000000000E+00  0.00000000000E+00  0.28914769327E+03  0.28914769327E+03  0.00000000000E+00 0. -1.
         21   -1    0    0  501  502 -0.00000000000E+00 -0.00000000000E+00 -0.15696582167E+03  0.15696582167E+03  0.00000000000E+00 0. -1.
         25    1    1    2    0    0 -0.35088069828E+02 -0.65242292865E+02  0.22921568205E+03  0.27139004830E+03  0.12500000000E+03 0.  0.
         25    1    1    2    0    0  0.35088069828E+02  0.65242292865E+02 -0.97033810443E+02  0.17472346663E+03  0.12500000000E+03 0.  0.
</event>
<event>
 4    0  0.2134002E-002  0.1911645E+03  0.7546771E-02  0.1157415E+00
         21   -1    0    0  502  501  0.00000000000E+00  0.00000000000E+00  0.55976329186E+02  0.55976329186E+02  0.00000000000E+00 0. -1.
         21   -1    0    0  501  502 -0.00000000000E+00 -0.00000000000E+00 -0.65284472332E+03  0.65284472332E+03  0.00000000000E+00 0. -1.
         25    1    1    2    0    0 -0.74053739281E+02 -0.38489072496E+02 -0.79435859386E+02  0.17000123752E+03  0.12500000000E+03 0.  0.
         25    1    1    2    0    0  0.74053739281E+02  0.38489072496E+02 -0.51743253475E+03  0.53881981498E+03  0.12500000000E+03 0.  0.
</event>
<event>
 4    0  0.2134002E-002  0.2043525E+03  0.7546771E-02  0.1146118E+00
         21   -1    0    0  502  501  0.00000000000E+00  0.00000000000E+00  0.17081024445E+03  0.17081024445E+03  0.00000000000E+00 0.  1.
         21   -1    0    0  501  502 -0.00000000000E+00 -0.00000000000E+00 -0.24448145374E+03  0.24448145374E+03  0.00000000000E+00 0.  1.
         25    1    1    2    0    0 -0.14171515781E+03  0.53188502514E+02 -0.94519632247E+02  0.21787878197E+03  0.12500000000E+03 0.  0.
         25    1    1    2    0    0  0.14171515781E+03 -0.53188502514E+02  0.20848422953E+02  0.19741291622E+03  0.12500000000E+03 0.  0.
</event>
<event>
 4    0  0.2134002E-002  0.2688076E+03  0.7546771E-02  0.1101964E+00
         21   -1    0    0  502  501  0.00000000000E+00  0.00000000000E+00  0.11431303331E+03  0.11431303331E+03  0.00000000000E+00 0.  1.
         21   -1    0    0  501  502 -0.00000000000E+00 -0.00000000000E+00 -0.63210233020E+03  0.63210233020E+03  0.00000000000E+00 0.  1.
         25    1    1    2    0    0  0.11761286579E+02  0.32620896313E+02  0.67980401419E+02  0.14645403960E+03  0.12500000000E+03 0.  0.
         25    1    1    2    0    0 -0.11761286579E+02 -0.32620896313E+02 -0.58576969831E+03  0.59996132392E+03  0.12500000000E+03 0.  0.
</event>
<event>
 4    0  0.2134002E-002  0.3832404E+03  0.7546771E-02  0.1049743E+00
         21   -1    0    0  502  501  0.00000000000E+00  0.00000000000E+00  0.47042696737E+03  0.47042696737E+03  0.00000000000E+00 0.  1.
         21   -1    0    0  501  502 -0.00000000000E+00 -0.00000000000E+00 -0.31221256469E+03  0.31221256469E+03  0.00000000000E+00 0.  1.
         25    1    1    2    0    0 -0.92813795084E+02  0.20218165301E+03  0.37106584776E+03  0.45034063191E+03  0.12500000000E+03 0.  0.
         25    1    1    2    0    0  0.92813795084E+02 -0.20218165301E+03 -0.21285144508E+03  0.33229890015E+03  0.12500000000E+03 0.  0.
</event>
<event>
 4    0  0.2134002E-002  0.1939620E+03  0.7546771E-02  0.1154936E+00
         21   -1    0    0  502  501  0.00000000000E+00  0.00000000000E+00  0.69838070788E+03  0.69838070788E+03  0.00000000000E+00 0.  1.
         21   -1    0    0  501  502 -0.00000000000E+00 -0.00000000000E+00 -0.53869262307E+02  0.53869262307E+02  0.00000000000E+00 0.  1.
         25    1    1    2    0    0  0.12838743083E+03  0.65760291845E+02  0.25540346349E+03  0.31884742047E+03  0.12500000000E+03 0.  0.
         25    1    1    2    0    0 -0.12838743083E+03 -0.65760291845E+02  0.38910798209E+03  0.43340254972E+03  0.12500000000E+03 0.  0.
</event>
<event>
 4    0  0.2134002E-002  0.2387508E+03  0.7546771E-02  0.1120628E+00
         21   -1    0    0  502  501  0.00000000000E+00  0.00000000000E+00  0.11624490818E+03  0.11624490818E+03  0.00000000000E+00 0.  1.
         21   -1    0    0  501  502 -0.00000000000E+00 -0.00000000000E+00 -0.49036092933E+03  0.49036092933E+03  0.00000000000E+00 0.  1.
         25    1    1    2    0    0 -0.12340876347E+03 -0.12834510504E+03 -0.62103462773E+02  0.22623887592E+03  0.12500000000E+03 0.  0.
         25    1    1    2    0    0  0.12340876347E+03  0.12834510504E+03 -0.31201255837E+03  0.38036696159E+03  0.12500000000E+03 0.  0.
</event>
<event>
 4    0  0.2134002E-002  0.3035222E+03  0.7546771E-02  0.1083493E+00
         21   -1    0    0  502  501  0.00000000000E+00  0.00000000000E+00  0.23322507832E+03  0.23322507832E+03  0.00000000000E+00 0.  1.
         21   -1    0    0  501  502 -0.00000000000E+00 -0.00000000000E+00 -0.39500770209E+03  0.39500770209E+03  0.00000000000E+00 0.  1.
         25    1    1    2    0    0 -0.27482578324E+03  0.26057571240E+02 -0.98590720206E+02  0.31867434516E+03  0.12500000000E+03 0.  0.
         25    1    1    2    0    0  0.27482578324E+03 -0.26057571240E+02 -0.63191903569E+02  0.30955843525E+03  0.12500000000E+03 0.  0.
</event>
<event>
 4    0  0.2134002E-002  0.2277108E+03  0.7546771E-02  0.1128261E+00
         21   -1    0    0  502  501  0.00000000000E+00  0.00000000000E+00  0.87021381855E+03  0.87021381855E+03  0.00000000000E+00 0. -1.
         21   -1    0    0  501  502 -0.00000000000E+00 -0.00000000000E+00 -0.59585591175E+02  0.59585591175E+02  0.00000000000E+00 0. -1.
         25    1    1    2    0    0 -0.87152475498E+02 -0.15839928297E+03  0.52680903377E+03  0.57082277888E+03  0.12500000000E+03 0.  0.
         25    1    1    2    0    0  0.87152475498E+02  0.15839928297E+03  0.28381919360E+03  0.35897663084E+03  0.12500000000E+03 0.  0.
</event>
<event>
 4    0  0.2134002E-002  0.1948033E+03  0.7546771E-02  0.1154199E+00
         21   -1    0    0  502  501  0.00000000000E+00  0.00000000000E+00  0.52892423089E+02  0.52892423089E+02  0.00000000000E+00 0.  1.
         21   -1    0    0  501  502 -0.00000000000E+00 -0.00000000000E+00 -0.71746244352E+03  0.71746244352E+03  0.00000000000E+00 0.  1.
         25    1    1    2    0    0  0.71976269823E+00  0.14449925099E+03 -0.25718086645E+03  0.32038656286E+03  0.12500000000E+03 0.  0.
         25    1    1    2    0    0 -0.71976269823E+00 -0.14449925099E+03 -0.40738915398E+03  0.44996830375E+03  0.12500000000E+03 0.  0.
</event>
<event>
 4    0  0.2134002E-002  0.1923990E+03  0.7546771E-02  0.1156315E+00
         21   -1    0    0  502  501  0.00000000000E+00  0.00000000000E+00  0.81948602898E+03  0.81948602898E+03  0.00000000000E+00 0.  1.
         21   -1    0    0  501  502 -0.00000000000E+00 -0.00000000000E+00 -0.45171448509E+02  0.45171448509E+02  0.00000000000E+00 0.  1.
         25    1    1    2    0    0  0.10883274805E+03 -0.45949175865E+02  0.19338354013E+03  0.25880125078E+03  0.12500000000E+03 0.  0.
         25    1    1    2    0    0 -0.10883274805E+03  0.45949175865E+02  0.58093104035E+03  0.60585622671E+03  0.12500000000E+03 0.  0.
</event>
<event>
 4    0  0.2134002E-002  0.2200759E+03  0.7546771E-02  0.1133826E+00
         21   -1    0    0  502  501  0.00000000000E+00  0.00000000000E+00  0.71867610654E+02  0.71867610654E+02  0.00000000000E+00 0.  1.
         21   -1    0    0  501  502 -0.00000000000E+00 -0.00000000000E+00 -0.67392557477E+03  0.67392557477E+03  0.00000000000E+00 0.  1.
         25    1    1    2    0    0  0.11052934644E+03  0.12346396900E+03 -0.42494431634E+03  0.47292997373E+03  0.12500000000E+03 0.  0.
         25    1    1    2    0    0 -0.11052934644E+03 -0.12346396900E+03 -0.17711364777E+03  0.27286321169E+03  0.12500000000E+03 0.  0.
</event>
<event>
 4    0  0.2134002E-002  0.2613057E+03  0.7546771E-02  0.1106361E+00
         21   -1    0    0  502  501  0.00000000000E+00  0.00000000000E+00  0.33731792770E+03  0.33731792770E+03  0.00000000000E+00 0.  1.
         21   -1    0    0  501  502 -0.00000000000E+00 -0.00000000000E+00 -0.20242225209E+03  0.20242225209E+03  0.00000000000E+00 0.  1.
         25    1    1    2    0    0  0.81698643332E+02  0.18783216612E+03  0.17427928119E+03  0.29657015832E+03  0.12500000000E+03 0.  0.
         25    1    1    2    0    0 -0.81698643332E+02 -0.18783216612E+03 -0.39383605578E+02  0.24317002147E+03  0.12500000000E+03 0.  0.
</event>
<event>
 4    0  0.2134002E-002  0.2242972E+03  0.7546771E-02  0.1130719E+00
         21   -1    0    0  502  501  0.00000000000E+00  0.00000000000E+00  0.45540131303E+02  0.45540131303E+02  0.00000000000E+00 0.  1.
         21   -1    0    0  501  502 -0.00000000000E+00 -0.00000000000E+00 -0.11047235176E+04  0.11047235176E+04  0.00000000000E+00 0.  1.
         25    1    1    2    0    0 -0.86958127103E+02 -0.40296541990E+02 -0.12013996428E+03  0.19810133312E+03  0.12500000000E+03 0.  0.
         25    1    1    2    0    0  0.86958127103E+02  0.40296541990E+02 -0.93904342201E+03  0.95216231578E+03  0.12500000000E+03 0.  0.
</event>
<event>
 4    0  0.2134002E-002  0.1918994E+03  0.7546771E-02  0.1156759E+00
         21   -1    0    0  502  501  0.00000000000E+00  0.00000000000E+00  0.29162089030E+03  0.29162089030E+03  0.00000000000E+00 0. -1.
         21   -1    0    0  501  502 -0.00000000000E+00 -0.00000000000E+00 -0.12627826918E+03  0.12627826918E+03  0.00000000000E+00 0.  1.
         25    1    1    2    0    0 -0.99777818981E+02  0.10025742971E+03  0.12028339423E+03  0.22383087432E+03  0.12500000000E+03 0.  0.
         25    1    1    2    0    0  0.99777818981E+02 -0.10025742971E+03  0.45059226889E+02  0.19406828515E+03  0.12500000000E+03 0.  0.
</event>
<event>
 4    0  0.2134002E-002  0.3020809E+03  0.7546771E-02  0.1084205E+00
         21   -1    0    0  502  501  0.00000000000E+00  0.00000000000E+00  0.11694178579E+04  0.11694178579E+04  0.00000000000E+00 0.  1.
         21   -1    0    0  501  502 -0.00000000000E+00 -0.00000000000E+00 -0.78032719777E+02  0.78032719777E+02  0.00000000000E+00 0.  1.
         25    1    1    2    0    0  0.88399347523E+02 -0.25973008161E+03  0.58452416497E+03  0.65769876035E+03  0.12500000000E+03 0.  0.
         25    1    1    2    0    0 -0.88399347523E+02  0.25973008161E+03  0.50686097317E+03  0.58975181734E+03  0.12500000000E+03 0.  0.
</event>
<event>
 4    0  0.2134002E-002  0.2398326E+03  0.7546771E-02  0.1119904E+00
         21   -1    0    0  502  501  0.00000000000E+00  0.00000000000E+00  0.72825323645E+02  0.72825323645E+02  0.00000000000E+00 0.  1.
         21   -1    0    0  501  502 -0.00000000000E+00 -0.00000000000E+00 -0.78983069506E+03  0.78983069506E+03  0.00000000000E+00 0.  1.
         25    1    1    2    0    0  0.13316777236E+03  0.14412685493E+03 -0.46319173925E+03  0.51834138675E+03  0.12500000000E+03 0.  0.
         25    1    1    2    0    0 -0.13316777236E+03 -0.14412685493E+03 -0.25381363217E+03  0.34431463196E+03  0.12500000000E+03 0.  0.
</event>
<event>
 4    0  0.2134002E-002  0.1807100E+03  0.7546771E-02  0.1167118E+00
         21   -1    0    0  502  501  0.00000000000E+00  0.00000000000E+00  0.33636141024E+03  0.33636141024E+03  0.00000000000E+00 0. -1.
         21   -1    0    0  501  502 -0.00000000000E+00 -0.00000000000E+00 -0.97086306597E+02  0.97086306597E+02  0.00000000000E+00 0. -1.
         25    1    1    2    0    0  0.84005419188E+02  0.54442447998E+02  0.22005050609E+03  0.27215458076E+03  0.12500000000E+03 0.  0.
         25    1    1    2    0    0 -0.84005419188E+02 -0.54442447998E+02  0.19224597559E+02  0.16129313609E+03  0.12500000000E+03 0.  0.
</event>
<event>
 4    0  0.2134002E-002  0.3720535E+03  0.7546771E-02  0.1053911E+00
         21   -1    0    0  502  501  0.00000000000E+00  0.00000000000E+00  0.80453509632E+03  0.80453509632E+03  0.00000000000E+00 0.  1.
         21   -1    0    0  501  502 -0.00000000000E+00 -0.00000000000E+00 -0.17205441335E+03  0.17205441335E+03  0.00000000000E+00 0.  1.
         25    1    1    2    0    0  0.22461868130E+03  0.40583683454E+02 -0.32723889469E+02  0.26229075526E+03  0.12500000000E+03 0.  0.
         25    1    1    2    0    0 -0.22461868130E+03 -0.40583683454E+02  0.66520457244E+03  0.71429875441E+03  0.12500000000E+03 0.  0.
</event>
<event>
 4    0  0.2134002E-002  0.2116429E+03  0.7546771E-02  0.1140272E+00
         21   -1    0    0  502  501  0.00000000000E+00  0.00000000000E+00  0.18101863095E+03  0.18101863095E+03  0.00000000000E+00 0.  1.
         21   -1    0    0  501  502 -0.00000000000E+00 -0.00000000000E+00 -0.24744803117E+03  0.24744803117E+03  0.00000000000E+00 0.  1.
         25    1    1    2    0    0  0.89064651162E+02 -0.82867718614E+01 -0.18048261701E+03  0.23706572447E+03  0.12500000000E+03 0.  0.
         25    1    1    2    0    0 -0.89064651162E+02  0.82867718614E+01  0.11405321679E+03  0.19140093765E+03  0.12500000000E+03 0.  0.
</event>
<event>
 4    0  0.2134002E-002  0.2034195E+03  0.7546771E-02  0.1146886E+00
         21   -1    0    0  502  501  0.00000000000E+00  0.00000000000E+00  0.51826267259E+03  0.51826267259E+03  0.00000000000E+00 0.  1.
         21   -1    0    0  501  502 -0.00000000000E+00 -0.00000000000E+00 -0.79842694982E+02  0.79842694982E+02  0.00000000000E+00 0.  1.
         25    1    1    2    0    0  0.55860979145E+01  0.10402488858E+03  0.39745313505E+02  0.16750245336E+03  0.12500000000E+03 0.  0.
         25    1    1    2    0    0 -0.55860979145E+01 -0.10402488858E+03  0.39867466411E+03  0.43060291422E+03  0.12500000000E+03 0.  0.
</event>
<event>
 4    0  0.2134002E-002  0.1933318E+03  0.7546771E-02  0.1155490E+00
         21   -1    0    0  502  501  0.00000000000E+00  0.00000000000E+00  0.59230937629E+03  0.59230937629E+03  0.00000000000E+00 0. -1.
         21   -1    0    0  501  502 -0.00000000000E+00 -0.00000000000E+00 -0.63104149356E+02  0.63104149356E+02  0.00000000000E+00 0. -1.
         25    1    1    2    0    0  0.13278824212E+03 -0.62881732599E+02  0.24280625271E+03  0.31010757149E+03  0.12500000000E+03 0.  0.
         25    1    1    2    0    0 -0.13278824212E+03  0.62881732599E+02  0.28639897422E+03  0.34530595415E+03  0.12500000000E+03 0.  0.
</event>
<event>
 4    0  0.2134002E-002  0.1954446E+03  0.7546771E-02  0.1153640E+00
         21   -1    0    0  502  501  0.00000000000E+00  0.00000000000E+00  0.97487119919E+02  0.97487119919E+02  0.00000000000E+00 0. -1.
         21   -1    0    0  501  502 -0.00000000000E+00 -0.00000000000E+00 -0.39183203895E+03  0.39183203895E+03  0.00000000000E+00 0. -1.
         25    1    1    2    0    0  0.14204264136E+03  0.48788255952E+02 -0.14198520533E+03  0.24153923991E+03  0.12500000000E+03 0.  0.
         25    1    1    2    0    0 -0.14204264136E+03 -0.48788255952E+02 -0.15235971370E+03  0.24777991896E+03  0.12500000000E+03 0.  0.
</event>
<event>
 4    0  0.2134002E-002  0.2013090E+03  0.7546771E-02  0.1148639E+00
         21   -1    0    0  502  501  0.00000000000E+00  0.00000000000E+00  0.10553661354E+04  0.10553661354E+04  0.00000000000E+00 0. -1.
         21   -1    0    0  501  502 -0.00000000000E+00 -0.00000000000E+00 -0.38399291338E+02  0.38399291338E+02  0.00000000000E+00 0. -1.
         25    1    1    2    0    0 -0.77261136993E+02 -0.13712601613E+03  0.53915661936E+03  0.57540219654E+03  0.12500000000E+03 0.  0.
         25    1    1    2    0    0  0.77261136993E+02  0.13712601613E+03  0.47781022471E+03  0.51836323020E+03  0.12500000000E+03 0.  0.
</event>
<event>
 4    0  0.2134002E-002  0.1797951E+03  0.7546771E-02  0.1168001E+00
         21   -1    0    0  502  501  0.00000000000E+00  0.00000000000E+00  0.61148791586E+02  0.61148791586E+02  0.00000000000E+00 0. -1.
         21   -1    0    0  501  502 -0.00000000000E+00 -0.00000000000E+00 -0.52864978617E+03  0.52864978617E+03  0.00000000000E+00 0. -1.
         25    1    1    2    0    0 -0.52082487833E+02  0.22657878790E+02 -0.43351143724E+02  0.14398016069E+03  0.12500000000E+03 0.  0.
         25    1    1    2    0    0  0.52082487833E+02 -0.22657878790E+02 -0.42414985086E+03  0.44581841706E+03  0.12500000000E+03 0.  0.
</event>
<event>
 4    0  0.2134002E-002  0.2828874E+03  0.7546771E-02  0.1094122E+00
         21   -1    0    0  502  501  0.00000000000E+00  0.00000000000E+00  0.43680205500E+03  0.43680205500E+03  0.00000000000E+00 0.  1.
         21   -1    0    0  501  502 -0.00000000000E+00 -0.00000000000E+00 -0.18320715925E+03  0.18320715925E+03  0.00000000000E+00 0.  1.
         25    1    1    2    0    0 -0.19768126731E+03  0.15268332564E+03  0.77664557716E+02  0.28990837328E+03  0.12500000000E+03 0.  0.
         25    1    1    2    0    0  0.19768126731E+03 -0.15268332564E+03  0.17593033803E+03  0.33010084097E+03  0.12500000000E+03 0.  0.
</event>
<event>
 4    0  0.2134002E-002  0.2363419E+03  0.7546771E-02  0.1122254E+00
         21   -1    0    0  502  501  0.00000000000E+00  0.00000000000E+00  0.28955296959E+03  0.28955296959E+03  0.00000000000E+00 0. -1.
         21   -1    0    0  501  502 -0.00000000000E+00 -0.00000000000E+00 -0.19290942552E+03  0.19290942552E+03  0.00000000000E+00 0. -1.
         25    1    1    2    0    0 -0.65994415790E+02  0.23439842256E+02  0.24016703602E+03  0.27966031952E+03  0.12500000000E+03 0.  0.
         25    1    1    2    0    0  0.65994415790E+02 -0.23439842256E+02 -0.14352349196E+03  0.20280207559E+03  0.12500000000E+03 0.  0.
</event>
<event>
 4    0  0.2134002E-002  0.3073639E+03  0.7546771E-02  0.1081616E+00
         21   -1    0    0  502  501  0.00000000000E+00  0.00000000000E+00  0.12569208348E+04  0.12569208348E+04  0.00000000000E+00 0. -1.
         21   -1    0    0  501  502 -0.00000000000E+00 -0.00000000000E+00 -0.75161896569E+02  0.75161896569E+02  0.00000000000E+00 0. -1.
         25    1    1    2    0    0  0.18021961000E+03  0.68301218041E+02  0.10334006396E+04  0.10586246011E+04  0.12500000000E+03 0.  0.
         25    1    1    2    0    0 -0.18021961000E+03 -0.68301218041E+02  0.14835829863E+03  0.27345813023E+03  0.12500000000E+03 0.  0.
</event>
<event>
 4    0  0.2134002E-002  0.2322770E+03  0.7546771E-02  0.1125047E+00
         21   -1    0    0  502  501  0.00000000000E+00  0.00000000000E+00  0.29741467708E+03  0.29741467708E+03  0.00000000000E+00 0. -1.
         21   -1    0    0  501  502 -0.00000000000E+00 -0.00000000000E+00 -0.18140527247E+03  0.18140527247E+03  0.00000000000E+00 0. -1.
         25    1    1    2    0    0  0.44068294205E+02  0.17428883171E+03  0.13790279965E+03  0.25876783719E+03  0.12500000000E+03 0.  0.
         25    1    1    2    0    0 -0.44068294205E+02 -0.17428883171E+03 -0.21893395038E+02  0.22005211237E+03  0.12500000000E+03 0.  0.
</event>
<event>
 4    0  0.2134002E-002  0.1646570E+03  0.7546771E-02  0.1183537E+00
         21   -1    0    0  502  501  0.00000000000E+00  0.00000000000E+00  0.11753839798E+03  0.11753839798E+03  0.00000000000E+00 0. -1.
         21   -1    0    0  501  502 -0.00000000000E+00 -0.00000000000E+00 -0.23066430439E+03  0.23066430439E+03  0.00000000000E+00 0. -1.
         25    1    1    2    0    0 -0.73186668147E+02 -0.35643964755E+02 -0.13027629544E+03  0.19804972550E+03  0.12500000000E+03 0.  0.
         25    1    1    2    0    0  0.73186668147E+02  0.35643964755E+02  0.17150389029E+02  0.15015297687E+03  0.12500000000E+03 0.  0.
</event>
<event>
 4    0  0.2134002E-002  0.1989929E+03  0.7546771E-02  0.1150591E+00
         21   -1    0    0  502  501  0.00000000000E+00  0.00000000000E+00  0.32355350396E+04  0.32355350396E+04  0.00000000000E+00 0. -1.
         21   -1    0    0  501  502 -0.00000000000E+00 -0.00000000000E+00 -0.12238523666E+02  0.12238523666E+02  0.00000000000E+00 0. -1.
         25    1    1    2    0    0  0.10408687939E+03  0.11281454892E+03  0.17772830738E+04  0.17882732804E+04  0.12500000000E+03 0.  0.
         25    1    1    2    0    0 -0.10408687939E+03 -0.11281454892E+03  0.14460134422E+04  0.14595002829E+04  0.12500000000E+03 0.  0.
</event>
<event>
 4    0  0.2134002E-002  0.1734889E+03  0.7546771E-02  0.1174258E+00
         21   -1    0    0  502  501  0.00000000000E+00  0.00000000000E+00  0.70154716341E+03  0.70154716341E+03  0.00000000000E+00 0. -1.
         21   -1    0    0  501  502 -0.00000000000E+00 -0.00000000000E+00 -0.42902867577E+02  0.42902867577E+02  0.00000000000E+00 0. -1.
         25    1    1    2    0    0  0.10612582091E+02 -0.11637287387E+03  0.39068993207E+03  0.42651951384E+03  0.12500000000E+03 0.  0.
         25    1    1    2    0    0 -0.10612582091E+02  0.11637287387E+03  0.26795436377E+03  0.31793051714E+03  0.12500000000E+03 0.  0.
</event>
<event>
 4    0  0.2134002E-002  0.1776006E+03  0.7546771E-02  0.1170146E+00
         21   -1    0    0  502  501  0.00000000000E+00  0.00000000000E+00  0.54472517251E+02  0.54472517251E+02  0.00000000000E+00 0.  1.
         21   -1    0    0  501  502 -0.00000000000E+00 -0.00000000000E+00 -0.57904406153E+03  0.57904406153E+03  0.00000000000E+00 0.  1.
         25    1    1    2    0    0  0.71052207605E+00  0.11039826145E+03 -0.15337707327E+03  0.22657847995E+03  0.12500000000E+03 0.  0.
         25    1    1    2    0    0 -0.71052207605E+00 -0.11039826145E+03 -0.37119447101E+03  0.40693809883E+03  0.12500000000E+03 0.  0.
</event>
<event>
 4    0  0.2134002E-002  0.1728398E+03  0.7546771E-02  0.1174918E+00
         21   -1    0    0  502  501  0.00000000000E+00  0.00000000000E+00  0.11986678609E+03  0.11986678609E+03  0.00000000000E+00 0. -1.
         21   -1    0    0  501  502 -0.00000000000E+00 -0.00000000000E+00 -0.24922340520E+03  0.24922340520E+03  0.00000000000E+00 0. -1.
         25    1    1    2    0    0  0.22086326511E+02 -0.19664325574E+01  0.60554903167E+02  0.14065407557E+03  0.12500000000E+03 0.  0.
         25    1    1    2    0    0 -0.22086326511E+02  0.19664325574E+01 -0.18991152227E+03  0.22843611573E+03  0.12500000000E+03 0.  0.
</event>
<event>
 4    0  0.2134002E-002  0.2433731E+03  0.7546771E-02  0.1117566E+00
         21   -1    0    0  502  501  0.00000000000E+00  0.00000000000E+00  0.12387877659E+04  0.12387877659E+04  0.00000000000E+00 0. -1.
         21   -1    0    0  501  502 -0.00000000000E+00 -0.00000000000E+00 -0.47813251898E+02  0.47813251898E+02  0.00000000000E+00 0. -1.
         25    1    1    2    0    0  0.89866203973E+02 -0.18756061601E+03  0.54599723449E+03  0.59748882782E+03  0.12500000000E+03 0.  0.
         25    1    1    2    0    0 -0.89866203973E+02  0.18756061601E+03  0.64497727953E+03  0.68911219000E+03  0.12500000000E+03 0.  0.
</event>
<event>
 4    0  0.2134002E-002  0.1941052E+03  0.7546771E-02  0.1154810E+00
         21   -1    0    0  502  501  0.00000000000E+00  0.00000000000E+00  0.69835499488E+03  0.69835499488E+03  0.00000000000E+00 0.  1.
         21   -1    0    0  501  502 -0.00000000000E+00 -0.00000000000E+00 -0.53950826878E+02  0.53950826878E+02  0.00000000000E+00 0.  1.
         25    1    1    2    0    0 -0.13721553983E+03  0.50535778680E+02  0.27204649707E+03  0.33319103509E+03  0.12500000000E+03 0.  0.
         25    1    1    2    0    0  0.13721553983E+03 -0.50535778680E+02  0.37235767093E+03  0.41911478666E+03  0.12500000000E+03 0.  0.
</event>
<event>
 4    0  0.2134002E-002  0.1987950E+03  0.7546771E-02  0.1150760E+00
         21   -1    0    0  502  501  0.00000000000E+00  0.00000000000E+00  0.21816844301E+03  0.21816844301E+03  0.00000000000E+00 0. -1.
         21   -1    0    0  501  502 -0.00000000000E+00 -0.00000000000E+00 -0.18114190012E+03  0.18114190012E+03  0.00000000000E+00 0. -1.
         25    1    1    2    0    0  0.92583688628E+02  0.99638098019E+02 -0.55254914783E+02  0.19281492573E+03  0.12500000000E+03 0.  0.
         25    1    1    2    0    0 -0.92583688628E+02 -0.99638098019E+02  0.92281457674E+02  0.20649541740E+03  0.12500000000E+03 0.  0.
</event>
<event>
 4    0  0.2134002E-002  0.2044340E+03  0.7546771E-02  0.1146051E+00
         21   -1    0    0  502  501  0.00000000000E+00  0.00000000000E+00  0.77949256625E+02  0.77949256625E+02  0.00000000000E+00 0.  1.
         21   -1    0    0  501  502 -0.00000000000E+00 -0.00000000000E+00 -0.53615981810E+03  0.53615981810E+03  0.00000000000E+00 0.  1.
         25    1    1    2    0    0  0.12156794970E+03 -0.10672153857E+03 -0.22898831895E+03  0.30696726765E+03  0.12500000000E+03 0.  0.
         25    1    1    2    0    0 -0.12156794970E+03  0.10672153857E+03 -0.22922224252E+03  0.30714180708E+03  0.12500000000E+03 0.  0.
</event>
<event>
 4    0  0.2134002E-002  0.1722025E+03  0.7546771E-02  0.1175570E+00
         21   -1    0    0  502  501  0.00000000000E+00  0.00000000000E+00  0.75863886673E+02  0.75863886673E+02  0.00000000000E+00 0.  1.
         21   -1    0    0  501  502 -0.00000000000E+00 -0.00000000000E+00 -0.39088045927E+03  0.39088045927E+03  0.00000000000E+00 0.  1.
         25    1    1    2    0    0 -0.30415317403E+02  0.10817708483E+03 -0.20824016449E+03  0.26761229292E+03  0.12500000000E+03 0.  0.
         25    1    1    2    0    0  0.30415317403E+02 -0.10817708483E+03 -0.10677640811E+03  0.19913205303E+03  0.12500000000E+03 0.  0.
</event>
<event>
 4    0  0.2134002E-002  0.2007546E+03  0.7546771E-02  0.1149104E+00
         21   -1    0    0  502  501  0.00000000000E+00  0.00000000000E+00  0.48580421260E+02  0.48580421260E+02  0.00000000000E+00 0. -1.
         21   -1    0    0  501  502 -0.00000000000E+00 -0.00000000000E+00 -0.82960209781E+03  0.82960209781E+03  0.00000000000E+00 0. -1.
         25    1    1    2    0    0  0.10965499746E+03  0.94859930615E+02 -0.25828366503E+03  0.32149350931E+03  0.12500000000E+03 0.  0.
         25    1    1    2    0    0 -0.10965499746E+03 -0.94859930615E+02 -0.52273801152E+03  0.55668900976E+03  0.12500000000E+03 0.  0.
</event>
<event>
 4    0  0.2134002E-002  0.2240551E+03  0.7546771E-02  0.1130895E+00
         21   -1    0    0  502  501  0.00000000000E+00  0.00000000000E+00  0.10543840635E+04  0.10543840635E+04  0.00000000000E+00 0.  1.
         21   -1    0    0  501  502 -0.00000000000E+00 -0.00000000000E+00 -0.47611399010E+02  0.47611399010E+02  0.00000000000E+00 0.  1.
         25    1    1    2    0    0 -0.15920700622E+03 -0.32624766767E+02  0.28117894187E+03  0.34799115447E+03  0.12500000000E+03 0.  0.
         25    1    1    2    0    0  0.15920700622E+03  0.32624766767E+02  0.72559372258E+03  0.75400430801E+03  0.12500000000E+03 0.  0.
</event>
<event>
 4    0  0.2134002E-002  0.2004419E+03  0.7546771E-02  0.1149367E+00
         21   -1    0    0  502  501  0.00000000000E+00  0.00000000000E+00  0.21872698727E+03  0.21872698727E+03  0.00000000000E+00 0. -1.
         21   -1    0    0  501  502 -0.00000000000E+00 -0.00000000000E+00 -0.18368536104E+03  0.18368536104E+03  0.00000000000E+00 0. -1.
         25    1    1    2    0    0 -0.95233195037E+02  0.31288493321E+02 -0.10336935085E+03  0.19067919117E+03  0.12500000000E+03 0.  0.
         25    1    1    2    0    0  0.95233195037E+02 -0.31288493321E+02  0.13841097708E+03  0.21173315713E+03  0.12500000000E+03 0.  0.
</event>
<event>
 4    0  0.2134002E-002  0.1787860E+03  0.7546771E-02  0.1168983E+00
         21   -1    0    0  502  501  0.00000000000E+00  0.00000000000E+00  0.75116394247E+03  0.75116394247E+03  0.00000000000E+00 0.  1.
         21   -1    0    0  501  502 -0.00000000000E+00 -0.00000000000E+00 -0.42553219589E+02  0.42553219589E+02  0.00000000000E+00 0.  1.
         25    1    1    2    0    0 -0.75504628912E+02 -0.92846136683E+02  0.25458761083E+03  0.30783308086E+03  0.12500000000E+03 0.  0.
         25    1    1    2    0    0  0.75504628912E+02  0.92846136683E+02  0.45402311205E+03  0.48588408120E+03  0.12500000000E+03 0.  0.
</event>
<event>
 4    0  0.2134002E-002  0.2070003E+03  0.7546771E-02  0.1143964E+00
         21   -1    0    0  502  501  0.00000000000E+00  0.00000000000E+00  0.12667774908E+03  0.12667774908E+03  0.00000000000E+00 0. -1.
         21   -1    0    0  501  502 -0.00000000000E+00 -0.00000000000E+00 -0.33825295835E+03  0.33825295835E+03  0.00000000000E+00 0. -1.
         25    1    1    2    0    0 -0.13589849466E+03  0.54905158580E+02 -0.20696029317E+02  0.19374287837E+03  0.12500000000E+03 0.  0.
         25    1    1    2    0    0  0.13589849466E+03 -0.54905158580E+02 -0.19087917995E+03  0.27118782906E+03  0.12500000000E+03 0.  0.
</event>
<event>
 4    0  0.2134002E-002  0.2303801E+03  0.7546771E-02  0.1126373E+00
         21   -1    0    0  502  501  0.00000000000E+00  0.00000000000E+00  0.16678391066E+03  0.16678391066E+03  0.00000000000E+00 0. -1.
         21   -1    0    0  501  502 -0.00000000000E+00 -0.00000000000E+00 -0.31822614015E+03  0.31822614015E+03  0.00000000000E+00 0. -1.
         25    1    1    2    0    0 -0.11001653525E+00 -0.15802782351E+03  0.41859092830E+02  0.20579112896E+03  0.12500000000E+03 0.  0.
         25    1    1    2    0    0  0.11001653525E+00  0.15802782351E+03 -0.19330132233E+03  0.27921892185E+03  0.12500000000E+03 0.  0.
</event>
<event>
 4    0  0.2134002E-002  0.2456410E+03  0.7546771E-02  0.1116091E+00
         21   -1    0    0  502  501  0.00000000000E+00  0.00000000000E+00  0.13115478128E+03  0.13115478128E+03  0.00000000000E+00 0. -1.
         21   -1    0    0  501  502 -0.00000000000E+00 -0.00000000000E+00 -0.46006329703E+03  0.46006329703E+03  0.00000000000E+00 0.  1.
         25    1    1    2    0    0  0.20468101976E+03 -0.33830651811E+02 -0.11519239031E+03  0.26820350415E+03  0.12500000000E+03 0.  0.
         25    1    1    2    0    0 -0.20468101976E+03  0.33830651811E+02 -0.21371612544E+03  0.32301457417E+03  0.12500000000E+03 0.  0.
</event>
<event>
 4    0  0.2134002E-002  0.1730814E+03  0.7546771E-02  0.1174672E+00
         21   -1    0    0  502  501  0.00000000000E+00  0.00000000000E+00  0.24965412006E+03  0.24965412006E+03  0.00000000000E+00 0.  1.
         21   -1    0    0  501  502 -0.00000000000E+00 -0.00000000000E+00 -0.11999473189E+03  0.11999473189E+03  0.00000000000E+00 0.  1.
         25    1    1    2    0    0 -0.63473524565E+02 -0.78959131074E+02 -0.32847511288E+01  0.16093235315E+03  0.12500000000E+03 0.  0.
         25    1    1    2    0    0  0.63473524565E+02  0.78959131074E+02  0.13294413930E+03  0.20871649881E+03  0.12500000000E+03 0.  0.
</event>
<event>
 4    0  0.2134002E-002  0.3296061E+03  0.7546771E-02  0.1071311E+00
         21   -1    0    0  502  501  0.00000000000E+00  0.00000000000E+00  0.12238268738E+04  0.12238268738E+04  0.00000000000E+00 0.  1.
         21   -1    0    0  501  502 -0.00000000000E+00 -0.00000000000E+00 -0.88770886995E+02  0.88770886995E+02  0.00000000000E+00 0.  1.
         25    1    1    2    0    0 -0.18487765109E+02  0.30390621998E+03  0.53222155142E+03  0.62576798240E+03  0.12500000000E+03 0.  0.
         25    1    1    2    0    0  0.18487765109E+02 -0.30390621998E+03  0.60283443537E+03  0.68682977838E+03  0.12500000000E+03 0.  0.
</event>
<event>
 4    0  0.2134002E-002  0.1933422E+03  0.7546771E-02  0.1155481E+00
         21   -1    0    0  502  501  0.00000000000E+00  0.00000000000E+00  0.29170018871E+02  0.29170018871E+02  0.00000000000E+00 0.  1.
         21   -1    0    0  501  502 -0.00000000000E+00 -0.00000000000E+00 -0.12814935943E+04  0.12814935943E+04  0.00000000000E+00 0.  1.
         25    1    1    2    0    0 -0.72040304279E+02 -0.75024748087E+02 -0.98064621476E+03  0.99403748258E+03  0.12500000000E+03 0.  0.
         25    1    1    2    0    0  0.72040304279E+02  0.75024748087E+02 -0.27167736065E+03  0.31662613057E+03  0.12500000000E+03 0.  0.
</event>
<event>
 4    0  0.2134002E-002  0.3147638E+03  0.7546771E-02  0.1078085E+00
         21   -1    0    0  502  501  0.00000000000E+00  0.00000000000E+00  0.12253998888E+03  0.12253998888E+03  0.00000000000E+00 0.  1.
         21   -1    0    0  501  502 -0.00000000000E+00 -0.00000000000E+00 -0.80852195350E+03  0.80852195350E+03  0.00000000000E+00 0.  1.
         25    1    1    2    0    0  0.21827468020E+03  0.16313607024E+03 -0.48480441406E+03  0.57001537990E+03  0.12500000000E+03 0.  0.
         25    1    1    2    0    0 -0.21827468020E+03 -0.16313607024E+03 -0.20117755056E+03  0.36104656248E+03  0.12500000000E+03 0.  0.
</event>
<event>
 4    0  0.2134002E-002  0.1939330E+03  0.7546771E-02  0.1154961E+00
         21   -1    0    0  502  501  0.00000000000E+00  0.00000000000E+00  0.80252559449E+02  0.80252559449E+02  0.00000000000E+00 0.  1.
         21   -1    0    0  501  502 -0.00000000000E+00 -0.00000000000E+00 -0.46864561470E+03  0.46864561470E+03  0.00000000000E+00 0.  1.
         25    1    1    2    0    0 -0.31681359327E+02  0.68089273628E+01 -0.39895690739E+03  0.41933481131E+03  0.12500000000E+03 0.  0.
         25    1    1    2    0    0  0.31681359327E+02 -0.68089273628E+01  0.10563852132E+02  0.12956336285E+03  0.12500000000E+03 0.  0.
</event>
<event>
 4    0  0.2134002E-002  0.1943540E+03  0.7546771E-02  0.1154592E+00
         21   -1    0    0  502  501  0.00000000000E+00  0.00000000000E+00  0.59360032633E+03  0.59360032633E+03  0.00000000000E+00 0. -1.
         21   -1    0    0  501  502 -0.00000000000E+00 -0.00000000000E+00 -0.63634530781E+02  0.63634530781E+02  0.00000000000E+00 0. -1.
         25    1    1    2    0    0  0.13329967696E+03  0.54164347399E+02  0.32927622592E+03  0.38046079083E+03  0.12500000000E+03 0.  0.
         25    1    1    2    0    0 -0.13329967696E+03 -0.54164347399E+02  0.20068956964E+03  0.27677406628E+03  0.12500000000E+03 0.  0.
</event>
<event>
 4    0  0.2134002E-002  0.3377068E+03  0.7546771E-02  0.1067777E+00
         21   -1    0    0  502  501  0.00000000000E+00  0.00000000000E+00  0.65666976352E+02  0.65666976352E+02  0.00000000000E+00 0.  1.
         21   -1    0    0  501  502 -0.00000000000E+00 -0.00000000000E+00 -0.17367308783E+04  0.17367308783E+04  0.00000000000E+00 0.  1.
         25    1    1    2    0    0 -0.14485015005E+03  0.13459710025E+03 -0.18556368405E+03  0.29859140343E+03  0.12500000000E+03 0.  0.
         25    1    1    2    0    0  0.14485015005E+03 -0.13459710025E+03 -0.14855002179E+04  0.15038064513E+04  0.12500000000E+03 0.  0.
</event>
<event>
 4    0  0.2134002E-002  0.2424342E+03  0.7546771E-02  0.1118182E+00
         21   -1    0    0  502  501  0.00000000000E+00  0.00000000000E+00  0.18002171283E+03  0.18002171283E+03  0.00000000000E+00 0.  1.
         21   -1    0    0  501  502 -0.00000000000E+00 -0.00000000000E+00 -0.32648474580E+03  0.32648474580E+03  0.00000000000E+00 0.  1.
         25    1    1    2    0    0  0.87267867630E+02 -0.15468962603E+03  0.39301404947E+02  0.22071284864E+03  0.12500000000E+03 0.  0.
         25    1    1    2    0    0 -0.87267867630E+02  0.15468962603E+03 -0.18576443792E+03  0.28579361000E+03  0.12500000000E+03 0.  0.
</event>
<event>
 4    0  0.2134002E-002  0.2880730E+03  0.7546771E-02  0.1091360E+00
         21   -1    0    0  502  501  0.00000000000E+00  0.00000000000E+00  0.27935486437E+04  0.27935486437E+04  0.00000000000E+00 0.  1.
         21   -1    0    0  501  502 -0.00000000000E+00 -0.00000000000E+00 -0.29706318447E+02  0.29706318447E+02  0.00000000000E+00 0.  1.
         25    1    1    2    0    0 -0.10881622702E+03  0.23226244944E+03  0.11874964288E+04  0.12212942254E+04  0.12500000000E+03 0.  0.
         25    1    1    2    0    0  0.10881622702E+03 -0.23226244944E+03  0.15763458965E+04  0.16019607367E+04  0.12500000000E+03 0.  0.
</event>
<event>
 4    0  0.2134002E-002  0.3047606E+03  0.7546771E-02  0.1082885E+00
         21   -1    0    0  502  501  0.00000000000E+00  0.00000000000E+00  0.14795647900E+04  0.14795647900E+04  0.00000000000E+00 0. -1.
         21   -1    0    0  501  502 -0.00000000000E+00 -0.00000000000E+00 -0.62774549782E+02  0.62774549782E+02  0.00000000000E+00 0. -1.
         25    1    1    2    0    0 -0.31475209077E+01 -0.46460162360E+02  0.15018241835E+02  0.13423487312E+03  0.12500000000E+03 0.  0.
         25    1    1    2    0    0  0.31475209077E+01  0.46460162360E+02  0.14017719984E+04  0.14081044667E+04  0.12500000000E+03 0.  0.
</event>
<event>
 4    0  0.2134002E-002  0.2120630E+03  0.7546771E-02  0.1139943E+00
         21   -1    0    0  502  501  0.00000000000E+00  0.00000000000E+00  0.13366456269E+04  0.13366456269E+04  0.00000000000E+00 0. -1.
         21   -1    0    0  501  502 -0.00000000000E+00 -0.00000000000E+00 -0.33644455781E+02  0.33644455781E+02  0.00000000000E+00 0. -1.
         25    1    1    2    0    0 -0.13316492968E+03  0.80516947009E+02  0.88290382031E+03  0.90518508227E+03  0.12500000000E+03 0.  0.
         25    1    1    2    0    0  0.13316492968E+03 -0.80516947009E+02  0.42009735086E+03  0.46510500045E+03  0.12500000000E+03 0.  0.
</event>
<event>
 4    0  0.2134002E-002  0.3728825E+03  0.7546771E-02  0.1053596E+00
         21   -1    0    0  502  501  0.00000000000E+00  0.00000000000E+00  0.80874630235E+03  0.80874630235E+03  0.00000000000E+00 0.  1.
         21   -1    0    0  501  502 -0.00000000000E+00 -0.00000000000E+00 -0.17192205379E+03  0.17192205379E+03  0.00000000000E+00 0.  1.
         25    1    1    2    0    0 -0.57619760107E+02  0.34651047707E+03  0.31160744291E+03  0.48591536912E+03  0.12500000000E+03 0.  0.
         25    1    1    2    0    0  0.57619760107E+02 -0.34651047707E+03  0.32521680566E+03  0.49475298701E+03  0.12500000000E+03 0.  0.
</event>
<event>
 4    0  0.2134002E-002  0.1647105E+03  0.7546771E-02  0.1183479E+00
         21   -1    0    0  502  501  0.00000000000E+00  0.00000000000E+00  0.10426430995E+03  0.10426430995E+03  0.00000000000E+00 0. -1.
         21   -1    0    0  501  502 -0.00000000000E+00 -0.00000000000E+00 -0.26019968299E+03  0.26019968299E+03  0.00000000000E+00 0. -1.
         25    1    1    2    0    0  0.32485635317E+02 -0.87631280881E+02 -0.13619703462E+03  0.20714533577E+03  0.12500000000E+03 0.  0.
         25    1    1    2    0    0 -0.32485635317E+02  0.87631280881E+02 -0.19738338418E+02  0.15731865717E+03  0.12500000000E+03 0.  0.
</event>
<event>
 4    0  0.2134002E-002  0.2416616E+03  0.7546771E-02  0.1118691E+00
         21   -1    0    0  502  501  0.00000000000E+00  0.00000000000E+00  0.21191623019E+03  0.21191623019E+03  0.00000000000E+00 0.  1.
         21   -1    0    0  501  502 -0.00000000000E+00 -0.00000000000E+00 -0.27558209766E+03  0.27558209766E+03  0.00000000000E+00 0.  1.
         25    1    1    2    0    0  0.51285520182E+02  0.18248610979E+03  0.51609784487E+02  0.23285178698E+03  0.12500000000E+03 0.  0.
         25    1    1    2    0    0 -0.51285520182E+02 -0.18248610979E+03 -0.11527565195E+03  0.25464654087E+03  0.12500000000E+03 0.  0.
</event>
<event>
 4    0  0.2134002E-002  0.2627779E+03  0.7546771E-02  0.1105486E+00
         21   -1    0    0  502  501  0.00000000000E+00  0.00000000000E+00  0.16981699687E+03  0.16981699687E+03  0.00000000000E+00 0.  1.
         21   -1    0    0  501  502 -0.00000000000E+00 -0.00000000000E+00 -0.40662717062E+03  0.40662717062E+03  0.00000000000E+00 0.  1.
         25    1    1    2    0    0 -0.71391514486E+02  0.19079464997E+03 -0.23819485141E+03  0.33743315492E+03  0.12500000000E+03 0.  0.
         25    1    1    2    0    0  0.71391514486E+02 -0.19079464997E+03  0.13846776625E+01  0.23901101257E+03  0.12500000000E+03 0.  0.
</event>
<event>
 4    0  0.2134002E-002  0.2040032E+03  0.7546771E-02  0.1146405E+00
         21   -1    0    0  502  501  0.00000000000E+00  0.00000000000E+00  0.11185798016E+03  0.11185798016E+03  0.00000000000E+00 0.  1.
         21   -1    0    0  501  502 -0.00000000000E+00 -0.00000000000E+00 -0.37205474000E+03  0.37205474000E+03  0.00000000000E+00 0.  1.
         25    1    1    2    0    0  0.92985436084E+02  0.11086090980E+03 -0.21443139264E+03  0.28730167906E+03  0.12500000000E+03 0.  0.
         25    1    1    2    0    0 -0.92985436084E+02 -0.11086090980E+03 -0.45765367203E+02  0.19661104109E+03  0.12500000000E+03 0.  0.
</event>
<event>
 4    0  0.2134002E-002  0.2071414E+03  0.7546771E-02  0.1143850E+00
         21   -1    0    0  502  501  0.00000000000E+00  0.00000000000E+00  0.47408643603E+02  0.47408643603E+02  0.00000000000E+00 0. -1.
         21   -1    0    0  501  502 -0.00000000000E+00 -0.00000000000E+00 -0.90505798349E+03  0.90505798349E+03  0.00000000000E+00 0. -1.
         25    1    1    2    0    0  0.28376205345E+02  0.15496523992E+03 -0.31472166850E+03  0.37348917419E+03  0.12500000000E+03 0.  0.
         25    1    1    2    0    0 -0.28376205345E+02 -0.15496523992E+03 -0.54292767138E+03  0.57897745290E+03  0.12500000000E+03 0.  0.
</event>
<event>
 4    0  0.2134002E-002  0.1852280E+03  0.7546771E-02  0.1162837E+00
         21   -1    0    0  502  501  0.00000000000E+00  0.00000000000E+00  0.25396771932E+04  0.25396771932E+04  0.00000000000E+00 0. -1.
         21   -1    0    0  501  502 -0.00000000000E+00 -0.00000000000E+00 -0.13509352942E+02  0.13509352942E+02  0.00000000000E+00 0. -1.
         25    1    1    2    0    0  0.12064497210E+03 -0.10076153731E+02  0.17004773737E+04  0.17093580773E+04  0.12500000000E+03 0.  0.
         25    1    1    2    0    0 -0.12064497210E+03  0.10076153731E+02  0.82569046661E+03  0.84382846883E+03  0.12500000000E+03 0.  0.
</event>
<event>
 4    0  0.2134002E-002  0.3357859E+03  0.7546771E-02  0.1068605E+00
         21   -1    0    0  502  501  0.00000000000E+00  0.00000000000E+00  0.15981061865E+04  0.15981061865E+04  0.00000000000E+00 0. -1.
         21   -1    0    0  501  502 -0.00000000000E+00 -0.00000000000E+00 -0.70553595294E+02  0.70553595294E+02  0.00000000000E+00 0. -1.
         25    1    1    2    0    0 -0.68260914275E+02  0.26032593247E+03  0.11542629977E+04  0.11917957926E+04  0.12500000000E+03 0.  0.
         25    1    1    2    0    0  0.68260914275E+02 -0.26032593247E+03  0.37328959359E+03  0.47686398922E+03  0.12500000000E+03 0.  0.
</event>
<event>
 4    0  0.2134002E-002  0.1727385E+03  0.7546771E-02  0.1175022E+00
         21   -1    0    0  502  501  0.00000000000E+00  0.00000000000E+00  0.16879972529E+03  0.16879972529E+03  0.00000000000E+00 0.  1.
         21   -1    0    0  501  502 -0.00000000000E+00 -0.00000000000E+00 -0.17676909186E+03  0.17676909186E+03  0.00000000000E+00 0.  1.
         25    1    1    2    0    0 -0.93749608279E+02  0.73651770295E+02 -0.40274181253E+01  0.17278539411E+03  0.12500000000E+03 0.  0.
         25    1    1    2    0    0  0.93749608279E+02 -0.73651770295E+02 -0.39419484492E+01  0.17278342304E+03  0.12500000000E+03 0.  0.
</event>
<event>
 4    0  0.2134002E-002  0.1822444E+03  0.7546771E-02  0.1165648E+00
         21   -1    0    0  502  501  0.00000000000E+00  0.00000000000E+00  0.43571458232E+02  0.43571458232E+02  0.00000000000E+00 0.  1.
         21   -1    0    0  501  502 -0.00000000000E+00 -0.00000000000E+00 -0.76226536663E+03  0.76226536663E+03  0.00000000000E+00 0.  1.
         25    1    1    2    0    0 -0.37591498042E+02  0.25363418729E+02 -0.63487824655E+03  0.64865384580E+03  0.12500000000E+03 0.  0.
         25    1    1    2    0    0  0.37591498042E+02 -0.25363418729E+02 -0.83815661850E+02  0.15718297906E+03  0.12500000000E+03 0.  0.
</event>
<event>
 4    0  0.2134002E-002  0.5603379E+03  0.7546771E-02  0.9991290E-01
         21   -1    0    0  502  501  0.00000000000E+00  0.00000000000E+00  0.82304143674E+03  0.82304143674E+03  0.00000000000E+00 0.  1.
         21   -1    0    0  501  502 -0.00000000000E+00 -0.00000000000E+00 -0.38148575878E+03  0.38148575878E+03  0.00000000000E+00 0.  1.
         25    1    1    2    0    0  0.16625490803E+03  0.26927637769E+02 -0.33770349807E+03  0.39753546349E+03  0.12500000000E+03 0.  0.
         25    1    1    2    0    0 -0.16625490803E+03 -0.26927637769E+02  0.77925917603E+03  0.80699173202E+03  0.12500000000E+03 0.  0.
</event>
<event>
 4    0  0.2134002E-002  0.2527651E+03  0.7546771E-02  0.1111570E+00
         21   -1    0    0  502  501  0.00000000000E+00  0.00000000000E+00  0.61143567324E+02  0.61143567324E+02  0.00000000000E+00 0.  1.
         21   -1    0    0  501  502 -0.00000000000E+00 -0.00000000000E+00 -0.10449206995E+04  0.10449206995E+04  0.00000000000E+00 0.  1.
         25    1    1    2    0    0 -0.14192856825E+02  0.46582997817E+02 -0.23172151247E+02  0.13613728903E+03  0.12500000000E+03 0.  0.
         25    1    1    2    0    0  0.14192856825E+02 -0.46582997817E+02 -0.96060498093E+03  0.96992697779E+03  0.12500000000E+03 0.  0.
</event>
<event>
 4    0  0.2134002E-002  0.1669411E+03  0.7546771E-02  0.1181076E+00
         21   -1    0    0  502  501  0.00000000000E+00  0.00000000000E+00  0.11095909187E+03  0.11095909187E+03  0.00000000000E+00 0. -1.
         21   -1    0    0  501  502 -0.00000000000E+00 -0.00000000000E+00 -0.25116771514E+03  0.25116771514E+03  0.00000000000E+00 0. -1.
         25    1    1    2    0    0 -0.55702376475E+02 -0.94851785362E+02 -0.57056427939E+02  0.17601151070E+03  0.12500000000E+03 0.  0.
         25    1    1    2    0    0  0.55702376475E+02  0.94851785362E+02 -0.83152195333E+02  0.18611529631E+03  0.12500000000E+03 0.  0.
</event>
<event>
 4    0  0.2134002E-002  0.2837932E+03  0.7546771E-02  0.1093635E+00
         21   -1    0    0  502  501  0.00000000000E+00  0.00000000000E+00  0.50793973993E+02  0.50793973993E+02  0.00000000000E+00 0.  1.
         21   -1    0    0  501  502 -0.00000000000E+00 -0.00000000000E+00 -0.15855933458E+04  0.15855933458E+04  0.00000000000E+00 0.  1.
         25    1    1    2    0    0 -0.16405200237E+03 -0.12152066488E+03 -0.32795001607E+03  0.40602530033E+03  0.12500000000E+03 0.  0.
         25    1    1    2    0    0  0.16405200237E+03  0.12152066488E+03 -0.12068493557E+04  0.12303620194E+04  0.12500000000E+03 0.  0.
</event>
<event>
 4    0  0.2134002E-002  0.2038580E+03  0.7546771E-02  0.1146524E+00
         21   -1    0    0  502  501  0.00000000000E+00  0.00000000000E+00  0.13725602721E+04  0.13725602721E+04  0.00000000000E+00 0. -1.
         21   -1    0    0  501  502 -0.00000000000E+00 -0.00000000000E+00 -0.30277789988E+02  0.30277789988E+02  0.00000000000E+00 0. -1.
         25    1    1    2    0    0 -0.15549606678E+03 -0.41528972388E+02  0.65248207087E+03  0.68356531154E+03  0.12500000000E+03 0.  0.
         25    1    1    2    0    0  0.15549606678E+03  0.41528972388E+02  0.68980041127E+03  0.71927275057E+03  0.12500000000E+03 0.  0.
</event>
<event>
 4    0  0.2134002E-002  0.1660983E+03  0.7546771E-02  0.1181979E+00
         21   -1    0    0  502  501  0.00000000000E+00  0.00000000000E+00  0.42800034949E+02  0.42800034949E+02  0.00000000000E+00 0.  1.
         21   -1    0    0  501  502 -0.00000000000E+00 -0.00000000000E+00 -0.64459368525E+03  0.64459368525E+03  0.00000000000E+00 0.  1.
         25    1    1    2    0    0 -0.12773123422E+01 -0.11851358914E+02 -0.52587874482E+03  0.54066213155E+03  0.12500000000E+03 0.  0.
         25    1    1    2    0    0  0.12773123422E+01  0.11851358914E+02 -0.75914905484E+02  0.14673158866E+03  0.12500000000E+03 0.  0.
</event>
<event>
 4    0  0.2134002E-002  0.1970388E+03  0.7546771E-02  0.1152262E+00
         21   -1    0    0  502  501  0.00000000000E+00  0.00000000000E+00  0.45530787533E+02  0.45530787533E+02  0.00000000000E+00 0.  1.
         21   -1    0    0  501  502 -0.00000000000E+00 -0.00000000000E+00 -0.85270411308E+03  0.85270411308E+03  0.00000000000E+00 0.  1.
         25    1    1    2    0    0 -0.10857953925E+03 -0.10681343539E+03 -0.40544327762E+03  0.45078584460E+03  0.12500000000E+03 0.  0.
         25    1    1    2    0    0  0.10857953925E+03  0.10681343539E+03 -0.40173004793E+03  0.44744905602E+03  0.12500000000E+03 0.  0.
</event>
<event>
 4    0  0.2134002E-002  0.4147793E+03  0.7546771E-02  0.1038779E+00
         21   -1    0    0  502  501  0.00000000000E+00  0.00000000000E+00  0.61738694289E+03  0.61738694289E+03  0.00000000000E+00 0. -1.
         21   -1    0    0  501  502 -0.00000000000E+00 -0.00000000000E+00 -0.27866131616E+03  0.27866131616E+03  0.00000000000E+00 0. -1.
         25    1    1    2    0    0 -0.31395280971E+03  0.69911080205E+02  0.41794519988E+03  0.54199364937E+03  0.12500000000E+03 0.  0.
         25    1    1    2    0    0  0.31395280971E+03 -0.69911080205E+02 -0.79219573153E+02  0.35405460967E+03  0.12500000000E+03 0.  0.
</event>
<event>
 4    0  0.2134002E-002  0.3171906E+03  0.7546771E-02  0.1076950E+00
         21   -1    0    0  502  501  0.00000000000E+00  0.00000000000E+00  0.19232782783E+03  0.19232782783E+03  0.00000000000E+00 0.  1.
         21   -1    0    0  501  502 -0.00000000000E+00 -0.00000000000E+00 -0.52311666840E+03  0.52311666840E+03  0.00000000000E+00 0.  1.
         25    1    1    2    0    0 -0.64814941622E+02  0.16170519689E+03 -0.42900476830E+03  0.47960362653E+03  0.12500000000E+03 0.  0.
         25    1    1    2    0    0  0.64814941622E+02 -0.16170519689E+03  0.98215927730E+02  0.23584086969E+03  0.12500000000E+03 0.  0.
</event>
<event>
 4    0  0.2134002E-002  0.1810167E+03  0.7546771E-02  0.1166823E+00
         21   -1    0    0  502  501  0.00000000000E+00  0.00000000000E+00  0.73315458363E+03  0.73315458363E+03  0.00000000000E+00 0.  1.
         21   -1    0    0  501  502 -0.00000000000E+00 -0.00000000000E+00 -0.44693237965E+02  0.44693237965E+02  0.00000000000E+00 0.  1.
         25    1    1    2    0    0 -0.11997336993E+03 -0.45246667223E+02  0.40112399581E+03  0.43927933072E+03  0.12500000000E+03 0.  0.
         25    1    1    2    0    0  0.11997336993E+03  0.45246667223E+02  0.28733734986E+03  0.33856849088E+03  0.12500000000E+03 0.  0.
</event>
<event>
 4    0  0.2134002E-002  0.3234002E+03  0.7546771E-02  0.1074095E+00
         21   -1    0    0  502  501  0.00000000000E+00  0.00000000000E+00  0.35031000001E+03  0.35031000001E+03  0.00000000000E+00 0.  1.
         21   -1    0    0  501  502 -0.00000000000E+00 -0.00000000000E+00 -0.29855759882E+03  0.29855759882E+03  0.00000000000E+00 0.  1.
         25    1    1    2    0    0  0.12147128317E+03 -0.98773218655E+01 -0.24722512654E+03  0.30265177566E+03  0.12500000000E+03 0.  0.
         25    1    1    2    0    0 -0.12147128317E+03  0.98773218655E+01  0.29897752773E+03  0.34621582316E+03  0.12500000000E+03 0.  0.
</event>
<event>
 4    0  0.2134002E-002  0.2487849E+03  0.7546771E-02  0.1114075E+00
         21   -1    0    0  502  501  0.00000000000E+00  0.00000000000E+00  0.42826421278E+03  0.42826421278E+03  0.00000000000E+00 0.  1.
         21   -1    0    0  501  502 -0.00000000000E+00 -0.00000000000E+00 -0.14452279873E+03  0.14452279873E+03  0.00000000000E+00 0.  1.
         25    1    1    2    0    0 -0.34803673488E+02  0.11705128820E+03  0.34571749448E+03  0.38737305760E+03  0.12500000000E+03 0.  0.
         25    1    1    2    0    0  0.34803673488E+02 -0.11705128820E+03 -0.61976080438E+02  0.18541395391E+03  0.12500000000E+03 0.  0.
</event>
<event>
 4    0  0.2134002E-002  0.2776091E+03  0.7546771E-02  0.1097002E+00
         21   -1    0    0  502  501  0.00000000000E+00  0.00000000000E+00  0.74471131188E+02  0.74471131188E+02  0.00000000000E+00 0.  1.
         21   -1    0    0  501  502 -0.00000000000E+00 -0.00000000000E+00 -0.10348549743E+04  0.10348549743E+04  0.00000000000E+00 0.  1.
         25    1    1    2    0    0 -0.13491705808E+03 -0.13863615418E+03 -0.78984472013E+03  0.82274071112E+03  0.12500000000E+03 0.  0.
         25    1    1    2    0    0  0.13491705808E+03  0.13863615418E+03 -0.17053912300E+03  0.28658539439E+03  0.12500000000E+03 0.  0.
</event>
<event>
 4    0  0.2134002E-002  0.1843613E+03  0.7546771E-02  0.1163648E+00
         21   -1    0    0  502  501  0.00000000000E+00  0.00000000000E+00  0.65608817846E+02  0.65608817846E+02  0.00000000000E+00 0.  1.
         21   -1    0    0  501  502 -0.00000000000E+00 -0.00000000000E+00 -0.51805661739E+03  0.51805661739E+03  0.00000000000E+00 0.  1.
         25    1    1    2    0    0  0.10650930618E+03  0.26178926559E+02 -0.35220949780E+03  0.38949467113E+03  0.12500000000E+03 0.  0.
         25    1    1    2    0    0 -0.10650930618E+03 -0.26178926559E+02 -0.10023830175E+03  0.19417076411E+03  0.12500000000E+03 0.  0.
</event>
<event>
 4    0  0.2134002E-002  0.2456521E+03  0.7546771E-02  0.1116084E+00
         21   -1    0    0  502  501  0.00000000000E+00  0.00000000000E+00  0.11490618781E+03  0.11490618781E+03  0.00000000000E+00 0. -1.
         21   -1    0    0  501  502 -0.00000000000E+00 -0.00000000000E+00 -0.52516722650E+03  0.52516722650E+03  0.00000000000E+00 0. -1.
         25    1    1    2    0    0  0.14159549218E+03 -0.62855500070E+02 -0.17599654991E+02  0.19983704649E+03  0.12500000000E+03 0.  0.
         25    1    1    2    0    0 -0.14159549218E+03  0.62855500070E+02 -0.39266138371E+03  0.44023636782E+03  0.12500000000E+03 0.  0.
</event>
<event>
 4    0  0.2134002E-002  0.3020716E+03  0.7546771E-02  0.1084210E+00
         21   -1    0    0  502  501  0.00000000000E+00  0.00000000000E+00  0.21004018074E+03  0.21004018074E+03  0.00000000000E+00 0. -1.
         21   -1    0    0  501  502 -0.00000000000E+00 -0.00000000000E+00 -0.43442747504E+03  0.43442747504E+03  0.00000000000E+00 0. -1.
         25    1    1    2    0    0 -0.20819844263E+03 -0.57550983705E+02  0.69352465275E+02  0.25902407548E+03  0.12500000000E+03 0.  0.
         25    1    1    2    0    0  0.20819844263E+03  0.57550983705E+02 -0.29373975957E+03  0.38544358030E+03  0.12500000000E+03 0.  0.
</event>
<event>
 4    0  0.2134002E-002  0.3251467E+03  0.7546771E-02  0.1073305E+00
         21   -1    0    0  502  501  0.00000000000E+00  0.00000000000E+00  0.23984566737E+03  0.23984566737E+03  0.00000000000E+00 0.  1.
         21   -1    0    0  501  502 -0.00000000000E+00 -0.00000000000E+00 -0.44078489335E+03  0.44078489335E+03  0.00000000000E+00 0.  1.
         25    1    1    2    0    0 -0.17410910492E+03  0.58577334217E+02  0.14798631349E+03  0.26696485439E+03  0.12500000000E+03 0.  0.
         25    1    1    2    0    0  0.17410910492E+03 -0.58577334217E+02 -0.34892553947E+03  0.41366570633E+03  0.12500000000E+03 0.  0.
</event>
<event>
 4    0  0.2134002E-002  0.1605968E+03  0.7546771E-02  0.1188025E+00
         21   -1    0    0  502  501  0.00000000000E+00  0.00000000000E+00  0.13824693365E+02  0.13824693365E+02  0.00000000000E+00 0. -1.
         21   -1    0    0  501  502 -0.00000000000E+00 -0.00000000000E+00 -0.18655982335E+04  0.18655982335E+04  0.00000000000E+00 0. -1.
         25    1    1    2    0    0  0.36580993881E+02 -0.80813866080E+02 -0.12063423321E+04  0.12160410652E+04  0.12500000000E+03 0.  0.
         25    1    1    2    0    0 -0.36580993881E+02  0.80813866080E+02 -0.64543120798E+03  0.66338186160E+03  0.12500000000E+03 0.  0.
</event>
<event>
 4    0  0.2134002E-002  0.1879429E+03  0.7546771E-02  0.1160330E+00
         21   -1    0    0  502  501  0.00000000000E+00  0.00000000000E+00  0.94007271424E+02  0.94007271424E+02  0.00000000000E+00 0.  1.
         21   -1    0    0  501  502 -0.00000000000E+00 -0.00000000000E+00 -0.37574262277E+03  0.37574262277E+03  0.00000000000E+00 0.  1.
         25    1    1    2    0    0  0.13171691022E+03  0.87623354206E+01 -0.81307076479E+02  0.19915311608E+03  0.12500000000E+03 0.  0.
         25    1    1    2    0    0 -0.13171691022E+03 -0.87623354206E+01 -0.20042827486E+03  0.27059677811E+03  0.12500000000E+03 0.  0.
</event>
<event>
 4    0  0.2134002E-002  0.1827290E+03  0.7546771E-02  0.1165188E+00
         21   -1    0    0  502  501  0.00000000000E+00  0.00000000000E+00  0.23800304545E+03  0.23800304545E+03  0.00000000000E+00 0. -1.
         21   -1    0    0  501  502 -0.00000000000E+00 -0.00000000000E+00 -0.14029179560E+03  0.14029179560E+03  0.00000000000E+00 0. -1.
         25    1    1    2    0    0  0.57878403183E+02  0.81357707329E+02  0.14025134077E+03  0.21275437642E+03  0.12500000000E+03 0.  0.
         25    1    1    2    0    0 -0.57878403183E+02 -0.81357707329E+02 -0.42540090915E+02  0.16554046464E+03  0.12500000000E+03 0.  0.
</event>
<event>
 4    0  0.2134002E-002  0.3482676E+03  0.7546771E-02  0.1063328E+00
         21   -1    0    0  502  501  0.00000000000E+00  0.00000000000E+00  0.20843838711E+03  0.20843838711E+03  0.00000000000E+00 0. -1.
         21   -1    0    0  501  502 -0.00000000000E+00 -0.00000000000E+00 -0.58190013936E+03  0.58190013936E+03  0.00000000000E+00 0. -1.
         25    1    1    2    0    0  0.20317188874E+02 -0.32104971099E+03 -0.13375713947E+03  0.37013737645E+03  0.12500000000E+03 0.  0.
         25    1    1    2    0    0 -0.20317188874E+02  0.32104971099E+03 -0.23970461279E+03  0.42020115002E+03  0.12500000000E+03 0.  0.
</event>
<event>
 4    0  0.2134002E-002  0.2499154E+03  0.7546771E-02  0.1113358E+00
         21   -1    0    0  502  501  0.00000000000E+00  0.00000000000E+00  0.15581124496E+03  0.15581124496E+03  0.00000000000E+00 0.  1.
         21   -1    0    0  501  502 -0.00000000000E+00 -0.00000000000E+00 -0.40085496696E+03  0.40085496696E+03  0.00000000000E+00 0.  1.
         25    1    1    2    0    0  0.24822856292E+02 -0.92050091923E+02  0.93845560550E+02  0.18308845636E+03  0.12500000000E+03 0.  0.
         25    1    1    2    0    0 -0.24822856292E+02  0.92050091923E+02 -0.33888928255E+03  0.37357775555E+03  0.12500000000E+03 0.  0.
</event>
<event>
 4    0  0.2134002E-002  0.2055888E+03  0.7546771E-02  0.1145108E+00
         21   -1    0    0  502  501  0.00000000000E+00  0.00000000000E+00  0.24133386578E+03  0.24133386578E+03  0.00000000000E+00 0.  1.
         21   -1    0    0  501  502 -0.00000000000E+00 -0.00000000000E+00 -0.17513810082E+03  0.17513810082E+03  0.00000000000E+00 0.  1.
         25    1    1    2    0    0 -0.50657557156E+02 -0.53324240206E+02  0.18068645124E+03  0.23169431662E+03  0.12500000000E+03 0.  0.
         25    1    1    2    0    0  0.50657557156E+02  0.53324240206E+02 -0.11449068628E+03  0.18477764999E+03  0.12500000000E+03 0.  0.
</event>
<event>
 4    0  0.2134002E-002  0.3453250E+03  0.7546771E-02  0.1064550E+00
         21   -1    0    0  502  501  0.00000000000E+00  0.00000000000E+00  0.18601472732E+04  0.18601472732E+04  0.00000000000E+00 0. -1.
         21   -1    0    0  501  502 -0.00000000000E+00 -0.00000000000E+00 -0.64107494114E+02  0.64107494114E+02  0.00000000000E+00 0. -1.
         25    1    1    2    0    0  0.32008714811E+03 -0.25338439334E+02  0.83408630557E+03  0.90245375728E+03  0.12500000000E+03 0.  0.
         25    1    1    2    0    0 -0.32008714811E+03  0.25338439334E+02  0.96195347352E+03  0.10218010100E+04  0.12500000000E+03 0.  0.
</event>
<event>
 4    0  0.2134002E-002  0.1642252E+03  0.7546771E-02  0.1184007E+00
         21   -1    0    0  502  501  0.00000000000E+00  0.00000000000E+00  0.43730340670E+02  0.43730340670E+02  0.00000000000E+00 0. -1.
         21   -1    0    0  501  502 -0.00000000000E+00 -0.00000000000E+00 -0.61673207043E+03  0.61673207043E+03  0.00000000000E+00 0. -1.
         25    1    1    2    0    0 -0.43221183247E+02 -0.96863515801E+02 -0.26697473281E+03  0.31329079037E+03  0.12500000000E+03 0.  0.
         25    1    1    2    0    0  0.43221183247E+02  0.96863515801E+02 -0.30602699695E+03  0.34717162073E+03  0.12500000000E+03 0.  0.
</event>
<event>
 4    0  0.2134002E-002  0.1784204E+03  0.7546771E-02  0.1169341E+00
         21   -1    0    0  502  501  0.00000000000E+00  0.00000000000E+00  0.56001657725E+03  0.56001657725E+03  0.00000000000E+00 0.  1.
         21   -1    0    0  501  502 -0.00000000000E+00 -0.00000000000E+00 -0.56844436908E+02  0.56844436908E+02  0.00000000000E+00 0.  1.
         25    1    1    2    0    0  0.59022495046E+02  0.61281301551E+02  0.87865346317E+02  0.17488388126E+03  0.12500000000E+03 0.  0.
         25    1    1    2    0    0 -0.59022495046E+02 -0.61281301551E+02  0.41530679402E+03  0.44197713289E+03  0.12500000000E+03 0.  0.
</event>
<event>
 4    0  0.2134002E-002  0.2138900E+03  0.7546771E-02  0.1138522E+00
         21   -1    0    0  502  501  0.00000000000E+00  0.00000000000E+00  0.35649523454E+03  0.35649523454E+03  0.00000000000E+00 0.  1.
         21   -1    0    0  501  502 -0.00000000000E+00 -0.00000000000E+00 -0.12832969085E+03  0.12832969085E+03  0.00000000000E+00 0. -1.
         25    1    1    2    0    0  0.40474800129E+02  0.11503952384E+03 -0.25883217457E+02  0.17654246638E+03  0.12500000000E+03 0.  0.
         25    1    1    2    0    0 -0.40474800129E+02 -0.11503952384E+03  0.25404876115E+03  0.30828245901E+03  0.12500000000E+03 0.  0.
</event>
<event>
 4    0  0.2134002E-002  0.1725739E+03  0.7546771E-02  0.1175190E+00
         21   -1    0    0  502  501  0.00000000000E+00  0.00000000000E+00  0.29070932586E+03  0.29070932586E+03  0.00000000000E+00 0. -1.
         21   -1    0    0  501  502 -0.00000000000E+00 -0.00000000000E+00 -0.10244516040E+03  0.10244516040E+03  0.00000000000E+00 0. -1.
         25    1    1    2    0    0 -0.36776802573E+02 -0.72180717031E+02 -0.51334134754E+01  0.14904342002E+03  0.12500000000E+03 0.  0.
         25    1    1    2    0    0  0.36776802573E+02  0.72180717031E+02  0.19339757894E+03  0.24411106624E+03  0.12500000000E+03 0.  0.
</event>
<event>
 4    0  0.2134002E-002  0.1926368E+03  0.7546771E-02  0.1156104E+00
         21   -1    0    0  502  501  0.00000000000E+00  0.00000000000E+00  0.83318774224E+03  0.83318774224E+03  0.00000000000E+00 0.  1.
         21   -1    0    0  501  502 -0.00000000000E+00 -0.00000000000E+00 -0.44538521853E+02  0.44538521853E+02  0.00000000000E+00 0.  1.
         25    1    1    2    0    0 -0.87787425870E+02  0.10753349167E+03  0.50151737584E+03  0.53517731850E+03  0.12500000000E+03 0.  0.
         25    1    1    2    0    0  0.87787425870E+02 -0.10753349167E+03  0.28713184455E+03  0.34254894559E+03  0.12500000000E+03 0.  0.
</event>
<event>
 4    0  0.2134002E-002  0.2952179E+03  0.7546771E-02  0.1087656E+00
         21   -1    0    0  502  501  0.00000000000E+00  0.00000000000E+00  0.88449596405E+02  0.88449596405E+02  0.00000000000E+00 0. -1.
         21   -1    0    0  501  502 -0.00000000000E+00 -0.00000000000E+00 -0.98534781258E+03  0.98534781258E+03  0.00000000000E+00 0. -1.
         25    1    1    2    0    0 -0.13479665726E+03  0.23082458578E+03 -0.43233702655E+03  0.52344095439E+03  0.12500000000E+03 0.  0.
         25    1    1    2    0    0  0.13479665726E+03 -0.23082458578E+03 -0.46456118962E+03  0.55035645459E+03  0.12500000000E+03 0.  0.
</event>
<event>
 4    0  0.2134002E-002  0.1788845E+03  0.7546771E-02  0.1168887E+00
         21   -1    0    0  502  501  0.00000000000E+00  0.00000000000E+00  0.62616091069E+03  0.62616091069E+03  0.00000000000E+00 0.  1.
         21   -1    0    0  501  502 -0.00000000000E+00 -0.00000000000E+00 -0.51104535300E+02  0.51104535300E+02  0.00000000000E+00 0.  1.
         25    1    1    2    0    0 -0.11896303964E+03  0.20216274111E+01  0.37668884756E+03  0.41433776035E+03  0.12500000000E+03 0.  0.
         25    1    1    2    0    0  0.11896303964E+03 -0.20216274111E+01  0.19836752783E+03  0.26292768564E+03  0.12500000000E+03 0.  0.
</event>
<event>
 4    0  0.2134002E-002  0.2326924E+03  0.7546771E-02  0.1124759E+00
         21   -1    0    0  502  501  0.00000000000E+00  0.00000000000E+00  0.11910994213E+03  0.11910994213E+03  0.00000000000E+00 0. -1.
         21   -1    0    0  501  502 -0.00000000000E+00 -0.00000000000E+00 -0.45458624449E+03  0.45458624449E+03  0.00000000000E+00 0. -1.
         25    1    1    2    0    0 -0.12768998568E+03  0.14715994643E+03 -0.13856737872E+03  0.26979010494E+03  0.12500000000E+03 0.  0.
         25    1    1    2    0    0  0.12768998568E+03 -0.14715994643E+03 -0.19690892364E+03  0.30390608168E+03  0.12500000000E+03 0.  0.
</event>
<event>
 4    0  0.2134002E-002  0.2535539E+03  0.7546771E-02  0.1111079E+00
         21   -1    0    0  502  501  0.00000000000E+00  0.00000000000E+00  0.69014505651E+02  0.69014505651E+02  0.00000000000E+00 0.  1.
         21   -1    0    0  501  502 -0.00000000000E+00 -0.00000000000E+00 -0.93153691854E+03  0.93153691854E+03  0.00000000000E+00 0.  1.
         25    1    1    2    0    0 -0.28395349647E+02 -0.43390292934E+02 -0.85432186646E+03  0.86497390996E+03  0.12500000000E+03 0.  0.
         25    1    1    2    0    0  0.28395349647E+02  0.43390292934E+02 -0.82005464271E+01  0.13557751423E+03  0.12500000000E+03 0.  0.
</event>
<event>
 4    0  0.2134002E-002  0.2214240E+03  0.7546771E-02  0.1132826E+00
         21   -1    0    0  502  501  0.00000000000E+00  0.00000000000E+00  0.27751899654E+02  0.27751899654E+02  0.00000000000E+00 0. -1.
         21   -1    0    0  501  502 -0.00000000000E+00 -0.00000000000E+00 -0.17666749010E+04  0.17666749010E+04  0.00000000000E+00 0. -1.
         25    1    1    2    0    0 -0.84703752268E+02  0.60215605322E+02 -0.26027041768E+03  0.30686533707E+03  0.12500000000E+03 0.  0.
         25    1    1    2    0    0  0.84703752268E+02 -0.60215605322E+02 -0.14786525837E+04  0.14875614636E+04  0.12500000000E+03 0.  0.
</event>
<event>
 4    0  0.2134002E-002  0.1840253E+03  0.7546771E-02  0.1163963E+00
         21   -1    0    0  502  501  0.00000000000E+00  0.00000000000E+00  0.18898777888E+03  0.18898777888E+03  0.00000000000E+00 0. -1.
         21   -1    0    0  501  502 -0.00000000000E+00 -0.00000000000E+00 -0.17919310697E+03  0.17919310697E+03  0.00000000000E+00 0. -1.
         25    1    1    2    0    0  0.24018825820E+02 -0.12849202161E+03 -0.29073539543E+02  0.18318671980E+03  0.12500000000E+03 0.  0.
         25    1    1    2    0    0 -0.24018825820E+02  0.12849202161E+03  0.38868211458E+02  0.18499416605E+03  0.12500000000E+03 0.  0.
</event>
<event>
 4    0  0.2134002E-002  0.2480679E+03  0.7546771E-02  0.1114532E+00
         21   -1    0    0  502  501  0.00000000000E+00  0.00000000000E+00  0.89405008982E+02  0.89405008982E+02  0.00000000000E+00 0.  1.
         21   -1    0    0  501  502 -0.00000000000E+00 -0.00000000000E+00 -0.68830244824E+03  0.68830244824E+03  0.00000000000E+00 0.  1.
         25    1    1    2    0    0 -0.19856444089E+03  0.11980959451E+02 -0.42427471559E+03  0.48497980872E+03  0.12500000000E+03 0.  0.
         25    1    1    2    0    0  0.19856444089E+03 -0.11980959451E+02 -0.17462272367E+03  0.29272764850E+03  0.12500000000E+03 0.  0.
</event>
<event>
 4    0  0.2134002E-002  0.2779020E+03  0.7546771E-02  0.1096840E+00
         21   -1    0    0  502  501  0.00000000000E+00  0.00000000000E+00  0.27032024428E+02  0.27032024428E+02  0.00000000000E+00 0. -1.
         21   -1    0    0  501  502 -0.00000000000E+00 -0.00000000000E+00 -0.28569648585E+04  0.28569648585E+04  0.00000000000E+00 0. -1.
         25    1    1    2    0    0  0.23623652472E+03 -0.67080392834E+02 -0.16018428854E+04  0.16253716819E+04  0.12500000000E+03 0.  0.
         25    1    1    2    0    0 -0.23623652472E+03  0.67080392834E+02 -0.12280899487E+04  0.12586252011E+04  0.12500000000E+03 0.  0.
</event>
<event>
 4    0  0.2134002E-002  0.1489985E+03  0.7546771E-02  0.1201709E+00
         21   -1    0    0  502  501  0.00000000000E+00  0.00000000000E+00  0.21288152819E+02  0.21288152819E+02  0.00000000000E+00 0. -1.
         21   -1    0    0  501  502 -0.00000000000E+00 -0.00000000000E+00 -0.10428593700E+04  0.10428593700E+04  0.00000000000E+00 0. -1.
         25    1    1    2    0    0 -0.78596260838E+01 -0.72720726793E+02 -0.63579471248E+03  0.65208127886E+03  0.12500000000E+03 0.  0.
         25    1    1    2    0    0  0.78596260838E+01  0.72720726793E+02 -0.38577650469E+03  0.41206624394E+03  0.12500000000E+03 0.  0.
</event>
<event>
 4    0  0.2134002E-002  0.2687624E+03  0.7546771E-02  0.1101990E+00
         21   -1    0    0  502  501  0.00000000000E+00  0.00000000000E+00  0.30852129700E+02  0.30852129700E+02  0.00000000000E+00 0. -1.
         21   -1    0    0  501  502 -0.00000000000E+00 -0.00000000000E+00 -0.23412722499E+04  0.23412722499E+04  0.00000000000E+00 0. -1.
         25    1    1    2    0    0  0.97952248376E+02  0.21679044775E+03 -0.11725808520E+04  0.12029811286E+04  0.12500000000E+03 0.  0.
         25    1    1    2    0    0 -0.97952248376E+02 -0.21679044775E+03 -0.11378392682E+04  0.11691432511E+04  0.12500000000E+03 0.  0.
</event>
<event>
 4    0  0.2134002E-002  0.3580897E+03  0.7546771E-02  0.1059343E+00
         21   -1    0    0  502  501  0.00000000000E+00  0.00000000000E+00  0.25936348756E+03  0.25936348756E+03  0.00000000000E+00 0.  1.
         21   -1    0    0  501  502 -0.00000000000E+00 -0.00000000000E+00 -0.49439571897E+03  0.49439571897E+03  0.00000000000E+00 0.  1.
         25    1    1    2    0    0  0.35335044913E+02  0.56268615627E+02 -0.46369563060E+03  0.48482301961E+03  0.12500000000E+03 0.  0.
         25    1    1    2    0    0 -0.35335044913E+02 -0.56268615627E+02  0.22866339920E+03  0.26893618692E+03  0.12500000000E+03 0.  0.
</event>
<event>
 4    0  0.2134002E-002  0.2568777E+03  0.7546771E-02  0.1109034E+00
         21   -1    0    0  502  501  0.00000000000E+00  0.00000000000E+00  0.55529595713E+03  0.55529595713E+03  0.00000000000E+00 0.  1.
         21   -1    0    0  501  502 -0.00000000000E+00 -0.00000000000E+00 -0.11883061825E+03  0.11883061825E+03  0.00000000000E+00 0.  1.
         25    1    1    2    0    0  0.11096963872E+03  0.17939202995E+03  0.11774011995E+03  0.27199907532E+03  0.12500000000E+03 0.  0.
         25    1    1    2    0    0 -0.11096963872E+03 -0.17939202995E+03  0.31872521893E+03  0.40212750007E+03  0.12500000000E+03 0.  0.
</event>
<event>
 4    0  0.2134002E-002  0.3869772E+03  0.7546771E-02  0.1048385E+00
         21   -1    0    0  502  501  0.00000000000E+00  0.00000000000E+00  0.10809827315E+04  0.10809827315E+04  0.00000000000E+00 0. -1.
         21   -1    0    0  501  502 -0.00000000000E+00 -0.00000000000E+00 -0.13853257162E+03  0.13853257162E+03  0.00000000000E+00 0. -1.
         25    1    1    2    0    0  0.12350620216E+03  0.12007415154E+03  0.98048089399E+03  0.10033141917E+04  0.12500000000E+03 0.  0.
         25    1    1    2    0    0 -0.12350620216E+03 -0.12007415154E+03 -0.38030734099E+02  0.21620111141E+03  0.12500000000E+03 0.  0.
</event>
<event>
 4    0  0.2134002E-002  0.2078478E+03  0.7546771E-02  0.1143282E+00
         21   -1    0    0  502  501  0.00000000000E+00  0.00000000000E+00  0.98609864983E+03  0.98609864983E+03  0.00000000000E+00 0.  1.
         21   -1    0    0  501  502 -0.00000000000E+00 -0.00000000000E+00 -0.43809705847E+02  0.43809705847E+02  0.00000000000E+00 0.  1.
         25    1    1    2    0    0  0.22915620159E+02  0.30684641206E+02  0.87147481792E+03  0.88122643579E+03  0.12500000000E+03 0.  0.
         25    1    1    2    0    0 -0.22915620159E+02 -0.30684641206E+02  0.70814126061E+02  0.14868191989E+03  0.12500000000E+03 0.  0.
</event>
<event>
 4    0  0.2134002E-002  0.2302131E+03  0.7546771E-02  0.1126490E+00
         21   -1    0    0  502  501  0.00000000000E+00  0.00000000000E+00  0.21754151110E+04  0.21754151110E+04  0.00000000000E+00 0. -1.
         21   -1    0    0  501  502 -0.00000000000E+00 -0.00000000000E+00 -0.24362282597E+02  0.24362282597E+02  0.00000000000E+00 0. -1.
         25    1    1    2    0    0  0.10906971582E+03  0.39792953639E+02  0.33701431074E+03  0.37773446720E+03  0.12500000000E+03 0.  0.
         25    1    1    2    0    0 -0.10906971582E+03 -0.39792953639E+02  0.18140385177E+04  0.18220429264E+04  0.12500000000E+03 0.  0.
</event>
<event>
 4    0  0.2134002E-002  0.2363005E+03  0.7546771E-02  0.1122282E+00
         21   -1    0    0  502  501  0.00000000000E+00  0.00000000000E+00  0.84446911828E+02  0.84446911828E+02  0.00000000000E+00 0. -1.
         21   -1    0    0  501  502 -0.00000000000E+00 -0.00000000000E+00 -0.66121935003E+03  0.66121935003E+03  0.00000000000E+00 0. -1.
         25    1    1    2    0    0  0.10847101278E+03  0.10644950335E+03 -0.81969766589E+02  0.21317011989E+03  0.12500000000E+03 0.  0.
         25    1    1    2    0    0 -0.10847101278E+03 -0.10644950335E+03 -0.49480267161E+03  0.53249614197E+03  0.12500000000E+03 0.  0.
</event>
<event>
 4    0  0.2134002E-002  0.3560477E+03  0.7546771E-02  0.1060160E+00
         21   -1    0    0  502  501  0.00000000000E+00  0.00000000000E+00  0.10657074618E+03  0.10657074618E+03  0.00000000000E+00 0. -1.
         21   -1    0    0  501  502 -0.00000000000E+00 -0.00000000000E+00 -0.11895378688E+04  0.11895378688E+04  0.00000000000E+00 0. -1.
         25    1    1    2    0    0  0.56394114199E+02  0.14597444739E+03 -0.10772837215E+04  0.10957436069E+04  0.12500000000E+03 0.  0.
         25    1    1    2    0    0 -0.56394114199E+02 -0.14597444739E+03 -0.56834010903E+01  0.20036500806E+03  0.12500000000E+03 0.  0.
</event>
<event>
 4    0  0.2134002E-002  0.2006408E+03  0.7546771E-02  0.1149199E+00
         21   -1    0    0  502  501  0.00000000000E+00  0.00000000000E+00  0.60642664812E+03  0.60642664812E+03  0.00000000000E+00 0.  1.
         21   -1    0    0  501  502 -0.00000000000E+00 -0.00000000000E+00 -0.66383522454E+02  0.66383522454E+02  0.00000000000E+00 0.  1.
         25    1    1    2    0    0  0.69796222700E+02 -0.33846339703E+02  0.41266507895E+02  0.15279074608E+03  0.12500000000E+03 0.  0.
         25    1    1    2    0    0 -0.69796222700E+02  0.33846339703E+02  0.49877661777E+03  0.52001942449E+03  0.12500000000E+03 0.  0.
</event>
<event>
 4    0  0.2134002E-002  0.2484006E+03  0.7546771E-02  0.1114320E+00
         21   -1    0    0  502  501  0.00000000000E+00  0.00000000000E+00  0.13070597864E+03  0.13070597864E+03  0.00000000000E+00 0. -1.
         21   -1    0    0  501  502 -0.00000000000E+00 -0.00000000000E+00 -0.47207353738E+03  0.47207353738E+03  0.00000000000E+00 0. -1.
         25    1    1    2    0    0 -0.19369266593E+03 -0.86482634463E+02 -0.13077787682E+03  0.27879015041E+03  0.12500000000E+03 0.  0.
         25    1    1    2    0    0  0.19369266593E+03  0.86482634463E+02 -0.21058968191E+03  0.32398936561E+03  0.12500000000E+03 0.  0.
</event>
<event>
 4    0  0.2134002E-002  0.2256476E+03  0.7546771E-02  0.1129741E+00
         21   -1    0    0  502  501  0.00000000000E+00  0.00000000000E+00  0.45713505835E+03  0.45713505835E+03  0.00000000000E+00 0. -1.
         21   -1    0    0  501  502 -0.00000000000E+00 -0.00000000000E+00 -0.11138247034E+03  0.11138247034E+03  0.00000000000E+00 0. -1.
         25    1    1    2    0    0  0.54311255580E+02 -0.46147281907E+02 -0.46089790648E+02  0.15109120726E+03  0.12500000000E+03 0.  0.
         25    1    1    2    0    0 -0.54311255580E+02  0.46147281907E+02  0.39184237866E+03  0.41742632143E+03  0.12500000000E+03 0.  0.
</event>
<event>
 4    0  0.2134002E-002  0.2211476E+03  0.7546771E-02  0.1133030E+00
         21   -1    0    0  502  501  0.00000000000E+00  0.00000000000E+00  0.84186014264E+02  0.84186014264E+02  0.00000000000E+00 0. -1.
         21   -1    0    0  501  502 -0.00000000000E+00 -0.00000000000E+00 -0.58093105473E+03  0.58093105473E+03  0.00000000000E+00 0. -1.
         25    1    1    2    0    0 -0.13715230659E+02 -0.16696967929E+03 -0.13978413786E+03  0.25145891623E+03  0.12500000000E+03 0.  0.
         25    1    1    2    0    0  0.13715230659E+02  0.16696967929E+03 -0.35696090261E+03  0.41365815276E+03  0.12500000000E+03 0.  0.
</event>
<event>
 4    0  0.2134002E-002  0.1847318E+03  0.7546771E-02  0.1163301E+00
         21   -1    0    0  502  501  0.00000000000E+00  0.00000000000E+00  0.54805539625E+03  0.54805539625E+03  0.00000000000E+00 0.  1.
         21   -1    0    0  501  502 -0.00000000000E+00 -0.00000000000E+00 -0.62267162294E+02  0.62267162294E+02  0.00000000000E+00 0.  1.
         25    1    1    2    0    0  0.58427187240E+02  0.11936741774E+03  0.19505876745E+03  0.26708657657E+03  0.12500000000E+03 0.  0.
         25    1    1    2    0    0 -0.58427187240E+02 -0.11936741774E+03  0.29072946651E+03  0.34323598197E+03  0.12500000000E+03 0.  0.
</event>
<event>
 4    0  0.2134002E-002  0.2241461E+03  0.7546771E-02  0.1130829E+00
         21   -1    0    0  502  501  0.00000000000E+00  0.00000000000E+00  0.12487954527E+03  0.12487954527E+03  0.00000000000E+00 0.  1.
         21   -1    0    0  501  502 -0.00000000000E+00 -0.00000000000E+00 -0.40231952470E+03  0.40231952470E+03  0.00000000000E+00 0.  1.
         25    1    1    2    0    0 -0.14147321778E+03 -0.93114424131E+02 -0.22929244400E+03  0.31126354140E+03  0.12500000000E+03 0.  0.
         25    1    1    2    0    0  0.14147321778E+03  0.93114424131E+02 -0.48147535436E+02  0.21593552857E+03  0.12500000000E+03 0.  0.
</event>
<event>
 4    0  0.2134002E-002  0.2076482E+03  0.7546771E-02  0.1143442E+00
         21   -1    0    0  502  501  0.00000000000E+00  0.00000000000E+00  0.12537257251E+04  0.12537257251E+04  0.00000000000E+00 0. -1.
         21   -1    0    0  501  502 -0.00000000000E+00 -0.00000000000E+00 -0.34391713842E+02  0.34391713842E+02  0.00000000000E+00 0. -1.
         25    1    1    2    0    0 -0.11772329180E+03  0.45514843057E+02  0.27614743825E+03  0.32834856787E+03  0.12500000000E+03 0.  0.
         25    1    1    2    0    0  0.11772329180E+03 -0.45514843057E+02  0.94318657298E+03  0.95976887104E+03  0.12500000000E+03 0.  0.
</event>
<event>
 4    0  0.2134002E-002  0.1920200E+03  0.7546771E-02  0.1156652E+00
         21   -1    0    0  502  501  0.00000000000E+00  0.00000000000E+00  0.37390135992E+03  0.37390135992E+03  0.00000000000E+00 0. -1.
         21   -1    0    0  501  502 -0.00000000000E+00 -0.00000000000E+00 -0.98613390084E+02  0.98613390084E+02  0.00000000000E+00 0. -1.
         25    1    1    2    0    0 -0.91532429309E+02 -0.95176512035E+02  0.61699330202E+02  0.19201187829E+03  0.12500000000E+03 0.  0.
         25    1    1    2    0    0  0.91532429309E+02  0.95176512035E+02  0.21358863964E+03  0.28050287172E+03  0.12500000000E+03 0.  0.
</event>
<event>
 4    0  0.2134002E-002  0.2129691E+03  0.7546771E-02  0.1139236E+00
         21   -1    0    0  502  501  0.00000000000E+00  0.00000000000E+00  0.12501864917E+03  0.12501864917E+03  0.00000000000E+00 0. -1.
         21   -1    0    0  501  502 -0.00000000000E+00 -0.00000000000E+00 -0.36279254604E+03  0.36279254604E+03  0.00000000000E+00 0. -1.
         25    1    1    2    0    0  0.81562453476E+02  0.10493953279E+02 -0.29245484438E+03  0.32850782772E+03  0.12500000000E+03 0.  0.
         25    1    1    2    0    0 -0.81562453476E+02 -0.10493953279E+02  0.54680947511E+02  0.15930336749E+03  0.12500000000E+03 0.  0.
</event>
<event>
 4    0  0.2134002E-002  0.2955426E+03  0.7546771E-02  0.1087490E+00
         21   -1    0    0  502  501  0.00000000000E+00  0.00000000000E+00  0.79291874599E+02  0.79291874599E+02  0.00000000000E+00 0. -1.
         21   -1    0    0  501  502 -0.00000000000E+00 -0.00000000000E+00 -0.11015681795E+04  0.11015681795E+04  0.00000000000E+00 0. -1.
         25    1    1    2    0    0 -0.19880441553E+03 -0.17522693820E+03 -0.43395205257E+03  0.52360964414E+03  0.12500000000E+03 0.  0.
         25    1    1    2    0    0  0.19880441553E+03  0.17522693820E+03 -0.58832425231E+03  0.65725040993E+03  0.12500000000E+03 0.  0.
</event>
<event>
 4    0  0.2134002E-002  0.3028364E+03  0.7546771E-02  0.1083831E+00
         21   -1    0    0  502  501  0.00000000000E+00  0.00000000000E+00  0.10126202253E+04  0.10126202253E+04  0.00000000000E+00 0.  1.
         21   -1    0    0  501  502 -0.00000000000E+00 -0.00000000000E+00 -0.90566888166E+02  0.90566888166E+02  0.00000000000E+00 0.  1.
         25    1    1    2    0    0 -0.20410376888E+03 -0.18493887414E+03  0.48829498398E+03  0.57438465076E+03  0.12500000000E+03 0.  0.
         25    1    1    2    0    0  0.20410376888E+03  0.18493887414E+03  0.43375835314E+03  0.52880246270E+03  0.12500000000E+03 0.  0.
</event>
<event>
 4    0  0.2134002E-002  0.2260490E+03  0.7546771E-02  0.1129452E+00
         21   -1    0    0  502  501  0.00000000000E+00  0.00000000000E+00  0.22071205483E+03  0.22071205483E+03  0.00000000000E+00 0. -1.
         21   -1    0    0  501  502 -0.00000000000E+00 -0.00000000000E+00 -0.23151503550E+03  0.23151503550E+03  0.00000000000E+00 0. -1.
         25    1    1    2    0    0  0.13901377450E+03  0.78066707539E+02  0.94896363493E+02  0.22371759012E+03  0.12500000000E+03 0.  0.
         25    1    1    2    0    0 -0.13901377450E+03 -0.78066707539E+02 -0.10569934417E+03  0.22850950020E+03  0.12500000000E+03 0.  0.
</event>
<event>
 4    0  0.2134002E-002  0.2931459E+03  0.7546771E-02  0.1088718E+00
         21   -1    0    0  502  501  0.00000000000E+00  0.00000000000E+00  0.57038153914E+03  0.57038153914E+03  0.00000000000E+00 0.  1.
         21   -1    0    0  501  502 -0.00000000000E+00 -0.00000000000E+00 -0.15066146145E+03  0.15066146145E+03  0.00000000000E+00 0.  1.
         25    1    1    2    0    0  0.25714074413E+03  0.19843855933E+02  0.13410395831E+03  0.31642378632E+03  0.12500000000E+03 0.  0.
         25    1    1    2    0    0 -0.25714074413E+03 -0.19843855933E+02  0.28561611938E+03  0.40461921428E+03  0.12500000000E+03 0.  0.
</event>
<event>
 4    0  0.2134002E-002  0.2529665E+03  0.7546771E-02  0.1111444E+00
         21   -1    0    0  502  501  0.00000000000E+00  0.00000000000E+00  0.12002174254E+03  0.12002174254E+03  0.00000000000E+00 0. -1.
         21   -1    0    0  501  502 -0.00000000000E+00 -0.00000000000E+00 -0.53317038401E+03  0.53317038401E+03  0.00000000000E+00 0.  1.
         25    1    1    2    0    0 -0.55103050612E+02  0.17624563982E+03 -0.36079125378E+03  0.42413936453E+03  0.12500000000E+03 0.  0.
         25    1    1    2    0    0  0.55103050612E+02 -0.17624563982E+03 -0.52357387692E+02  0.22905276202E+03  0.12500000000E+03 0.  0.
</event>
<event>
 4    0  0.2134002E-002  0.3266922E+03  0.7546771E-02  0.1072610E+00
         21   -1    0    0  502  501  0.00000000000E+00  0.00000000000E+00  0.60453237712E+02  0.60453237712E+02  0.00000000000E+00 0. -1.
         21   -1    0    0  501  502 -0.00000000000E+00 -0.00000000000E+00 -0.17654601819E+04  0.17654601819E+04  0.00000000000E+00 0. -1.
         25    1    1    2    0    0  0.10322917971E+03 -0.22161998222E+03 -0.35785202082E+03  0.45105958461E+03  0.12500000000E+03 0.  0.
         25    1    1    2    0    0 -0.10322917971E+03  0.22161998222E+03 -0.13471549233E+04  0.13748538350E+04  0.12500000000E+03 0.  0.
</event>
<event>
 4    0  0.2134002E-002  0.1829399E+03  0.7546771E-02  0.1164988E+00
         21   -1    0    0  502  501  0.00000000000E+00  0.00000000000E+00  0.30850825061E+03  0.30850825061E+03  0.00000000000E+00 0. -1.
         21   -1    0    0  501  502 -0.00000000000E+00 -0.00000000000E+00 -0.10848005722E+03  0.10848005722E+03  0.00000000000E+00 0. -1.
         25    1    1    2    0    0  0.10479482522E+03 -0.23615674812E+02  0.95374793395E+01  0.16509275878E+03  0.12500000000E+03 0.  0.
         25    1    1    2    0    0 -0.10479482522E+03  0.23615674812E+02  0.19049071405E+03  0.25189554905E+03  0.12500000000E+03 0.  0.
</event>
<event>
 4    0  0.2134002E-002  0.1995897E+03  0.7546771E-02  0.1150086E+00
         21   -1    0    0  502  501  0.00000000000E+00  0.00000000000E+00  0.20761880558E+03  0.20761880558E+03  0.00000000000E+00 0. -1.
         21   -1    0    0  501  502 -0.00000000000E+00 -0.00000000000E+00 -0.19187110249E+03  0.19187110249E+03  0.00000000000E+00 0. -1.
         25    1    1    2    0    0  0.13927121936E+03 -0.68988676900E+02  0.44250866127E+00  0.19945201402E+03  0.12500000000E+03 0.  0.
         25    1    1    2    0    0 -0.13927121936E+03  0.68988676900E+02  0.15305194428E+02  0.20003789406E+03  0.12500000000E+03 0.  0.
</event>
<event>
 4    0  0.2134002E-002  0.1475396E+03  0.7546771E-02  0.1203529E+00
         21   -1    0    0  502  501  0.00000000000E+00  0.00000000000E+00  0.48788027982E+03  0.48788027982E+03  0.00000000000E+00 0. -1.
         21   -1    0    0  501  502 -0.00000000000E+00 -0.00000000000E+00 -0.44617349867E+02  0.44617349867E+02  0.00000000000E+00 0. -1.
         25    1    1    2    0    0 -0.14212597139E+02  0.56711316578E+02  0.12743322280E+03  0.18783609243E+03  0.12500000000E+03 0.  0.
         25    1    1    2    0    0  0.14212597139E+02 -0.56711316578E+02  0.31582970715E+03  0.34466153725E+03  0.12500000000E+03 0.  0.
</event>
<event>
 4    0  0.2134002E-002  0.1562062E+03  0.7546771E-02  0.1193048E+00
         21   -1    0    0  502  501  0.00000000000E+00  0.00000000000E+00  0.40984442433E+02  0.40984442433E+02  0.00000000000E+00 0.  1.
         21   -1    0    0  501  502 -0.00000000000E+00 -0.00000000000E+00 -0.59535696609E+03  0.59535696609E+03  0.00000000000E+00 0.  1.
         25    1    1    2    0    0 -0.26345563980E+02  0.88782386727E+02 -0.24845475919E+03  0.29314018540E+03  0.12500000000E+03 0.  0.
         25    1    1    2    0    0  0.26345563980E+02 -0.88782386727E+02 -0.30591776447E+03  0.34320122312E+03  0.12500000000E+03 0.  0.
</event>
<event>
 4    0  0.2134002E-002  0.2545475E+03  0.7546771E-02  0.1110464E+00
         21   -1    0    0  502  501  0.00000000000E+00  0.00000000000E+00  0.39896000524E+02  0.39896000524E+02  0.00000000000E+00 0.  1.
         21   -1    0    0  501  502 -0.00000000000E+00 -0.00000000000E+00 -0.16240827283E+04  0.16240827283E+04  0.00000000000E+00 0.  1.
         25    1    1    2    0    0 -0.21070803193E+03 -0.65490712734E+02 -0.86388873103E+03  0.90034196158E+03  0.12500000000E+03 0.  0.
         25    1    1    2    0    0  0.21070803193E+03  0.65490712734E+02 -0.72029799676E+03  0.76363676726E+03  0.12500000000E+03 0.  0.
</event>
<event>
 4    0  0.2134002E-002  0.1444233E+03  0.7546771E-02  0.1207498E+00
         21   -1    0    0  502  501  0.00000000000E+00  0.00000000000E+00  0.51168522605E+02  0.51168522605E+02  0.00000000000E+00 0. -1.
         21   -1    0    0  501  502 -0.00000000000E+00 -0.00000000000E+00 -0.40763497275E+03  0.40763497275E+03  0.00000000000E+00 0. -1.
         25    1    1    2    0    0 -0.65741723503E+02  0.12003231401E+02 -0.22222434769E+03  0.26358056165E+03  0.12500000000E+03 0.  0.
         25    1    1    2    0    0  0.65741723503E+02 -0.12003231401E+02 -0.13424210245E+03  0.19522293370E+03  0.12500000000E+03 0.  0.
</event>
<event>
 4    0  0.2134002E-002  0.1797954E+03  0.7546771E-02  0.1168001E+00
         21   -1    0    0  502  501  0.00000000000E+00  0.00000000000E+00  0.41493519649E+03  0.41493519649E+03  0.00000000000E+00 0.  1.
         21   -1    0    0  501  502 -0.00000000000E+00 -0.00000000000E+00 -0.77907042531E+02  0.77907042531E+02  0.00000000000E+00 0.  1.
         25    1    1    2    0    0  0.10041083118E+03  0.50162125971E+02  0.25630297721E+03  0.30645520068E+03  0.12500000000E+03 0.  0.
         25    1    1    2    0    0 -0.10041083118E+03 -0.50162125971E+02  0.80725176752E+02  0.18638703834E+03  0.12500000000E+03 0.  0.
</event>
<event>
 4    0  0.2134002E-002  0.1954286E+03  0.7546771E-02  0.1153654E+00
         21   -1    0    0  502  501  0.00000000000E+00  0.00000000000E+00  0.33120612368E+02  0.33120612368E+02  0.00000000000E+00 0.  1.
         21   -1    0    0  501  502 -0.00000000000E+00 -0.00000000000E+00 -0.11531287674E+04  0.11531287674E+04  0.00000000000E+00 0.  1.
         25    1    1    2    0    0  0.76581347174E+02  0.10480819522E+03 -0.78950005298E+03  0.80980540513E+03  0.12500000000E+03 0.  0.
         25    1    1    2    0    0 -0.76581347174E+02 -0.10480819522E+03 -0.33050810204E+03  0.37644397463E+03  0.12500000000E+03 0.  0.
</event>
<event>
 4    0  0.2134002E-002  0.4087811E+03  0.7546771E-02  0.1040781E+00
         21   -1    0    0  502  501  0.00000000000E+00  0.00000000000E+00  0.74728232434E+03  0.74728232434E+03  0.00000000000E+00 0.  1.
         21   -1    0    0  501  502 -0.00000000000E+00 -0.00000000000E+00 -0.22361290927E+03  0.22361290927E+03  0.00000000000E+00 0.  1.
         25    1    1    2    0    0  0.18753940751E+02 -0.31309415985E+03 -0.11810500776E+02  0.33785226232E+03  0.12500000000E+03 0.  0.
         25    1    1    2    0    0 -0.18753940751E+02  0.31309415985E+03  0.53547991585E+03  0.63304297129E+03  0.12500000000E+03 0.  0.
</event>
<event>
 4    0  0.2134002E-002  0.2734098E+03  0.7546771E-02  0.1099344E+00
         21   -1    0    0  502  501  0.00000000000E+00  0.00000000000E+00  0.42766084489E+02  0.42766084489E+02  0.00000000000E+00 0.  1.
         21   -1    0    0  501  502 -0.00000000000E+00 -0.00000000000E+00 -0.17479482811E+04  0.17479482811E+04  0.00000000000E+00 0.  1.
         25    1    1    2    0    0 -0.12545516850E+02 -0.11813776410E+03 -0.15473850149E+04  0.15569647734E+04  0.12500000000E+03 0.  0.
         25    1    1    2    0    0  0.12545516850E+02  0.11813776410E+03 -0.15779718179E+03  0.23374959225E+03  0.12500000000E+03 0.  0.
</event>
<event>
 4    0  0.2134002E-002  0.2545565E+03  0.7546771E-02  0.1110459E+00
         21   -1    0    0  502  501  0.00000000000E+00  0.00000000000E+00  0.42686600088E+03  0.42686600088E+03  0.00000000000E+00 0.  1.
         21   -1    0    0  501  502 -0.00000000000E+00 -0.00000000000E+00 -0.15180181265E+03  0.15180181265E+03  0.00000000000E+00 0. -1.
         25    1    1    2    0    0  0.18677898709E+03  0.84431969021E+01  0.20102816890E+01  0.22491491464E+03  0.12500000000E+03 0.  0.
         25    1    1    2    0    0 -0.18677898709E+03 -0.84431969021E+01  0.27305390655E+03  0.35375289889E+03  0.12500000000E+03 0.  0.
</event>
<event>
 4    0  0.2134002E-002  0.2047111E+03  0.7546771E-02  0.1145824E+00
         21   -1    0    0  502  501  0.00000000000E+00  0.00000000000E+00  0.22893824504E+02  0.22893824504E+02  0.00000000000E+00 0.  1.
         21   -1    0    0  501  502 -0.00000000000E+00 -0.00000000000E+00 -0.18304785028E+04  0.18304785028E+04  0.00000000000E+00 0.  1.
         25    1    1    2    0    0  0.44826692367E+02 -0.92133658565E+02 -0.33507776073E+03  0.37202170518E+03  0.12500000000E+03 0.  0.
         25    1    1    2    0    0 -0.44826692367E+02  0.92133658565E+02 -0.14725069176E+04  0.14813506222E+04  0.12500000000E+03 0.  0.
</event>
<event>
 4    0  0.2134002E-002  0.2289795E+03  0.7546771E-02  0.1127360E+00
         21   -1    0    0  502  501  0.00000000000E+00  0.00000000000E+00  0.78408260778E+02  0.78408260778E+02  0.00000000000E+00 0. -1.
         21   -1    0    0  501  502 -0.00000000000E+00 -0.00000000000E+00 -0.66870007160E+03  0.66870007160E+03  0.00000000000E+00 0. -1.
         25    1    1    2    0    0 -0.19087486231E+03  0.81864986498E+01 -0.32370113241E+03  0.39611570904E+03  0.12500000000E+03 0.  0.
         25    1    1    2    0    0  0.19087486231E+03 -0.81864986498E+01 -0.26659067841E+03  0.35099262334E+03  0.12500000000E+03 0.  0.
</event>
<event>
 4    0  0.2134002E-002  0.2140340E+03  0.7546771E-02  0.1138411E+00
         21   -1    0    0  502  501  0.00000000000E+00  0.00000000000E+00  0.89620854441E+02  0.89620854441E+02  0.00000000000E+00 0.  1.
         21   -1    0    0  501  502 -0.00000000000E+00 -0.00000000000E+00 -0.51115962810E+03  0.51115962810E+03  0.00000000000E+00 0.  1.
         25    1    1    2    0    0  0.11438120034E+03  0.43410025124E+02 -0.37635195230E+02  0.17891030488E+03  0.12500000000E+03 0.  0.
         25    1    1    2    0    0 -0.11438120034E+03 -0.43410025124E+02 -0.38390357843E+03  0.42187017767E+03  0.12500000000E+03 0.  0.
</event>
<event>
 4    0  0.2134002E-002  0.3298834E+03  0.7546771E-02  0.1071188E+00
         21   -1    0    0  502  501  0.00000000000E+00  0.00000000000E+00  0.52079954548E+02  0.52079954548E+02  0.00000000000E+00 0. -1.
         21   -1    0    0  501  502 -0.00000000000E+00 -0.00000000000E+00 -0.20895377184E+04  0.20895377184E+04  0.00000000000E+00 0. -1.
         25    1    1    2    0    0  0.27292733414E+03 -0.79634554893E+02 -0.13797099093E+04  0.14142331583E+04  0.12500000000E+03 0.  0.
         25    1    1    2    0    0 -0.27292733414E+03  0.79634554893E+02 -0.65774785449E+03  0.72738451464E+03  0.12500000000E+03 0.  0.
</event>
<event>
 4    0  0.2134002E-002  0.2267751E+03  0.7546771E-02  0.1128930E+00
         21   -1    0    0  502  501  0.00000000000E+00  0.00000000000E+00  0.49197167988E+02  0.49197167988E+02  0.00000000000E+00 0.  1.
         21   -1    0    0  501  502 -0.00000000000E+00 -0.00000000000E+00 -0.10453237232E+04  0.10453237232E+04  0.00000000000E+00 0.  1.
         25    1    1    2    0    0  0.72234265859E+02 -0.97389227649E+02 -0.14752548213E+03  0.22823500762E+03  0.12500000000E+03 0.  0.
         25    1    1    2    0    0 -0.72234265859E+02  0.97389227649E+02 -0.84860107306E+03  0.86628588354E+03  0.12500000000E+03 0.  0.
</event>
<event>
 4    0  0.2134002E-002  0.2177301E+03  0.7546771E-02  0.1135587E+00
         21   -1    0    0  502  501  0.00000000000E+00  0.00000000000E+00  0.73242850126E+03  0.73242850126E+03  0.00000000000E+00 0. -1.
         21   -1    0    0  501  502 -0.00000000000E+00 -0.00000000000E+00 -0.64724969836E+02  0.64724969836E+02  0.00000000000E+00 0. -1.
         25    1    1    2    0    0 -0.78986031818E+02 -0.14630353620E+03  0.21609574583E+03  0.29994314344E+03  0.12500000000E+03 0.  0.
         25    1    1    2    0    0  0.78986031818E+02  0.14630353620E+03  0.45160778559E+03  0.49721032766E+03  0.12500000000E+03 0.  0.
</event>
<event>
 4    0  0.2134002E-002  0.1962644E+03  0.7546771E-02  0.1152930E+00
         21   -1    0    0  502  501  0.00000000000E+00  0.00000000000E+00  0.19988509780E+03  0.19988509780E+03  0.00000000000E+00 0. -1.
         21   -1    0    0  501  502 -0.00000000000E+00 -0.00000000000E+00 -0.19270933579E+03  0.19270933579E+03  0.00000000000E+00 0. -1.
         25    1    1    2    0    0  0.89068814587E+02 -0.36973343646E+02 -0.11302680795E+03  0.19416575699E+03  0.12500000000E+03 0.  0.
         25    1    1    2    0    0 -0.89068814587E+02  0.36973343646E+02  0.12020256996E+03  0.19842867660E+03  0.12500000000E+03 0.  0.
</event>
<event>
 4    0  0.2134002E-002  0.2519105E+03  0.7546771E-02  0.1112103E+00
         21   -1    0    0  502  501  0.00000000000E+00  0.00000000000E+00  0.50943843655E+03  0.50943843655E+03  0.00000000000E+00 0.  1.
         21   -1    0    0  501  502 -0.00000000000E+00 -0.00000000000E+00 -0.12456638019E+03  0.12456638019E+03  0.00000000000E+00 0.  1.
         25    1    1    2    0    0  0.19702990742E+03 -0.92854939667E+02  0.16755044453E+03  0.30189563710E+03  0.12500000000E+03 0.  0.
         25    1    1    2    0    0 -0.19702990742E+03  0.92854939667E+02  0.21732161183E+03  0.33210917965E+03  0.12500000000E+03 0.  0.
</event>
<event>
 4    0  0.2134002E-002  0.2259476E+03  0.7546771E-02  0.1129525E+00
         21   -1    0    0  502  501  0.00000000000E+00  0.00000000000E+00  0.47761200831E+02  0.47761200831E+02  0.00000000000E+00 0. -1.
         21   -1    0    0  501  502 -0.00000000000E+00 -0.00000000000E+00 -0.10689077381E+04  0.10689077381E+04  0.00000000000E+00 0. -1.
         25    1    1    2    0    0 -0.50292107389E+02 -0.97182515111E+02 -0.88900825618E+03  0.90439726717E+03  0.12500000000E+03 0.  0.
         25    1    1    2    0    0  0.50292107389E+02  0.97182515111E+02 -0.13213828113E+03  0.21227167180E+03  0.12500000000E+03 0.  0.
</event>
<event>
 4    0  0.2134002E-002  0.3446234E+03  0.7546771E-02  0.1064844E+00
         21   -1    0    0  502  501  0.00000000000E+00  0.00000000000E+00  0.15480481968E+03  0.15480481968E+03  0.00000000000E+00 0.  1.
         21   -1    0    0  501  502 -0.00000000000E+00 -0.00000000000E+00 -0.76719393307E+03  0.76719393307E+03  0.00000000000E+00 0. -1.
         25    1    1    2    0    0  0.21524495648E+03 -0.18026284691E+02 -0.62411760190E+03  0.67216301537E+03  0.12500000000E+03 0.  0.
         25    1    1    2    0    0 -0.21524495648E+03  0.18026284691E+02  0.11728488506E+02  0.24983573738E+03  0.12500000000E+03 0.  0.
</event>
<event>
 4    0  0.2134002E-002  0.3699074E+03  0.7546771E-02  0.1054728E+00
         21   -1    0    0  502  501  0.00000000000E+00  0.00000000000E+00  0.16818098786E+04  0.16818098786E+04  0.00000000000E+00 0. -1.
         21   -1    0    0  501  502 -0.00000000000E+00 -0.00000000000E+00 -0.81359661354E+02  0.81359661354E+02  0.00000000000E+00 0. -1.
         25    1    1    2    0    0 -0.21240350071E+03  0.26858499091E+03  0.65037639413E+03  0.74556528788E+03  0.12500000000E+03 0.  0.
         25    1    1    2    0    0  0.21240350071E+03 -0.26858499091E+03  0.95007382310E+03  0.10176042521E+04  0.12500000000E+03 0.  0.
</event>
<event>
 4    0  0.2134002E-002  0.3468310E+03  0.7546771E-02  0.1063923E+00
         21   -1    0    0  502  501  0.00000000000E+00  0.00000000000E+00  0.45470500039E+03  0.45470500039E+03  0.00000000000E+00 0. -1.
         21   -1    0    0  501  502 -0.00000000000E+00 -0.00000000000E+00 -0.26454898580E+03  0.26454898580E+03  0.00000000000E+00 0. -1.
         25    1    1    2    0    0 -0.11964858643E+03 -0.73409353950E+02 -0.20715841835E+03  0.27972187576E+03  0.12500000000E+03 0.  0.
         25    1    1    2    0    0  0.11964858643E+03  0.73409353950E+02  0.39731443294E+03  0.43953211043E+03  0.12500000000E+03 0.  0.
</event>
<event>
 4    0  0.2134002E-002  0.1856418E+03  0.7546771E-02  0.1162452E+00
         21   -1    0    0  502  501  0.00000000000E+00  0.00000000000E+00  0.20447533291E+03  0.20447533291E+03  0.00000000000E+00 0. -1.
         21   -1    0    0  501  502 -0.00000000000E+00 -0.00000000000E+00 -0.16854298284E+03  0.16854298284E+03  0.00000000000E+00 0. -1.
         25    1    1    2    0    0  0.40905848272E+02  0.11634598176E+03  0.78482196423E+02  0.19233858440E+03  0.12500000000E+03 0.  0.
         25    1    1    2    0    0 -0.40905848272E+02 -0.11634598176E+03 -0.42549846349E+02  0.18067973134E+03  0.12500000000E+03 0.  0.
</event>
<event>
 4    0  0.2134002E-002  0.3447863E+03  0.7546771E-02  0.1064776E+00
         21   -1    0    0  502  501  0.00000000000E+00  0.00000000000E+00  0.49600505775E+03  0.49600505775E+03  0.00000000000E+00 0.  1.
         21   -1    0    0  501  502 -0.00000000000E+00 -0.00000000000E+00 -0.23967005483E+03  0.23967005483E+03  0.00000000000E+00 0.  1.
         25    1    1    2    0    0  0.30318111322E+03 -0.46694920286E+02  0.23023707844E+03  0.40340217560E+03  0.12500000000E+03 0.  0.
         25    1    1    2    0    0 -0.30318111322E+03  0.46694920286E+02  0.26097924483E+02  0.33227293699E+03  0.12500000000E+03 0.  0.
</event>
<event>
 4    0  0.2134002E-002  0.1401713E+03  0.7546771E-02  0.1213099E+00
         21   -1    0    0  502  501  0.00000000000E+00  0.00000000000E+00  0.30174785237E+03  0.30174785237E+03  0.00000000000E+00 0. -1.
         21   -1    0    0  501  502 -0.00000000000E+00 -0.00000000000E+00 -0.65113970290E+02  0.65113970290E+02  0.00000000000E+00 0. -1.
         25    1    1    2    0    0 -0.36984794641E+02  0.21257404311E+02  0.56891953768E+02  0.14381045399E+03  0.12500000000E+03 0.  0.
         25    1    1    2    0    0  0.36984794641E+02 -0.21257404311E+02  0.17974192831E+03  0.22305136867E+03  0.12500000000E+03 0.  0.
</event>
<event>
 4    0  0.2134002E-002  0.2977883E+03  0.7546771E-02  0.1086351E+00
         21   -1    0    0  502  501  0.00000000000E+00  0.00000000000E+00  0.80222020638E+03  0.80222020638E+03  0.00000000000E+00 0.  1.
         21   -1    0    0  501  502 -0.00000000000E+00 -0.00000000000E+00 -0.11054053680E+03  0.11054053680E+03  0.00000000000E+00 0.  1.
         25    1    1    2    0    0  0.26652560759E+03  0.28980225977E+02  0.39842048050E+03  0.49622538456E+03  0.12500000000E+03 0.  0.
         25    1    1    2    0    0 -0.26652560759E+03 -0.28980225977E+02  0.29325918908E+03  0.41653535862E+03  0.12500000000E+03 0.  0.
</event>
<event>
 4    0  0.2134002E-002  0.2441992E+03  0.7546771E-02  0.1117027E+00
         21   -1    0    0  502  501  0.00000000000E+00  0.00000000000E+00  0.15881443344E+03  0.15881443344E+03  0.00000000000E+00 0. -1.
         21   -1    0    0  501  502 -0.00000000000E+00 -0.00000000000E+00 -0.37549012569E+03  0.37549012569E+03  0.00000000000E+00 0. -1.
         25    1    1    2    0    0  0.10025181509E+03 -0.13121944780E+03 -0.24987910296E+03  0.32455128409E+03  0.12500000000E+03 0.  0.
         25    1    1    2    0    0 -0.10025181509E+03  0.13121944780E+03  0.33203410711E+02  0.20975327505E+03  0.12500000000E+03 0.  0.
</event>
<event>
 4    0  0.2134002E-002  0.2205326E+03  0.7546771E-02  0.1133487E+00
         21   -1    0    0  502  501  0.00000000000E+00  0.00000000000E+00  0.74863151166E+03  0.74863151166E+03  0.00000000000E+00 0. -1.
         21   -1    0    0  501  502 -0.00000000000E+00 -0.00000000000E+00 -0.64964690747E+02  0.64964690747E+02  0.00000000000E+00 0. -1.
         25    1    1    2    0    0 -0.79683505123E+02  0.41988965359E+02  0.50774842115E+02  0.16222089505E+03  0.12500000000E+03 0.  0.
         25    1    1    2    0    0  0.79683505123E+02 -0.41988965359E+02  0.63289197880E+03  0.65137530735E+03  0.12500000000E+03 0.  0.
</event>
<event>
 4    0  0.2134002E-002  0.2207601E+03  0.7546771E-02  0.1133318E+00
         21   -1    0    0  502  501  0.00000000000E+00  0.00000000000E+00  0.88870113181E+03  0.88870113181E+03  0.00000000000E+00 0.  1.
         21   -1    0    0  501  502 -0.00000000000E+00 -0.00000000000E+00 -0.54838504569E+02  0.54838504569E+02  0.00000000000E+00 0.  1.
         25    1    1    2    0    0  0.12275895218E+03  0.10719883526E+03  0.58986783397E+03  0.62460420441E+03  0.12500000000E+03 0.  0.
         25    1    1    2    0    0 -0.12275895218E+03 -0.10719883526E+03  0.24399479328E+03  0.31893543197E+03  0.12500000000E+03 0.  0.
</event>
<event>
 4    0  0.2134002E-002  0.1550257E+03  0.7546771E-02  0.1194430E+00
         21   -1    0    0  502  501  0.00000000000E+00  0.00000000000E+00  0.30570002784E+02  0.30570002784E+02  0.00000000000E+00 0. -1.
         21   -1    0    0  501  502 -0.00000000000E+00 -0.00000000000E+00 -0.78616218828E+03  0.78616218828E+03  0.00000000000E+00 0. -1.
         25    1    1    2    0    0  0.71856569339E+02  0.56587908956E+02 -0.39495315403E+03  0.42423879110E+03  0.12500000000E+03 0.  0.
         25    1    1    2    0    0 -0.71856569339E+02 -0.56587908956E+02 -0.36063903146E+03  0.39249339996E+03  0.12500000000E+03 0.  0.
</event>
<event>
 4    0  0.2134002E-002  0.2276542E+03  0.7546771E-02  0.1128302E+00
         21   -1    0    0  502  501  0.00000000000E+00  0.00000000000E+00  0.64896016499E+02  0.64896016499E+02  0.00000000000E+00 0.  1.
         21   -1    0    0  501  502 -0.00000000000E+00 -0.00000000000E+00 -0.79860701620E+03  0.79860701620E+03  0.00000000000E+00 0.  1.
         25    1    1    2    0    0  0.81658803667E+02  0.13608627955E+03 -0.16782187241E+03  0.26263437810E+03  0.12500000000E+03 0.  0.
         25    1    1    2    0    0 -0.81658803667E+02 -0.13608627955E+03 -0.56588912729E+03  0.60086865460E+03  0.12500000000E+03 0.  0.
</event>
<event>
 4    0  0.2134002E-002  0.2538373E+03  0.7546771E-02  0.1110903E+00
         21   -1    0    0  502  501  0.00000000000E+00  0.00000000000E+00  0.33945388062E+03  0.33945388062E+03  0.00000000000E+00 0. -1.
         21   -1    0    0  501  502 -0.00000000000E+00 -0.00000000000E+00 -0.18981477307E+03  0.18981477307E+03  0.00000000000E+00 0. -1.
         25    1    1    2    0    0 -0.10582274425E+03  0.55865738588E+02  0.26843082103E+03  0.31937366771E+03  0.12500000000E+03 0.  0.
         25    1    1    2    0    0  0.10582274425E+03 -0.55865738588E+02 -0.11879171348E+03  0.20989498598E+03  0.12500000000E+03 0.  0.
</event>
<event>
 4    0  0.2134002E-002  0.1910160E+03  0.7546771E-02  0.1157548E+00
         21   -1    0    0  502  501  0.00000000000E+00  0.00000000000E+00  0.53000699776E+02  0.53000699776E+02  0.00000000000E+00 0.  1.
         21   -1    0    0  501  502 -0.00000000000E+00 -0.00000000000E+00 -0.68842719781E+03  0.68842719781E+03  0.00000000000E+00 0.  1.
         25    1    1    2    0    0  0.40478255459E+02  0.68289332719E+02 -0.83531630947E+02  0.17001310390E+03  0.12500000000E+03 0.  0.
         25    1    1    2    0    0 -0.40478255459E+02 -0.68289332719E+02 -0.55189486709E+03  0.57141479369E+03  0.12500000000E+03 0.  0.
</event>
<event>
 4    0  0.2134002E-002  0.3384234E+03  0.7546771E-02  0.1067469E+00
         21   -1    0    0  502  501  0.00000000000E+00  0.00000000000E+00  0.83095912901E+02  0.83095912901E+02  0.00000000000E+00 0. -1.
         21   -1    0    0  501  502 -0.00000000000E+00 -0.00000000000E+00 -0.13782914879E+04  0.13782914879E+04  0.00000000000E+00 0. -1.
         25    1    1    2    0    0 -0.12325009792E+03  0.32326834889E+02 -0.26802542841E+02  0.18049650189E+03  0.12500000000E+03 0.  0.
         25    1    1    2    0    0  0.12325009792E+03 -0.32326834889E+02 -0.12683930322E+04  0.12808908989E+04  0.12500000000E+03 0.  0.
</event>
<event>
 4    0  0.2134002E-002  0.1969021E+03  0.7546771E-02  0.1152379E+00
         21   -1    0    0  502  501  0.00000000000E+00  0.00000000000E+00  0.71095482578E+02  0.71095482578E+02  0.00000000000E+00 0. -1.
         21   -1    0    0  501  502 -0.00000000000E+00 -0.00000000000E+00 -0.54532923503E+03  0.54532923503E+03  0.00000000000E+00 0. -1.
         25    1    1    2    0    0  0.10133291577E+02  0.11485385259E+03 -0.81753868619E+02  0.18868700561E+03  0.12500000000E+03 0.  0.
         25    1    1    2    0    0 -0.10133291577E+02 -0.11485385259E+03 -0.39247988383E+03  0.42773771199E+03  0.12500000000E+03 0.  0.
</event>
<event>
 4    0  0.2134002E-002  0.2045024E+03  0.7546771E-02  0.1145995E+00
         21   -1    0    0  502  501  0.00000000000E+00  0.00000000000E+00  0.60617020012E+02  0.60617020012E+02  0.00000000000E+00 0.  1.
         21   -1    0    0  501  502 -0.00000000000E+00 -0.00000000000E+00 -0.68992588563E+03  0.68992588563E+03  0.00000000000E+00 0.  1.
         25    1    1    2    0    0  0.11279645393E+03 -0.10031792040E+03 -0.42180488884E+03  0.46511406066E+03  0.12500000000E+03 0.  0.
         25    1    1    2    0    0 -0.11279645393E+03  0.10031792040E+03 -0.20750397678E+03  0.28542884499E+03  0.12500000000E+03 0.  0.
</event>
<event>
 4    0  0.2134002E-002  0.2573313E+03  0.7546771E-02  0.1108757E+00
         21   -1    0    0  502  501  0.00000000000E+00  0.00000000000E+00  0.11122928411E+03  0.11122928411E+03  0.00000000000E+00 0.  1.
         21   -1    0    0  501  502 -0.00000000000E+00 -0.00000000000E+00 -0.59534117686E+03  0.59534117686E+03  0.00000000000E+00 0.  1.
         25    1    1    2    0    0 -0.21825931087E+03  0.25471591781E+02 -0.30801776698E+03  0.39847945185E+03  0.12500000000E+03 0.  0.
         25    1    1    2    0    0  0.21825931087E+03 -0.25471591781E+02 -0.17609412577E+03  0.30809100912E+03  0.12500000000E+03 0.  0.
</event>
<event>
 4    0  0.2134002E-002  0.1873742E+03  0.7546771E-02  0.1160851E+00
         21   -1    0    0  502  501  0.00000000000E+00  0.00000000000E+00  0.18230773321E+03  0.18230773321E+03  0.00000000000E+00 0. -1.
         21   -1    0    0  501  502 -0.00000000000E+00 -0.00000000000E+00 -0.19258153692E+03  0.19258153692E+03  0.00000000000E+00 0. -1.
         25    1    1    2    0    0  0.85453146009E+00 -0.13641665574E+03 -0.34709288668E+02  0.18825506343E+03  0.12500000000E+03 0.  0.
         25    1    1    2    0    0 -0.85453146009E+00  0.13641665574E+03  0.24435484966E+02  0.18663420670E+03  0.12500000000E+03 0.  0.
</event>
<event>
 4    0  0.2134002E-002  0.4104163E+03  0.7546771E-02  0.1040231E+00
         21   -1    0    0  502  501  0.00000000000E+00  0.00000000000E+00  0.13020638341E+03  0.13020638341E+03  0.00000000000E+00 0.  1.
         21   -1    0    0  501  502 -0.00000000000E+00 -0.00000000000E+00 -0.12936503367E+04  0.12936503367E+04  0.00000000000E+00 0.  1.
         25    1    1    2    0    0 -0.24807699376E+03 -0.15013076383E+03 -0.10365015580E+04  0.10835321504E+04  0.12500000000E+03 0.  0.
         25    1    1    2    0    0  0.24807699376E+03  0.15013076383E+03 -0.12694239530E+03  0.34032456980E+03  0.12500000000E+03 0.  0.
</event>
<event>
 4    0  0.2134002E-002  0.2429452E+03  0.7546771E-02  0.1117846E+00
         21   -1    0    0  502  501  0.00000000000E+00  0.00000000000E+00  0.50615333896E+02  0.50615333896E+02  0.00000000000E+00 0. -1.
         21   -1    0    0  501  502 -0.00000000000E+00 -0.00000000000E+00 -0.11660964443E+04  0.11660964443E+04  0.00000000000E+00 0. -1.
         25    1    1    2    0    0 -0.88531888681E+02 -0.18503019606E+03 -0.64883193703E+03  0.69186844940E+03  0.12500000000E+03 0.  0.
         25    1    1    2    0    0  0.88531888681E+02  0.18503019606E+03 -0.46664917335E+03  0.52484332877E+03  0.12500000000E+03 0.  0.
</event>
<event>
 4    0  0.2134002E-002  0.1664631E+03  0.7546771E-02  0.1181587E+00
         21   -1    0    0  502  501  0.00000000000E+00  0.00000000000E+00  0.51315157873E+02  0.51315157873E+02  0.00000000000E+00 0. -1.
         21   -1    0    0  501  502 -0.00000000000E+00 -0.00000000000E+00 -0.53999578822E+03  0.53999578822E+03  0.00000000000E+00 0. -1.
         25    1    1    2    0    0 -0.48466705479E+02 -0.71893179826E+02 -0.12430790117E+03  0.19645636956E+03  0.12500000000E+03 0.  0.
         25    1    1    2    0    0  0.48466705479E+02  0.71893179826E+02 -0.36437272918E+03  0.39485457654E+03  0.12500000000E+03 0.  0.
</event>
<event>
 4    0  0.2134002E-002  0.5411553E+03  0.7546771E-02  0.1003562E+00
         21   -1    0    0  502  501  0.00000000000E+00  0.00000000000E+00  0.10719621894E+04  0.10719621894E+04  0.00000000000E+00 0.  1.
         21   -1    0    0  501  502 -0.00000000000E+00 -0.00000000000E+00 -0.27318975887E+03  0.27318975887E+03  0.00000000000E+00 0.  1.
         25    1    1    2    0    0  0.48675767633E+02 -0.51382288330E+03  0.52879095995E+03  0.74941855133E+03  0.12500000000E+03 0.  0.
         25    1    1    2    0    0 -0.48675767633E+02  0.51382288330E+03  0.26998147055E+03  0.59573339691E+03  0.12500000000E+03 0.  0.
</event>
<event>
 4    0  0.2134002E-002  0.1293520E+03  0.7546771E-02  0.1228420E+00
         21   -1    0    0  502  501  0.00000000000E+00  0.00000000000E+00  0.53537296355E+03  0.53537296355E+03  0.00000000000E+00 0.  1.
         21   -1    0    0  501  502 -0.00000000000E+00 -0.00000000000E+00 -0.31252849865E+02  0.31252849865E+02  0.00000000000E+00 0.  1.
         25    1    1    2    0    0  0.26315097796E+02 -0.20145028435E+02  0.24562791684E+03  0.27759030976E+03  0.12500000000E+03 0.  0.
         25    1    1    2    0    0 -0.26315097796E+02  0.20145028435E+02  0.25849219685E+03  0.28903550366E+03  0.12500000000E+03 0.  0.
</event>
<event>
 4    0  0.2134002E-002  0.1492039E+03  0.7546771E-02  0.1201455E+00
         21   -1    0    0  502  501  0.00000000000E+00  0.00000000000E+00  0.12828744209E+03  0.12828744209E+03  0.00000000000E+00 0.  1.
         21   -1    0    0  501  502 -0.00000000000E+00 -0.00000000000E+00 -0.17353073054E+03  0.17353073054E+03  0.00000000000E+00 0.  1.
         25    1    1    2    0    0  0.43459394938E+02 -0.82185865928E+01  0.46574761191E+02  0.14053637449E+03  0.12500000000E+03 0.  0.
         25    1    1    2    0    0 -0.43459394938E+02  0.82185865928E+01 -0.91818049640E+02  0.16128179815E+03  0.12500000000E+03 0.  0.
</event>
<event>
 4    0  0.2134002E-002  0.2085947E+03  0.7546771E-02  0.1142684E+00
         21   -1    0    0  502  501  0.00000000000E+00  0.00000000000E+00  0.44581962411E+03  0.44581962411E+03  0.00000000000E+00 0.  1.
         21   -1    0    0  501  502 -0.00000000000E+00 -0.00000000000E+00 -0.97599459324E+02  0.97599459324E+02  0.00000000000E+00 0.  1.
         25    1    1    2    0    0 -0.16373797730E+03 -0.12931555735E+02  0.21339085357E+03  0.29688045865E+03  0.12500000000E+03 0.  0.
         25    1    1    2    0    0  0.16373797730E+03  0.12931555735E+02  0.13482931122E+03  0.24653862478E+03  0.12500000000E+03 0.  0.
</event>
<event>
 4    0  0.2134002E-002  0.2268673E+03  0.7546771E-02  0.1128864E+00
         21   -1    0    0  502  501  0.00000000000E+00  0.00000000000E+00  0.71472318238E+02  0.71472318238E+02  0.00000000000E+00 0. -1.
         21   -1    0    0  501  502 -0.00000000000E+00 -0.00000000000E+00 -0.72012207646E+03  0.72012207646E+03  0.00000000000E+00 0. -1.
         25    1    1    2    0    0 -0.42788405333E+01 -0.16790047121E+03 -0.17188349189E+03  0.27088339096E+03  0.12500000000E+03 0.  0.
         25    1    1    2    0    0  0.42788405333E+01  0.16790047121E+03 -0.47676626633E+03  0.52071100374E+03  0.12500000000E+03 0.  0.
</event>
<event>
 4    0  0.2134002E-002  0.4142360E+03  0.7546771E-02  0.1038959E+00
         21   -1    0    0  502  501  0.00000000000E+00  0.00000000000E+00  0.65390664206E+03  0.65390664206E+03  0.00000000000E+00 0.  1.
         21   -1    0    0  501  502 -0.00000000000E+00 -0.00000000000E+00 -0.26240967041E+03  0.26240967041E+03  0.00000000000E+00 0.  1.
         25    1    1    2    0    0 -0.39445375485E+03  0.62474093927E+00  0.17440833560E+03  0.44904055779E+03  0.12500000000E+03 0.  0.
         25    1    1    2    0    0  0.39445375485E+03 -0.62474093927E+00  0.21708863604E+03  0.46727575468E+03  0.12500000000E+03 0.  0.
</event>
<event>
 4    0  0.2134002E-002  0.3902503E+03  0.7546771E-02  0.1047209E+00
         21   -1    0    0  502  501  0.00000000000E+00  0.00000000000E+00  0.16770440941E+04  0.16770440941E+04  0.00000000000E+00 0. -1.
         21   -1    0    0  501  502 -0.00000000000E+00 -0.00000000000E+00 -0.90811738485E+02  0.90811738485E+02  0.00000000000E+00 0. -1.
         25    1    1    2    0    0  0.37705000226E+02  0.32224894490E+02  0.16229026339E+04  0.16284649428E+04  0.12500000000E+03 0.  0.
         25    1    1    2    0    0 -0.37705000226E+02 -0.32224894490E+02 -0.36670278211E+02  0.13939088984E+03  0.12500000000E+03 0.  0.
</event>
<event>
 4    0  0.2134002E-002  0.2667718E+03  0.7546771E-02  0.1103142E+00
         21   -1    0    0  502  501  0.00000000000E+00  0.00000000000E+00  0.30027034563E+02  0.30027034563E+02  0.00000000000E+00 0.  1.
         21   -1    0    0  501  502 -0.00000000000E+00 -0.00000000000E+00 -0.23701044714E+04  0.23701044714E+04  0.00000000000E+00 0.  1.
         25    1    1    2    0    0  0.14032921944E+03 -0.10651464743E+03 -0.46585102363E+03  0.51349764962E+03  0.12500000000E+03 0.  0.
         25    1    1    2    0    0 -0.14032921944E+03  0.10651464743E+03 -0.18742264132E+04  0.18866338564E+04  0.12500000000E+03 0.  0.
</event>
<event>
 4    0  0.2134002E-002  0.3551830E+03  0.7546771E-02  0.1060508E+00
         21   -1    0    0  502  501  0.00000000000E+00  0.00000000000E+00  0.44578341586E+03  0.44578341586E+03  0.00000000000E+00 0.  1.
         21   -1    0    0  501  502 -0.00000000000E+00 -0.00000000000E+00 -0.28299606006E+03  0.28299606006E+03  0.00000000000E+00 0.  1.
         25    1    1    2    0    0 -0.21452949106E+03  0.20648006034E+03  0.23312264039E+03  0.39828141221E+03  0.12500000000E+03 0.  0.
         25    1    1    2    0    0  0.21452949106E+03 -0.20648006034E+03 -0.70335284586E+02  0.33049806370E+03  0.12500000000E+03 0.  0.
</event>
<event>
 4    0  0.2134002E-002  0.2124905E+03  0.7546771E-02  0.1139609E+00
         21   -1    0    0  502  501  0.00000000000E+00  0.00000000000E+00  0.17105221780E+03  0.17105221780E+03  0.00000000000E+00 0. -1.
         21   -1    0    0  501  502 -0.00000000000E+00 -0.00000000000E+00 -0.26396735131E+03  0.26396735131E+03  0.00000000000E+00 0. -1.
         25    1    1    2    0    0 -0.13449359534E+03  0.95682778311E+01 -0.15549665047E+03  0.24079926793E+03  0.12500000000E+03 0.  0.
         25    1    1    2    0    0  0.13449359534E+03 -0.95682778311E+01  0.62581516964E+02  0.19422030119E+03  0.12500000000E+03 0.  0.
</event>
<event>
 4    0  0.2134002E-002  0.3119185E+03  0.7546771E-02  0.1079430E+00
         21   -1    0    0  502  501  0.00000000000E+00  0.00000000000E+00  0.27853395962E+03  0.27853395962E+03  0.00000000000E+00 0. -1.
         21   -1    0    0  501  502 -0.00000000000E+00 -0.00000000000E+00 -0.34930443809E+03  0.34930443809E+03  0.00000000000E+00 0. -1.
         25    1    1    2    0    0  0.67718587370E+02 -0.26402256858E+03  0.51040044594E+02  0.30417726731E+03  0.12500000000E+03 0.  0.
         25    1    1    2    0    0 -0.67718587370E+02  0.26402256858E+03 -0.12181052307E+03  0.32366113039E+03  0.12500000000E+03 0.  0.
</event>
<event>
 4    0  0.2134002E-002  0.3719635E+03  0.7546771E-02  0.1053945E+00
         21   -1    0    0  502  501  0.00000000000E+00  0.00000000000E+00  0.18213804323E+03  0.18213804323E+03  0.00000000000E+00 0. -1.
         21   -1    0    0  501  502 -0.00000000000E+00 -0.00000000000E+00 -0.75962647981E+03  0.75962647981E+03  0.00000000000E+00 0. -1.
         25    1    1    2    0    0  0.25169166037E+02  0.21852699615E+03  0.56428069690E+02  0.25922318958E+03  0.12500000000E+03 0.  0.
         25    1    1    2    0    0 -0.25169166037E+02 -0.21852699615E+03 -0.63391650627E+03  0.68254133346E+03  0.12500000000E+03 0.  0.
</event>
<event>
 4    0  0.2134002E-002  0.1820111E+03  0.7546771E-02  0.1165871E+00
         21   -1    0    0  502  501  0.00000000000E+00  0.00000000000E+00  0.24720547856E+03  0.24720547856E+03  0.00000000000E+00 0.  1.
         21   -1    0    0  501  502 -0.00000000000E+00 -0.00000000000E+00 -0.13401013037E+03  0.13401013037E+03  0.00000000000E+00 0.  1.
         25    1    1    2    0    0 -0.12535445931E+03 -0.40653399268E+02  0.44358089191E+02  0.18697347250E+03  0.12500000000E+03 0.  0.
         25    1    1    2    0    0  0.12535445931E+03  0.40653399268E+02  0.68837259002E+02  0.19424213644E+03  0.12500000000E+03 0.  0.
</event>
<event>
 4    0  0.2134002E-002  0.2472640E+03  0.7546771E-02  0.1115046E+00
         21   -1    0    0  502  501  0.00000000000E+00  0.00000000000E+00  0.15782553867E+03  0.15782553867E+03  0.00000000000E+00 0.  1.
         21   -1    0    0  501  502 -0.00000000000E+00 -0.00000000000E+00 -0.38738636855E+03  0.38738636855E+03  0.00000000000E+00 0.  1.
         25    1    1    2    0    0  0.16482066594E+02 -0.21149221813E+03 -0.89789003544E+02  0.26208334935E+03  0.12500000000E+03 0.  0.
         25    1    1    2    0    0 -0.16482066594E+02  0.21149221813E+03 -0.13977182634E+03  0.28312855788E+03  0.12500000000E+03 0.  0.
</event>
<event>
 4    0  0.2134002E-002  0.2068841E+03  0.7546771E-02  0.1144058E+00
         21   -1    0    0  502  501  0.00000000000E+00  0.00000000000E+00  0.11450746554E+04  0.11450746554E+04  0.00000000000E+00 0.  1.
         21   -1    0    0  501  502 -0.00000000000E+00 -0.00000000000E+00 -0.37378358279E+02  0.37378358279E+02  0.00000000000E+00 0.  1.
         25    1    1    2    0    0  0.61589332571E+02 -0.37074756814E+02  0.97780281054E+03  0.98837802473E+03  0.12500000000E+03 0.  0.
         25    1    1    2    0    0 -0.61589332571E+02  0.37074756814E+02  0.12989348659E+03  0.19407498896E+03  0.12500000000E+03 0.  0.
</event>
<event>
 4    0  0.2134002E-002  0.3092259E+03  0.7546771E-02  0.1080718E+00
         21   -1    0    0  502  501  0.00000000000E+00  0.00000000000E+00  0.33591224571E+03  0.33591224571E+03  0.00000000000E+00 0.  1.
         21   -1    0    0  501  502 -0.00000000000E+00 -0.00000000000E+00 -0.28465963251E+03  0.28465963251E+03  0.00000000000E+00 0.  1.
         25    1    1    2    0    0  0.14504194055E+03  0.24276014588E+03  0.30743147544E+02  0.31070853556E+03  0.12500000000E+03 0.  0.
         25    1    1    2    0    0 -0.14504194055E+03 -0.24276014588E+03  0.20509465652E+02  0.30986334266E+03  0.12500000000E+03 0.  0.
</event>
<event>
 4    0  0.2134002E-002  0.1714936E+03  0.7546771E-02  0.1176299E+00
         21   -1    0    0  502  501  0.00000000000E+00  0.00000000000E+00  0.50950798530E+02  0.50950798530E+02  0.00000000000E+00 0.  1.
         21   -1    0    0  501  502 -0.00000000000E+00 -0.00000000000E+00 -0.57722438001E+03  0.57722438001E+03  0.00000000000E+00 0.  1.
         25    1    1    2    0    0  0.47147504945E+02  0.39576940640E+02 -0.80026734984E+02  0.16068136098E+03  0.12500000000E+03 0.  0.
         25    1    1    2    0    0 -0.47147504945E+02 -0.39576940640E+02 -0.44624684649E+03  0.46749381756E+03  0.12500000000E+03 0.  0.
</event>
<event>
 4    0  0.2134002E-002  0.1876053E+03  0.7546771E-02  0.1160639E+00
         21   -1    0    0  502  501  0.00000000000E+00  0.00000000000E+00  0.51864074335E+03  0.51864074335E+03  0.00000000000E+00 0.  1.
         21   -1    0    0  501  502 -0.00000000000E+00 -0.00000000000E+00 -0.67861488093E+02  0.67861488093E+02  0.00000000000E+00 0.  1.
         25    1    1    2    0    0 -0.46787518258E+02 -0.82931428645E+02  0.38559343347E+03  0.41638202369E+03  0.12500000000E+03 0.  0.
         25    1    1    2    0    0  0.46787518258E+02  0.82931428645E+02  0.65185821786E+02  0.17012020775E+03  0.12500000000E+03 0.  0.
</event>
<event>
 4    0  0.2134002E-002  0.1743448E+03  0.7546771E-02  0.1173391E+00
         21   -1    0    0  502  501  0.00000000000E+00  0.00000000000E+00  0.12211457015E+03  0.12211457015E+03  0.00000000000E+00 0. -1.
         21   -1    0    0  501  502 -0.00000000000E+00 -0.00000000000E+00 -0.24891477205E+03  0.24891477205E+03  0.00000000000E+00 0. -1.
         25    1    1    2    0    0 -0.46697442523E+02 -0.51225814771E+02 -0.16962785908E+03  0.22181827205E+03  0.12500000000E+03 0.  0.
         25    1    1    2    0    0  0.46697442523E+02  0.51225814771E+02  0.42827657188E+02  0.14921107016E+03  0.12500000000E+03 0.  0.
</event>
<event>
 4    0  0.2134002E-002  0.2118086E+03  0.7546771E-02  0.1140142E+00
         21   -1    0    0  502  501  0.00000000000E+00  0.00000000000E+00  0.32959634991E+03  0.32959634991E+03  0.00000000000E+00 0.  1.
         21   -1    0    0  501  502 -0.00000000000E+00 -0.00000000000E+00 -0.13611458247E+03  0.13611458247E+03  0.00000000000E+00 0.  1.
         25    1    1    2    0    0 -0.18275584240E+02 -0.90316710107E+02  0.25509089584E+03  0.29864271336E+03  0.12500000000E+03 0.  0.
         25    1    1    2    0    0  0.18275584240E+02  0.90316710107E+02 -0.61609128396E+02  0.16706821902E+03  0.12500000000E+03 0.  0.
</event>
<event>
 4    0  0.2134002E-002  0.2195900E+03  0.7546771E-02  0.1134189E+00
         21   -1    0    0  502  501  0.00000000000E+00  0.00000000000E+00  0.64936473842E+02  0.64936473842E+02  0.00000000000E+00 0. -1.
         21   -1    0    0  501  502 -0.00000000000E+00 -0.00000000000E+00 -0.74256843602E+03  0.74256843602E+03  0.00000000000E+00 0. -1.
         25    1    1    2    0    0  0.10379216610E+03  0.14736254244E+03 -0.35776789534E+03  0.41965628745E+03  0.12500000000E+03 0.  0.
         25    1    1    2    0    0 -0.10379216610E+03 -0.14736254244E+03 -0.31986406684E+03  0.38784862242E+03  0.12500000000E+03 0.  0.
</event>
<event>
 4    0  0.2134002E-002  0.2081760E+03  0.7546771E-02  0.1143019E+00
         21   -1    0    0  502  501  0.00000000000E+00  0.00000000000E+00  0.13709654737E+03  0.13709654737E+03  0.00000000000E+00 0.  1.
         21   -1    0    0  501  502 -0.00000000000E+00 -0.00000000000E+00 -0.31610756514E+03  0.31610756514E+03  0.00000000000E+00 0.  1.
         25    1    1    2    0    0 -0.72246516815E+02  0.69982844764E+02  0.54881788756E+02  0.16957054134E+03  0.12500000000E+03 0.  0.
         25    1    1    2    0    0  0.72246516815E+02 -0.69982844764E+02 -0.23389280652E+03  0.28363357117E+03  0.12500000000E+03 0.  0.
</event>
<event>
 4    0  0.2134002E-002  0.2576011E+03  0.7546771E-02  0.1108593E+00
         21   -1    0    0  502  501  0.00000000000E+00  0.00000000000E+00  0.33756447000E+03  0.33756447000E+03  0.00000000000E+00 0. -1.
         21   -1    0    0  501  502 -0.00000000000E+00 -0.00000000000E+00 -0.19657977476E+03  0.19657977476E+03  0.00000000000E+00 0. -1.
         25    1    1    2    0    0 -0.21847700805E+03 -0.54775851131E+02  0.71390552187E+02  0.26730919897E+03  0.12500000000E+03 0.  0.
         25    1    1    2    0    0  0.21847700805E+03  0.54775851131E+02  0.69594143051E+02  0.26683504579E+03  0.12500000000E+03 0.  0.
</event>
<event>
 4    0  0.2134002E-002  0.2116660E+03  0.7546771E-02  0.1140253E+00
         21   -1    0    0  502  501  0.00000000000E+00  0.00000000000E+00  0.71806094046E+03  0.71806094046E+03  0.00000000000E+00 0.  1.
         21   -1    0    0  501  502 -0.00000000000E+00 -0.00000000000E+00 -0.62393699827E+02  0.62393699827E+02  0.00000000000E+00 0.  1.
         25    1    1    2    0    0 -0.14096689876E+03 -0.12313158124E+02  0.50422477762E+03  0.53841518067E+03  0.12500000000E+03 0.  0.
         25    1    1    2    0    0  0.14096689876E+03  0.12313158124E+02  0.15144246301E+03  0.24203945962E+03  0.12500000000E+03 0.  0.
</event>
<event>
 4    0  0.2134002E-002  0.1834389E+03  0.7546771E-02  0.1164516E+00
         21   -1    0    0  502  501  0.00000000000E+00  0.00000000000E+00  0.82991786048E+02  0.82991786048E+02  0.00000000000E+00 0. -1.
         21   -1    0    0  501  502 -0.00000000000E+00 -0.00000000000E+00 -0.40545971045E+03  0.40545971045E+03  0.00000000000E+00 0. -1.
         25    1    1    2    0    0  0.48453481046E+02  0.20068848732E+02  0.33096710830E+01  0.13559665349E+03  0.12500000000E+03 0.  0.
         25    1    1    2    0    0 -0.48453481046E+02 -0.20068848732E+02 -0.32577759549E+03  0.35285484301E+03  0.12500000000E+03 0.  0.
</event>
<event>
 4    0  0.2134002E-002  0.1305247E+03  0.7546771E-02  0.1226679E+00
         21   -1    0    0  502  501  0.00000000000E+00  0.00000000000E+00  0.21174757181E+02  0.21174757181E+02  0.00000000000E+00 0.  1.
         21   -1    0    0  501  502 -0.00000000000E+00 -0.00000000000E+00 -0.80457618842E+03  0.80457618842E+03  0.00000000000E+00 0.  1.
         25    1    1    2    0    0  0.39160131366E+01 -0.37143303863E+02 -0.37875661144E+03  0.40059522075E+03  0.12500000000E+03 0.  0.
         25    1    1    2    0    0 -0.39160131366E+01  0.37143303863E+02 -0.40464481980E+03  0.42515572485E+03  0.12500000000E+03 0.  0.
</event>
<event>
 4    0  0.2134002E-002  0.1858049E+03  0.7546771E-02  0.1162300E+00
         21   -1    0    0  502  501  0.00000000000E+00  0.00000000000E+00  0.72708157651E+02  0.72708157651E+02  0.00000000000E+00 0. -1.
         21   -1    0    0  501  502 -0.00000000000E+00 -0.00000000000E+00 -0.47482249276E+03  0.47482249276E+03  0.00000000000E+00 0. -1.
         25    1    1    2    0    0 -0.70131577748E+02  0.18814688166E+02 -0.29066047193E+02  0.14745258827E+03  0.12500000000E+03 0.  0.
         25    1    1    2    0    0  0.70131577748E+02 -0.18814688166E+02 -0.37304828791E+03  0.40007806214E+03  0.12500000000E+03 0.  0.
</event>
<event>
 4    0  0.2134002E-002  0.2059328E+03  0.7546771E-02  0.1144828E+00
         21   -1    0    0  502  501  0.00000000000E+00  0.00000000000E+00  0.36815169549E+03  0.36815169549E+03  0.00000000000E+00 0.  1.
         21   -1    0    0  501  502 -0.00000000000E+00 -0.00000000000E+00 -0.11519249572E+03  0.11519249572E+03  0.00000000000E+00 0.  1.
         25    1    1    2    0    0 -0.19886338771E+02 -0.12975816209E+03  0.11791639519E+02  0.18164991016E+03  0.12500000000E+03 0.  0.
         25    1    1    2    0    0  0.19886338771E+02  0.12975816209E+03  0.24116756025E+03  0.30169428104E+03  0.12500000000E+03 0.  0.
</event>
<event>
 4    0  0.2134002E-002  0.2661596E+03  0.7546771E-02  0.1103498E+00
         21   -1    0    0  502  501  0.00000000000E+00  0.00000000000E+00  0.69742172898E+02  0.69742172898E+02  0.00000000000E+00 0. -1.
         21   -1    0    0  501  502 -0.00000000000E+00 -0.00000000000E+00 -0.10157547994E+04  0.10157547994E+04  0.00000000000E+00 0. -1.
         25    1    1    2    0    0 -0.20702646429E+03 -0.10588420450E+03 -0.40401901848E+03  0.48262593069E+03  0.12500000000E+03 0.  0.
         25    1    1    2    0    0  0.20702646429E+03  0.10588420450E+03 -0.54199360804E+03  0.60287104163E+03  0.12500000000E+03 0.  0.
</event>
<event>
 4    0  0.2134002E-002  0.1602026E+03  0.7546771E-02  0.1188468E+00
         21   -1    0    0  502  501  0.00000000000E+00  0.00000000000E+00  0.54957465463E+02  0.54957465463E+02  0.00000000000E+00 0. -1.
         21   -1    0    0  501  502 -0.00000000000E+00 -0.00000000000E+00 -0.46699538865E+03  0.46699538865E+03  0.00000000000E+00 0. -1.
         25    1    1    2    0    0  0.43451437450E+02 -0.82965613373E+02 -0.26404027771E+03  0.30677938111E+03  0.12500000000E+03 0.  0.
         25    1    1    2    0    0 -0.43451437450E+02  0.82965613373E+02 -0.14799764548E+03  0.21517347301E+03  0.12500000000E+03 0.  0.
</event>
<event>
 4    0  0.2134002E-002  0.2662747E+03  0.7546771E-02  0.1103431E+00
         21   -1    0    0  502  501  0.00000000000E+00  0.00000000000E+00  0.64299941980E+02  0.64299941980E+02  0.00000000000E+00 0.  1.
         21   -1    0    0  501  502 -0.00000000000E+00 -0.00000000000E+00 -0.11026790757E+04  0.11026790757E+04  0.00000000000E+00 0.  1.
         25    1    1    2    0    0  0.19857657914E+03 -0.20478488756E+02 -0.79134576827E+03  0.82565437759E+03  0.12500000000E+03 0.  0.
         25    1    1    2    0    0 -0.19857657914E+03  0.20478488756E+02 -0.24703336546E+03  0.34132464009E+03  0.12500000000E+03 0.  0.
</event>
<event>
 4    0  0.2134002E-002  0.2075323E+03  0.7546771E-02  0.1143535E+00
         21   -1    0    0  502  501  0.00000000000E+00  0.00000000000E+00  0.41594640854E+03  0.41594640854E+03  0.00000000000E+00 0. -1.
         21   -1    0    0  501  502 -0.00000000000E+00 -0.00000000000E+00 -0.10354612863E+03  0.10354612863E+03  0.00000000000E+00 0. -1.
         25    1    1    2    0    0 -0.10925636727E+03  0.10332883021E+03  0.24319127426E+03  0.31205896369E+03  0.12500000000E+03 0.  0.
         25    1    1    2    0    0  0.10925636727E+03 -0.10332883021E+03  0.69209005652E+02  0.20743357348E+03  0.12500000000E+03 0.  0.
</event>
<event>
 4    0  0.2134002E-002  0.1654314E+03  0.7546771E-02  0.1182698E+00
         21   -1    0    0  502  501  0.00000000000E+00  0.00000000000E+00  0.25800006944E+03  0.25800006944E+03  0.00000000000E+00 0.  1.
         21   -1    0    0  501  502 -0.00000000000E+00 -0.00000000000E+00 -0.10607575411E+03  0.10607575411E+03  0.00000000000E+00 0.  1.
         25    1    1    2    0    0  0.25727006476E+02 -0.31989987981E+02 -0.34391026379E+02  0.13598889987E+03  0.12500000000E+03 0.  0.
         25    1    1    2    0    0 -0.25727006476E+02  0.31989987981E+02  0.18631534171E+03  0.22808692367E+03  0.12500000000E+03 0.  0.
</event>
<event>
 4    0  0.2134002E-002  0.1655519E+03  0.7546771E-02  0.1182568E+00
         21   -1    0    0  502  501  0.00000000000E+00  0.00000000000E+00  0.24572787031E+03  0.24572787031E+03  0.00000000000E+00 0.  1.
         21   -1    0    0  501  502 -0.00000000000E+00 -0.00000000000E+00 -0.11153568954E+03  0.11153568954E+03  0.00000000000E+00 0.  1.
         25    1    1    2    0    0 -0.13681905537E+02  0.33068677993E+01  0.18323010542E+03  0.22225301223E+03  0.12500000000E+03 0.  0.
         25    1    1    2    0    0  0.13681905537E+02 -0.33068677993E+01 -0.49037924650E+02  0.13501054762E+03  0.12500000000E+03 0.  0.
</event>
<event>
 4    0  0.2134002E-002  0.3018031E+03  0.7546771E-02  0.1084343E+00
         21   -1    0    0  502  501  0.00000000000E+00  0.00000000000E+00  0.21509442532E+03  0.21509442532E+03  0.00000000000E+00 0. -1.
         21   -1    0    0  501  502 -0.00000000000E+00 -0.00000000000E+00 -0.42346564903E+03  0.42346564903E+03  0.00000000000E+00 0. -1.
         25    1    1    2    0    0  0.15937779741E+03  0.22255432108E+03 -0.79867697259E+02  0.31134475618E+03  0.12500000000E+03 0.  0.
         25    1    1    2    0    0 -0.15937779741E+03 -0.22255432108E+03 -0.12850352644E+03  0.32721531817E+03  0.12500000000E+03 0.  0.
</event>
<event>
 4    0  0.2134002E-002  0.2240191E+03  0.7546771E-02  0.1130922E+00
         21   -1    0    0  502  501  0.00000000000E+00  0.00000000000E+00  0.14368806443E+04  0.14368806443E+04  0.00000000000E+00 0. -1.
         21   -1    0    0  501  502 -0.00000000000E+00 -0.00000000000E+00 -0.34926036747E+02  0.34926036747E+02  0.00000000000E+00 0. -1.
         25    1    1    2    0    0  0.18320813733E+03 -0.89420001453E+01  0.80031077831E+03  0.83052243969E+03  0.12500000000E+03 0.  0.
         25    1    1    2    0    0 -0.18320813733E+03  0.89420001453E+01  0.60164382929E+03  0.64128424140E+03  0.12500000000E+03 0.  0.
</event>
<event>
 4    0  0.2134002E-002  0.2006113E+03  0.7546771E-02  0.1149224E+00
         21   -1    0    0  502  501  0.00000000000E+00  0.00000000000E+00  0.73349616337E+03  0.73349616337E+03  0.00000000000E+00 0. -1.
         21   -1    0    0  501  502 -0.00000000000E+00 -0.00000000000E+00 -0.54867203363E+02  0.54867203363E+02  0.00000000000E+00 0. -1.
         25    1    1    2    0    0 -0.88346081164E+02 -0.12435211136E+03  0.41154719621E+03  0.45636013450E+03  0.12500000000E+03 0.  0.
         25    1    1    2    0    0  0.88346081164E+02  0.12435211136E+03  0.26708176379E+03  0.33200323223E+03  0.12500000000E+03 0.  0.
</event>
<event>
 4    0  0.2134002E-002  0.2940241E+03  0.7546771E-02  0.1088267E+00
         21   -1    0    0  502  501  0.00000000000E+00  0.00000000000E+00  0.90875357048E+03  0.90875357048E+03  0.00000000000E+00 0.  1.
         21   -1    0    0  501  502 -0.00000000000E+00 -0.00000000000E+00 -0.95130498835E+02  0.95130498835E+02  0.00000000000E+00 0.  1.
         25    1    1    2    0    0 -0.12566140677E+02  0.11631459177E+03  0.81488076507E+03  0.83267199631E+03  0.12500000000E+03 0.  0.
         25    1    1    2    0    0  0.12566140677E+02 -0.11631459177E+03 -0.12576934313E+01  0.17121207300E+03  0.12500000000E+03 0.  0.
</event>
